Title t= 302.00000 step= 151000
46055
    1GLY      N    1   3.257   3.264   1.027
    1GLY    HT1    2   3.342   3.300   0.980
    1GLY    HT2    3   3.211   3.212   0.949
    1GLY    HT3    4   3.277   3.184   1.090
    1GLY     CA    5   3.166   3.359   1.101
    1GLY    HA1    6   3.065   3.323   1.113
    1GLY    HA2    7   3.182   3.440   1.031
    1GLY      C    8   3.230   3.400   1.232
    1GLY      O    9   3.318   3.328   1.283
    2PRO      N   10   3.189   3.518   1.284
    2PRO     CD   11   3.100   3.612   1.223
    2PRO    HD1   12   2.997   3.577   1.200
    2PRO    HD2   13   3.157   3.645   1.133
    2PRO     CA   14   3.209   3.548   1.430
    2PRO     HA   15   3.312   3.580   1.438
    2PRO     CB   16   3.118   3.660   1.461
    2PRO    HB1   17   3.165   3.735   1.528
    2PRO    HB2   18   3.013   3.633   1.486
    2PRO     CG   19   3.098   3.728   1.319
    2PRO    HG1   20   3.008   3.793   1.311
    2PRO    HG2   21   3.187   3.793   1.306
    2PRO      C   22   3.198   3.428   1.527
    2PRO      O   23   3.092   3.369   1.533
    3GLY      N   24   3.308   3.406   1.600
    3GLY     HN   25   3.391   3.462   1.589
    3GLY     CA   26   3.300   3.299   1.702
    3GLY    HA1   27   3.401   3.267   1.721
    3GLY    HA2   28   3.250   3.221   1.646
    3GLY      C   29   3.218   3.330   1.821
    3GLY      O   30   3.156   3.431   1.833
    4ALA      N   31   3.238   3.247   1.927
    4ALA     HN   32   3.305   3.174   1.915
    4ALA     CA   33   3.148   3.247   2.042
    4ALA     HA   34   3.088   3.337   2.035
    4ALA     CB   35   3.064   3.121   2.038
    4ALA    HB1   36   3.128   3.030   2.041
    4ALA    HB2   37   2.997   3.112   1.950
    4ALA    HB3   38   3.008   3.120   2.134
    4ALA      C   39   3.245   3.260   2.164
    4ALA      O   40   3.334   3.179   2.188
    5PRO      N   41   3.242   3.364   2.248
    5PRO     CD   42   3.156   3.479   2.227
    5PRO    HD1   43   3.049   3.462   2.252
    5PRO    HD2   44   3.174   3.538   2.135
    5PRO     CA   45   3.309   3.365   2.376
    5PRO     HA   46   3.410   3.374   2.339
    5PRO     CB   47   3.248   3.482   2.449
    5PRO    HB1   48   3.316   3.531   2.522
    5PRO    HB2   49   3.165   3.439   2.509
    5PRO     CG   50   3.195   3.578   2.342
    5PRO    HG1   51   3.104   3.639   2.366
    5PRO    HG2   52   3.277   3.641   2.302
    5PRO      C   53   3.309   3.235   2.460
    5PRO      O   54   3.227   3.146   2.440
    6GLY      N   55   3.414   3.221   2.548
    6GLY     HN   56   3.481   3.295   2.543
    6GLY     CA   57   3.446   3.098   2.631
    6GLY    HA1   58   3.549   3.119   2.656
    6GLY    HA2   59   3.430   3.012   2.569
    6GLY      C   60   3.364   3.085   2.755
    6GLY      O   61   3.264   3.150   2.767
    7PRO      N   62   3.400   3.004   2.858
    7PRO     CD   63   3.511   2.910   2.850
    7PRO    HD1   64   3.609   2.960   2.855
    7PRO    HD2   65   3.507   2.858   2.752
    7PRO     CA   66   3.339   3.003   2.988
    7PRO     HA   67   3.244   2.957   2.967
    7PRO     CB   68   3.436   2.916   3.073
    7PRO    HB1   69   3.379   2.861   3.151
    7PRO    HB2   70   3.509   2.985   3.121
    7PRO     CG   71   3.495   2.824   2.970
    7PRO    HG1   72   3.591   2.774   2.998
    7PRO    HG2   73   3.428   2.738   2.951
    7PRO      C   74   3.305   3.136   3.050
    7PRO      O   75   3.370   3.234   3.024
    8GLY      N   76   3.180   3.142   3.112
    8GLY     HN   77   3.120   3.067   3.085
    8GLY     CA   78   3.108   3.258   3.154
    8GLY    HA1   79   3.011   3.226   3.188
    8GLY    HA2   80   3.091   3.318   3.066
    8GLY      C   81   3.186   3.330   3.254
    8GLY      O   82   3.279   3.281   3.313
    9ALA      N   83   3.137   3.451   3.268
    9ALA     HN   84   3.056   3.481   3.219
    9ALA     CA   85   3.173   3.552   3.363
    9ALA     HA   86   3.252   3.516   3.427
    9ALA     CB   87   3.212   3.675   3.275
    9ALA    HB1   88   3.308   3.660   3.222
    9ALA    HB2   89   3.210   3.759   3.349
    9ALA    HB3   90   3.132   3.691   3.199
    9ALA      C   91   3.042   3.586   3.438
    9ALA      O   92   2.935   3.570   3.389
   10PRO      N   93   3.056   3.632   3.569
   10PRO     CD   94   3.184   3.656   3.635
   10PRO    HD1   95   3.231   3.745   3.589
   10PRO    HD2   96   3.249   3.566   3.641
   10PRO     CA   97   2.949   3.655   3.662
   10PRO     HA   98   2.922   3.552   3.683
   10PRO     CB   99   3.012   3.736   3.778
   10PRO    HB1  100   2.955   3.707   3.869
   10PRO    HB2  101   3.018   3.844   3.754
   10PRO     CG  102   3.153   3.687   3.784
   10PRO    HG1  103   3.224   3.761   3.828
   10PRO    HG2  104   3.147   3.596   3.847
   10PRO      C  105   2.821   3.716   3.606
   10PRO      O  106   2.823   3.823   3.548
   11GLY      N  107   2.703   3.659   3.638
   11GLY     HN  108   2.695   3.576   3.693
   11GLY     CA  109   2.582   3.727   3.602
   11GLY    HA1  110   2.505   3.671   3.653
   11GLY    HA2  111   2.583   3.724   3.494
   11GLY      C  112   2.554   3.865   3.654
   11GLY      O  113   2.630   3.915   3.738
   12PRO      N  114   2.454   3.927   3.598
   12PRO     CD  115   2.366   3.861   3.492
   12PRO    HD1  116   2.324   3.767   3.533
   12PRO    HD2  117   2.433   3.840   3.407
   12PRO     CA  118   2.387   4.045   3.661
   12PRO     HA  119   2.427   4.139   3.628
   12PRO     CB  120   2.249   4.042   3.605
   12PRO    HB1  121   2.210   4.145   3.588
   12PRO    HB2  122   2.186   3.971   3.664
   12PRO     CG  123   2.258   3.966   3.471
   12PRO    HG1  124   2.161   3.927   3.434
   12PRO    HG2  125   2.296   4.044   3.402
   12PRO      C  126   2.377   4.050   3.816
   12PRO      O  127   2.317   3.960   3.881
   13GLY      N  128   2.432   4.158   3.866
   13GLY     HN  129   2.482   4.218   3.804
   13GLY     CA  130   2.433   4.183   4.004
   13GLY    HA1  131   2.514   4.245   4.040
   13GLY    HA2  132   2.435   4.090   4.060
   13GLY      C  133   2.315   4.244   4.067
   13GLY      O  134   2.232   4.316   4.009
   14ALA      N  135   2.302   4.227   4.202
   14ALA     HN  136   2.362   4.166   4.253
   14ALA     CA  137   2.199   4.291   4.286
   14ALA     HA  138   2.106   4.256   4.243
   14ALA     CB  139   2.204   4.238   4.426
   14ALA    HB1  140   2.106   4.263   4.474
   14ALA    HB2  141   2.293   4.279   4.479
   14ALA    HB3  142   2.211   4.127   4.425
   14ALA      C  143   2.192   4.446   4.281
   14ALA      O  144   2.301   4.499   4.270
   15PRO      N  145   2.082   4.516   4.291
   15PRO     CD  146   1.946   4.454   4.263
   15PRO    HD1  147   1.935   4.364   4.328
   15PRO    HD2  148   1.942   4.421   4.157
   15PRO     CA  149   2.077   4.660   4.280
   15PRO     HA  150   2.116   4.692   4.185
   15PRO     CB  151   1.923   4.694   4.268
   15PRO    HB1  152   1.897   4.718   4.162
   15PRO    HB2  153   1.899   4.781   4.332
   15PRO     CG  154   1.851   4.564   4.305
   15PRO    HG1  155   1.854   4.565   4.417
   15PRO    HG2  156   1.745   4.552   4.276
   15PRO      C  157   2.137   4.729   4.399
   15PRO    OT1  158   2.140   4.688   4.518
   15PRO    OT2  159   2.187   4.845   4.374
   16LIT    LIT  160   5.382   4.036   1.992
   17LIT    LIT  161   1.994   6.027   3.681
   18LIT    LIT  162   3.017   1.715   1.898
   19LIT    LIT  163   5.267   5.396   1.888
   20LIT    LIT  164   2.644   5.425   3.144
   21LIT    LIT  165   1.874   5.364   1.875
   22LIT    LIT  166   2.281   1.424   6.371
   23LIT    LIT  167   6.691   4.736   2.232
   24LIT    LIT  168   3.948   4.808   3.773
   25LIT    LIT  169   4.997   0.725   5.720
   26LIT    LIT  170   6.598   2.809   4.808
   27LIT    LIT  171   0.498   4.452   4.061
   28LIT    LIT  172   0.813   6.600   5.770
   29LIT    LIT  173   4.480   1.739   1.641
   30LIT    LIT  174   4.155   5.948   3.157
   31LIT    LIT  175  -0.020   2.252   5.030
   32LIT    LIT  176   3.237   7.883   0.048
   33LIT    LIT  177   5.802   7.536   1.664
   34LIT    LIT  178   6.825   7.039   0.985
   35LIT    LIT  179   5.262   7.005   3.184
   36LIT    LIT  180   6.711   7.222   2.804
   37LIT    LIT  181   3.484   6.376   2.444
   38LIT    LIT  182   0.569   3.629   0.454
   39LIT    LIT  183   2.988   2.009   4.653
   40LIT    LIT  184   7.653   6.758   5.679
   41LIT    LIT  185   2.186   1.847   6.753
   42LIT    LIT  186   7.047   5.104   0.832
   43LIT    LIT  187   4.365   0.248   0.108
   44LIT    LIT  188   4.599   7.835   1.562
   45LIT    LIT  189   0.661   7.016   1.346
   46LIT    LIT  190   1.898   3.947   4.383
   47LIT    LIT  191   0.416   0.744   1.025
   48LIT    LIT  192   1.052   7.684   2.138
   49LIT    LIT  193   3.615   7.746   5.239
   50LIT    LIT  194   4.663   4.782   1.919
   51LIT    LIT  195   3.815   6.941   1.393
   52LIT    LIT  196   6.958   0.496   5.665
   53LIT    LIT  197   3.489   7.480   5.604
   54LIT    LIT  198   5.854   1.589   6.622
   55LIT    LIT  199   1.771   1.855   3.491
   56LIT    LIT  200   7.009   5.559   3.870
   57LIT    LIT  201   3.826   4.563   0.548
   58LIT    LIT  202   2.222   4.849   4.562
   59CLA    CLA  203   3.438   5.804   3.383
   60CLA    CLA  204   4.310   6.057   3.314
   61CLA    CLA  205   2.898   2.518   6.666
   62CLA    CLA  206   0.940   7.805   3.250
   63CLA    CLA  207   1.211   6.753   2.611
   64CLA    CLA  208   2.506   6.443   4.602
   65CLA    CLA  209   1.811   2.767   5.984
   66CLA    CLA  210   0.446   5.845   0.419
   67CLA    CLA  211   0.106   3.580   2.910
   68CLA    CLA  212   8.133   6.439   2.924
   69CLA    CLA  213   6.453   6.568   3.592
   70CLA    CLA  214   5.945   0.488   0.568
   71CLA    CLA  215   1.979   2.658   1.810
   72CLA    CLA  216   7.197   5.686   3.883
   73CLA    CLA  217   1.023   6.523   5.813
   74CLA    CLA  218   8.390   0.492   1.929
   75CLA    CLA  219   6.476   7.602   6.240
   76CLA    CLA  220   2.048   2.815   0.460
   77CLA    CLA  221   4.026   0.943   5.247
   78CLA    CLA  222   7.580   0.618   6.023
   79CLA    CLA  223   6.062   4.225   2.327
   80CLA    CLA  224   6.472   7.482   0.368
   81CLA    CLA  225   2.459   2.137   0.648
   82CLA    CLA  226   4.119   4.740   2.537
   83CLA    CLA  227   7.149   5.529   5.506
   84CLA    CLA  228   0.531   6.371   1.621
   85CLA    CLA  229   1.094   5.242   1.593
   86CLA    CLA  230   8.191   2.479   5.908
   87CLA    CLA  231   2.287   4.173   0.364
   88CLA    CLA  232   7.099   4.094   2.127
   89CLA    CLA  233   3.662   3.278   1.151
   90CLA    CLA  234   1.037   2.848   6.212
   91CLA    CLA  235   5.520   7.259   0.132
   92CLA    CLA  236   6.183   4.322   1.650
   93CLA    CLA  237   2.496   0.911   6.456
   94CLA    CLA  238   5.694   6.819   3.326
   95CLA    CLA  239   4.280   1.314   0.788
   96CLA    CLA  240   5.561   2.210   4.423
   97CLA    CLA  241   2.669   1.754   5.019
   98CLA    CLA  242   7.669   1.877   5.580
   99CLA    CLA  243   1.797   5.398   2.520
  100CLA    CLA  244   5.299   0.577   5.115
  101CLA    CLA  245   0.690   0.689   2.887
  102TIP3   OH2  246   2.743   3.692   1.194
  102TIP3    H1  247   2.688   3.732   1.127
  102TIP3    H2  248   2.715   3.601   1.198
  103TIP3   OH2  249   1.487   4.422   3.706
  103TIP3    H1  250   1.419   4.395   3.645
  103TIP3    H2  251   1.512   4.342   3.751
  104TIP3   OH2  252   2.718   0.356   2.950
  104TIP3    H1  253   2.768   0.380   3.029
  104TIP3    H2  254   2.627   0.373   2.973
  105TIP3   OH2  255   1.711   3.292   5.274
  105TIP3    H1  256   1.624   3.259   5.292
  105TIP3    H2  257   1.767   3.214   5.272
  106TIP3   OH2  258   2.516   7.031   2.297
  106TIP3    H1  259   2.546   7.121   2.296
  106TIP3    H2  260   2.566   6.988   2.228
  107TIP3   OH2  261   5.338   6.418   5.615
  107TIP3    H1  262   5.353   6.456   5.701
  107TIP3    H2  263   5.250   6.447   5.591
  108TIP3   OH2  264   1.449   2.397   6.069
  108TIP3    H1  265   1.357   2.419   6.056
  108TIP3    H2  266   1.487   2.401   5.981
  109TIP3   OH2  267   0.157   6.721   3.871
  109TIP3    H1  268   0.122   6.810   3.869
  109TIP3    H2  269   0.215   6.716   3.795
  110TIP3   OH2  270   2.951   2.609   2.577
  110TIP3    H1  271   2.992   2.577   2.657
  110TIP3    H2  272   2.874   2.657   2.607
  111TIP3   OH2  273   5.096   4.760   0.305
  111TIP3    H1  274   5.077   4.809   0.226
  111TIP3    H2  275   5.014   4.760   0.354
  112TIP3   OH2  276   2.888   7.728   2.156
  112TIP3    H1  277   2.893   7.781   2.236
  112TIP3    H2  278   2.900   7.638   2.187
  113TIP3   OH2  279   0.859   7.552   0.794
  113TIP3    H1  280   0.787   7.509   0.747
  113TIP3    H2  281   0.825   7.638   0.817
  114TIP3   OH2  282   3.102   2.401   2.732
  114TIP3    H1  283   3.164   2.415   2.661
  114TIP3    H2  284   3.154   2.363   2.803
  115TIP3   OH2  285   2.718   6.459   0.987
  115TIP3    H1  286   2.750   6.402   1.058
  115TIP3    H2  287   2.624   6.468   1.004
  116TIP3   OH2  288   3.708   5.260   0.128
  116TIP3    H1  289   3.679   5.285   0.216
  116TIP3    H2  290   3.683   5.334   0.072
  117TIP3   OH2  291   2.359   0.889   2.296
  117TIP3    H1  292   2.391   0.803   2.267
  117TIP3    H2  293   2.439   0.937   2.317
  118TIP3   OH2  294   5.016   4.915   1.057
  118TIP3    H1  295   5.095   4.870   1.029
  118TIP3    H2  296   5.025   4.922   1.152
  119TIP3   OH2  297   6.885   3.688   6.424
  119TIP3    H1  298   6.914   3.779   6.425
  119TIP3    H2  299   6.905   3.658   6.335
  120TIP3   OH2  300   6.555   2.380   3.467
  120TIP3    H1  301   6.609   2.438   3.521
  120TIP3    H2  302   6.611   2.304   3.450
  121TIP3   OH2  303   0.984   7.109   4.113
  121TIP3    H1  304   1.049   7.180   4.113
  121TIP3    H2  305   1.023   7.041   4.057
  122TIP3   OH2  306   2.453   3.038   3.100
  122TIP3    H1  307   2.431   3.131   3.088
  122TIP3    H2  308   2.400   2.993   3.035
  123TIP3   OH2  309   4.673   6.350   1.235
  123TIP3    H1  310   4.636   6.359   1.323
  123TIP3    H2  311   4.767   6.342   1.251
  124TIP3   OH2  312   5.087   6.537   1.518
  124TIP3    H1  313   5.122   6.615   1.476
  124TIP3    H2  314   5.110   6.547   1.610
  125TIP3   OH2  315   1.060   5.264   5.967
  125TIP3    H1  316   1.100   5.195   6.020
  125TIP3    H2  317   0.995   5.304   6.024
  126TIP3   OH2  318   4.173   7.256   6.602
  126TIP3    H1  319   4.199   7.334   6.651
  126TIP3    H2  320   4.155   7.190   6.668
  127TIP3   OH2  321   6.413   6.074   3.615
  127TIP3    H1  322   6.482   6.078   3.681
  127TIP3    H2  323   6.351   6.142   3.639
  128TIP3   OH2  324   7.518   2.952   1.633
  128TIP3    H1  325   7.511   2.863   1.668
  128TIP3    H2  326   7.534   2.939   1.539
  129TIP3   OH2  327   8.200   0.204   1.155
  129TIP3    H1  328   8.184   0.177   1.064
  129TIP3    H2  329   8.114   0.224   1.190
  130TIP3   OH2  330   7.903   7.257   1.110
  130TIP3    H1  331   7.873   7.346   1.092
  130TIP3    H2  332   7.997   7.266   1.122
  131TIP3   OH2  333   6.980   2.346   5.237
  131TIP3    H1  334   7.058   2.391   5.205
  131TIP3    H2  335   7.010   2.299   5.316
  132TIP3   OH2  336   1.652   0.235   5.487
  132TIP3    H1  337   1.655   0.140   5.488
  132TIP3    H2  338   1.587   0.257   5.420
  133TIP3   OH2  339   5.970   0.139   3.553
  133TIP3    H1  340   6.003   0.182   3.632
  133TIP3    H2  341   6.036   0.158   3.486
  134TIP3   OH2  342   6.971   6.325   1.536
  134TIP3    H1  343   6.956   6.269   1.460
  134TIP3    H2  344   6.910   6.293   1.602
  135TIP3   OH2  345   7.631   6.535   5.354
  135TIP3    H1  346   7.649   6.589   5.277
  135TIP3    H2  347   7.651   6.446   5.326
  136TIP3   OH2  348   6.825   0.081   1.916
  136TIP3    H1  349   6.890   0.144   1.947
  136TIP3    H2  350   6.855  -0.003   1.951
  137TIP3   OH2  351   7.235   2.444   2.595
  137TIP3    H1  352   7.223   2.406   2.509
  137TIP3    H2  353   7.325   2.420   2.619
  138TIP3   OH2  354   1.026   5.677   0.290
  138TIP3    H1  355   1.085   5.681   0.365
  138TIP3    H2  356   0.973   5.757   0.297
  139TIP3   OH2  357   2.592   4.021   1.360
  139TIP3    H1  358   2.641   3.947   1.397
  139TIP3    H2  359   2.660   4.079   1.325
  140TIP3   OH2  360   4.604   1.189   4.967
  140TIP3    H1  361   4.685   1.149   4.934
  140TIP3    H2  362   4.616   1.283   4.949
  141TIP3   OH2  363   6.753   7.585   0.440
  141TIP3    H1  364   6.772   7.509   0.495
  141TIP3    H2  365   6.667   7.565   0.402
  142TIP3   OH2  366   0.805   7.505   3.857
  142TIP3    H1  367   0.741   7.499   3.786
  142TIP3    H2  368   0.876   7.447   3.830
  143TIP3   OH2  369   5.318   2.582   5.732
  143TIP3    H1  370   5.298   2.675   5.743
  143TIP3    H2  371   5.340   2.552   5.820
  144TIP3   OH2  372   5.045   4.150   0.970
  144TIP3    H1  373   5.045   4.229   1.024
  144TIP3    H2  374   4.958   4.113   0.980
  145TIP3   OH2  375   1.976   5.811   5.128
  145TIP3    H1  376   1.924   5.772   5.198
  145TIP3    H2  377   1.916   5.869   5.082
  146TIP3   OH2  378   0.065   5.342   2.180
  146TIP3    H1  379  -0.017   5.364   2.137
  146TIP3    H2  380   0.132   5.391   2.132
  147TIP3   OH2  381   4.388   3.585   1.867
  147TIP3    H1  382   4.476   3.604   1.900
  147TIP3    H2  383   4.347   3.671   1.858
  148TIP3   OH2  384   7.164   4.769   4.462
  148TIP3    H1  385   7.253   4.735   4.452
  148TIP3    H2  386   7.110   4.713   4.405
  149TIP3   OH2  387   4.605   3.328   4.130
  149TIP3    H1  388   4.510   3.318   4.133
  149TIP3    H2  389   4.634   3.317   4.220
  150TIP3   OH2  390   6.759   4.411   4.146
  150TIP3    H1  391   6.700   4.349   4.189
  150TIP3    H2  392   6.835   4.357   4.121
  151TIP3   OH2  393   2.216   4.873   0.997
  151TIP3    H1  394   2.280   4.898   0.929
  151TIP3    H2  395   2.139   4.927   0.978
  152TIP3   OH2  396   8.172   4.248   1.867
  152TIP3    H1  397   8.092   4.300   1.871
  152TIP3    H2  398   8.155   4.173   1.923
  153TIP3   OH2  399   6.447   4.324   1.254
  153TIP3    H1  400   6.404   4.405   1.229
  153TIP3    H2  401   6.388   4.284   1.318
  154TIP3   OH2  402   5.526   2.025   6.190
  154TIP3    H1  403   5.482   2.093   6.241
  154TIP3    H2  404   5.619   2.047   6.195
  155TIP3   OH2  405   1.335   1.568   4.894
  155TIP3    H1  406   1.346   1.626   4.970
  155TIP3    H2  407   1.385   1.610   4.824
  156TIP3   OH2  408   7.502   5.958   3.266
  156TIP3    H1  409   7.542   5.968   3.352
  156TIP3    H2  410   7.466   5.870   3.266
  157TIP3   OH2  411   7.726   0.824   0.698
  157TIP3    H1  412   7.768   0.886   0.638
  157TIP3    H2  413   7.650   0.872   0.731
  158TIP3   OH2  414   0.368   2.678   3.271
  158TIP3    H1  415   0.356   2.651   3.181
  158TIP3    H2  416   0.463   2.670   3.287
  159TIP3   OH2  417   4.442   6.858   3.283
  159TIP3    H1  418   4.512   6.838   3.221
  159TIP3    H2  419   4.369   6.804   3.253
  160TIP3   OH2  420   0.348   0.198   4.802
  160TIP3    H1  421   0.441   0.221   4.805
  160TIP3    H2  422   0.346   0.103   4.814
  161TIP3   OH2  423   3.758   4.130   0.857
  161TIP3    H1  424   3.770   4.103   0.766
  161TIP3    H2  425   3.816   4.205   0.868
  162TIP3   OH2  426   2.406   1.257   3.578
  162TIP3    H1  427   2.316   1.282   3.598
  162TIP3    H2  428   2.423   1.293   3.491
  163TIP3   OH2  429   2.375   1.543   6.816
  163TIP3    H1  430   2.319   1.466   6.825
  163TIP3    H2  431   2.451   1.512   6.767
  164TIP3   OH2  432   5.700   1.486   6.565
  164TIP3    H1  433   5.714   1.393   6.582
  164TIP3    H2  434   5.609   1.502   6.589
  165TIP3   OH2  435   7.609   2.118   2.714
  165TIP3    H1  436   7.666   2.195   2.707
  165TIP3    H2  437   7.668   2.044   2.701
  166TIP3   OH2  438   6.409   4.631   5.964
  166TIP3    H1  439   6.384   4.649   5.874
  166TIP3    H2  440   6.408   4.536   5.971
  167TIP3   OH2  441   5.580   3.211   2.293
  167TIP3    H1  442   5.552   3.185   2.205
  167TIP3    H2  443   5.536   3.295   2.309
  168TIP3   OH2  444   4.051   4.348   1.012
  168TIP3    H1  445   3.991   4.350   0.937
  168TIP3    H2  446   4.128   4.397   0.982
  169TIP3   OH2  447   0.508   5.045   3.061
  169TIP3    H1  448   0.511   5.078   3.151
  169TIP3    H2  449   0.464   5.115   3.012
  170TIP3   OH2  450   4.274   2.817   4.580
  170TIP3    H1  451   4.276   2.903   4.621
  170TIP3    H2  452   4.358   2.777   4.606
  171TIP3   OH2  453   7.031   5.271   4.323
  171TIP3    H1  454   6.935   5.267   4.316
  171TIP3    H2  455   7.053   5.204   4.387
  172TIP3   OH2  456   7.584   3.186   0.026
  172TIP3    H1  457   7.657   3.133  -0.007
  172TIP3    H2  458   7.524   3.192  -0.048
  173TIP3   OH2  459   0.630   6.410   3.618
  173TIP3    H1  460   0.701   6.416   3.554
  173TIP3    H2  461   0.554   6.444   3.571
  174TIP3   OH2  462   4.140   7.551   0.297
  174TIP3    H1  463   4.112   7.622   0.353
  174TIP3    H2  464   4.096   7.566   0.214
  175TIP3   OH2  465   7.505   1.063   0.196
  175TIP3    H1  466   7.443   1.049   0.268
  175TIP3    H2  467   7.574   0.998   0.212
  176TIP3   OH2  468   0.256   2.364   0.303
  176TIP3    H1  469   0.275   2.336   0.392
  176TIP3    H2  470   0.342   2.371   0.261
  177TIP3   OH2  471   3.295   0.663   3.162
  177TIP3    H1  472   3.386   0.638   3.143
  177TIP3    H2  473   3.243   0.602   3.110
  178TIP3   OH2  474   2.548   7.036   5.359
  178TIP3    H1  475   2.519   6.958   5.407
  178TIP3    H2  476   2.578   7.096   5.427
  179TIP3   OH2  477   6.187   1.229   1.328
  179TIP3    H1  478   6.267   1.185   1.299
  179TIP3    H2  479   6.163   1.183   1.409
  180TIP3   OH2  480   7.230   7.720   6.816
  180TIP3    H1  481   7.292   7.792   6.806
  180TIP3    H2  482   7.266   7.650   6.761
  181TIP3   OH2  483   7.057   3.420   6.035
  181TIP3    H1  484   7.037   3.335   6.075
  181TIP3    H2  485   7.022   3.413   5.946
  182TIP3   OH2  486   0.204   4.609   5.150
  182TIP3    H1  487   0.276   4.612   5.212
  182TIP3    H2  488   0.171   4.699   5.146
  183TIP3   OH2  489   1.974   6.419   2.342
  183TIP3    H1  490   1.928   6.484   2.289
  183TIP3    H2  491   1.934   6.427   2.429
  184TIP3   OH2  492   3.511   5.530   6.647
  184TIP3    H1  493   3.467   5.565   6.570
  184TIP3    H2  494   3.449   5.467   6.684
  185TIP3   OH2  495   0.482   7.540   4.245
  185TIP3    H1  496   0.559   7.495   4.211
  185TIP3    H2  497   0.473   7.508   4.335
  186TIP3   OH2  498   2.219   2.548   1.618
  186TIP3    H1  499   2.154   2.550   1.688
  186TIP3    H2  500   2.204   2.628   1.568
  187TIP3   OH2  501   6.709   4.106   2.415
  187TIP3    H1  502   6.658   4.132   2.339
  187TIP3    H2  503   6.696   4.011   2.422
  188TIP3   OH2  504   3.673   0.223   0.595
  188TIP3    H1  505   3.710   0.200   0.680
  188TIP3    H2  506   3.720   0.303   0.570
  189TIP3   OH2  507   3.056   3.139   4.368
  189TIP3    H1  508   3.099   3.056   4.349
  189TIP3    H2  509   2.983   3.116   4.426
  190TIP3   OH2  510   0.893   1.205   3.780
  190TIP3    H1  511   0.949   1.262   3.727
  190TIP3    H2  512   0.948   1.130   3.802
  191TIP3   OH2  513   1.014   4.081   3.831
  191TIP3    H1  514   0.949   4.107   3.766
  191TIP3    H2  515   1.097   4.084   3.784
  192TIP3   OH2  516   3.403   3.808   4.544
  192TIP3    H1  517   3.385   3.790   4.452
  192TIP3    H2  518   3.435   3.725   4.579
  193TIP3   OH2  519   5.516   1.899   5.375
  193TIP3    H1  520   5.448   1.938   5.321
  193TIP3    H2  521   5.580   1.969   5.388
  194TIP3   OH2  522   1.408   1.990   2.730
  194TIP3    H1  523   1.419   1.897   2.752
  194TIP3    H2  524   1.380   1.990   2.638
  195TIP3   OH2  525   1.694   7.245   3.813
  195TIP3    H1  526   1.631   7.309   3.846
  195TIP3    H2  527   1.757   7.296   3.763
  196TIP3   OH2  528   1.784   2.857   6.771
  196TIP3    H1  529   1.784   2.950   6.793
  196TIP3    H2  530   1.821   2.853   6.683
  197TIP3   OH2  531   3.043   1.267   2.376
  197TIP3    H1  532   2.973   1.282   2.312
  197TIP3    H2  533   3.038   1.174   2.396
  198TIP3   OH2  534   4.249   2.708   0.219
  198TIP3    H1  535   4.265   2.619   0.252
  198TIP3    H2  536   4.284   2.707   0.130
  199TIP3   OH2  537   1.014   5.011   4.233
  199TIP3    H1  538   0.987   5.066   4.307
  199TIP3    H2  539   0.969   4.928   4.248
  200TIP3   OH2  540   0.390   7.627   3.767
  200TIP3    H1  541   0.298   7.633   3.740
  200TIP3    H2  542   0.389   7.568   3.842
  201TIP3   OH2  543   6.467   0.715   3.278
  201TIP3    H1  544   6.494   0.704   3.370
  201TIP3    H2  545   6.377   0.683   3.276
  202TIP3   OH2  546   1.165   0.317   4.676
  202TIP3    H1  547   1.216   0.269   4.742
  202TIP3    H2  548   1.101   0.253   4.645
  203TIP3   OH2  549   4.171   7.824   3.149
  203TIP3    H1  550   4.136   7.912   3.155
  203TIP3    H2  551   4.218   7.822   3.065
  204TIP3   OH2  552   4.023   2.090   4.060
  204TIP3    H1  553   4.097   2.047   4.017
  204TIP3    H2  554   4.026   2.180   4.029
  205TIP3   OH2  555   7.589   4.469   6.569
  205TIP3    H1  556   7.604   4.563   6.572
  205TIP3    H2  557   7.564   4.451   6.479
  206TIP3   OH2  558   0.019   1.856   3.148
  206TIP3    H1  559   0.068   1.775   3.165
  206TIP3    H2  560  -0.062   1.826   3.108
  207TIP3   OH2  561   2.086   1.810   3.763
  207TIP3    H1  562   2.060   1.740   3.824
  207TIP3    H2  563   2.181   1.808   3.764
  208TIP3   OH2  564   0.232   0.683   0.612
  208TIP3    H1  565   0.256   0.670   0.521
  208TIP3    H2  566   0.224   0.778   0.622
  209TIP3   OH2  567   3.966   3.178   1.236
  209TIP3    H1  568   3.883   3.196   1.191
  209TIP3    H2  569   4.032   3.218   1.180
  210TIP3   OH2  570   1.874   6.452   6.024
  210TIP3    H1  571   1.839   6.384   5.967
  210TIP3    H2  572   1.908   6.518   5.964
  211TIP3   OH2  573   5.850   6.202   3.311
  211TIP3    H1  574   5.912   6.184   3.240
  211TIP3    H2  575   5.765   6.207   3.267
  212TIP3   OH2  576   3.094   7.124   0.833
  212TIP3    H1  577   3.023   7.165   0.784
  212TIP3    H2  578   3.123   7.052   0.777
  213TIP3   OH2  579   4.774   2.170   0.924
  213TIP3    H1  580   4.844   2.162   0.859
  213TIP3    H2  581   4.803   2.117   0.998
  214TIP3   OH2  582   2.421   5.836   3.691
  214TIP3    H1  583   2.434   5.930   3.683
  214TIP3    H2  584   2.416   5.820   3.785
  215TIP3   OH2  585   1.161   5.574   2.866
  215TIP3    H1  586   1.149   5.637   2.795
  215TIP3    H2  587   1.073   5.563   2.903
  216TIP3   OH2  588   3.192   6.897   4.353
  216TIP3    H1  589   3.286   6.915   4.364
  216TIP3    H2  590   3.161   6.970   4.300
  217TIP3   OH2  591   3.612   5.008   1.782
  217TIP3    H1  592   3.543   5.029   1.845
  217TIP3    H2  593   3.648   4.924   1.813
  218TIP3   OH2  594   7.004   4.131   5.787
  218TIP3    H1  595   6.923   4.141   5.736
  218TIP3    H2  596   6.993   4.192   5.860
  219TIP3   OH2  597   4.663   2.516   4.754
  219TIP3    H1  598   4.690   2.475   4.672
  219TIP3    H2  599   4.744   2.525   4.804
  220TIP3   OH2  600   8.094   0.311   6.330
  220TIP3    H1  601   8.100   0.321   6.235
  220TIP3    H2  602   8.113   0.218   6.346
  221TIP3   OH2  603   1.775   7.516   6.282
  221TIP3    H1  604   1.847   7.453   6.277
  221TIP3    H2  605   1.789   7.575   6.207
  222TIP3   OH2  606   7.325   1.909   3.279
  222TIP3    H1  607   7.366   1.936   3.196
  222TIP3    H2  608   7.324   1.988   3.332
  223TIP3   OH2  609   4.367   4.387   6.288
  223TIP3    H1  610   4.272   4.388   6.298
  223TIP3    H2  611   4.394   4.302   6.325
  224TIP3   OH2  612   0.115   4.536   2.098
  224TIP3    H1  613   0.205   4.529   2.129
  224TIP3    H2  614   0.103   4.629   2.081
  225TIP3   OH2  615   2.945   1.371   5.837
  225TIP3    H1  616   2.905   1.377   5.750
  225TIP3    H2  617   2.926   1.455   5.878
  226TIP3   OH2  618   0.917   6.691   2.127
  226TIP3    H1  619   0.893   6.599   2.134
  226TIP3    H2  620   0.988   6.702   2.191
  227TIP3   OH2  621   5.242   6.286   0.276
  227TIP3    H1  622   5.160   6.240   0.296
  227TIP3    H2  623   5.231   6.314   0.185
  228TIP3   OH2  624   0.933   6.771   1.042
  228TIP3    H1  625   0.988   6.809   0.972
  228TIP3    H2  626   0.930   6.678   1.022
  229TIP3   OH2  627   3.116   7.371   0.179
  229TIP3    H1  628   3.057   7.299   0.204
  229TIP3    H2  629   3.203   7.332   0.182
  230TIP3   OH2  630   6.177   3.622   1.208
  230TIP3    H1  631   6.237   3.653   1.140
  230TIP3    H2  632   6.109   3.575   1.159
  231TIP3   OH2  633   7.844   3.097   5.714
  231TIP3    H1  634   7.909   3.028   5.721
  231TIP3    H2  635   7.861   3.154   5.789
  232TIP3   OH2  636   0.327   7.795   5.637
  232TIP3    H1  637   0.410   7.842   5.623
  232TIP3    H2  638   0.303   7.814   5.727
  233TIP3   OH2  639   6.618   6.806   0.038
  233TIP3    H1  640   6.695   6.828   0.090
  233TIP3    H2  641   6.591   6.889  -0.002
  234TIP3   OH2  642   0.248   6.265   2.065
  234TIP3    H1  643   0.225   6.182   2.104
  234TIP3    H2  644   0.326   6.246   2.012
  235TIP3   OH2  645   3.307   7.286   2.646
  235TIP3    H1  646   3.256   7.206   2.631
  235TIP3    H2  647   3.349   7.272   2.730
  236TIP3   OH2  648   5.494   2.655   3.495
  236TIP3    H1  649   5.399   2.644   3.485
  236TIP3    H2  650   5.523   2.576   3.540
  237TIP3   OH2  651   3.989   2.528   3.791
  237TIP3    H1  652   4.069   2.581   3.795
  237TIP3    H2  653   4.020   2.438   3.801
  238TIP3   OH2  654   5.150   0.588   0.740
  238TIP3    H1  655   5.104   0.645   0.679
  238TIP3    H2  656   5.222   0.552   0.689
  239TIP3   OH2  657   1.367   7.870   1.922
  239TIP3    H1  658   1.420   7.846   1.998
  239TIP3    H2  659   1.390   7.805   1.855
  240TIP3   OH2  660   6.592   7.333   0.619
  240TIP3    H1  661   6.516   7.293   0.661
  240TIP3    H2  662   6.556   7.376   0.542
  241TIP3   OH2  663   3.843   0.203   0.839
  241TIP3    H1  664   3.806   0.274   0.892
  241TIP3    H2  665   3.931   0.233   0.818
  242TIP3   OH2  666   6.101   5.623   0.869
  242TIP3    H1  667   6.135   5.666   0.791
  242TIP3    H2  668   6.048   5.551   0.835
  243TIP3   OH2  669   0.277   2.723   6.206
  243TIP3    H1  670   0.364   2.729   6.244
  243TIP3    H2  671   0.293   2.705   6.113
  244TIP3   OH2  672   1.865   1.283   6.837
  244TIP3    H1  673   1.870   1.188   6.846
  244TIP3    H2  674   1.784   1.307   6.883
  245TIP3   OH2  675   1.499   2.487   5.074
  245TIP3    H1  676   1.411   2.471   5.108
  245TIP3    H2  677   1.491   2.474   4.980
  246TIP3   OH2  678   7.369   1.578   0.531
  246TIP3    H1  679   7.464   1.573   0.542
  246TIP3    H2  680   7.334   1.517   0.595
  247TIP3   OH2  681   4.174   3.744   1.737
  247TIP3    H1  682   4.113   3.761   1.809
  247TIP3    H2  683   4.126   3.684   1.680
  248TIP3   OH2  684   2.683   5.246   3.254
  248TIP3    H1  685   2.629   5.174   3.222
  248TIP3    H2  686   2.750   5.204   3.307
  249TIP3   OH2  687   4.722   2.025   5.244
  249TIP3    H1  688   4.698   1.946   5.196
  249TIP3    H2  689   4.648   2.041   5.302
  250TIP3   OH2  690   7.373   4.788   5.516
  250TIP3    H1  691   7.462   4.818   5.500
  250TIP3    H2  692   7.325   4.867   5.540
  251TIP3   OH2  693   4.451   6.587   4.014
  251TIP3    H1  694   4.472   6.511   3.960
  251TIP3    H2  695   4.530   6.602   4.066
  252TIP3   OH2  696   3.825   4.877   4.739
  252TIP3    H1  697   3.813   4.834   4.824
  252TIP3    H2  698   3.736   4.891   4.707
  253TIP3   OH2  699   3.305   0.860   0.221
  253TIP3    H1  700   3.381   0.910   0.251
  253TIP3    H2  701   3.250   0.925   0.176
  254TIP3   OH2  702   4.525   3.289   5.288
  254TIP3    H1  703   4.465   3.252   5.352
  254TIP3    H2  704   4.612   3.266   5.320
  255TIP3   OH2  705   5.563   1.452   3.784
  255TIP3    H1  706   5.518   1.426   3.864
  255TIP3    H2  707   5.632   1.387   3.773
  256TIP3   OH2  708   6.731   1.844  -0.045
  256TIP3    H1  709   6.823   1.868  -0.033
  256TIP3    H2  710   6.725   1.756  -0.008
  257TIP3   OH2  711   8.282   1.507   6.546
  257TIP3    H1  712   8.215   1.442   6.567
  257TIP3    H2  713   8.362   1.456   6.534
  258TIP3   OH2  714   5.925   3.417   2.504
  258TIP3    H1  715   5.942   3.361   2.579
  258TIP3    H2  716   5.975   3.497   2.522
  259TIP3   OH2  717   5.406   5.548   3.310
  259TIP3    H1  718   5.312   5.531   3.314
  259TIP3    H2  719   5.435   5.545   3.401
  260TIP3   OH2  720   4.272   6.487   1.379
  260TIP3    H1  721   4.263   6.578   1.352
  260TIP3    H2  722   4.321   6.445   1.308
  261TIP3   OH2  723   3.642   1.349   5.017
  261TIP3    H1  724   3.659   1.436   4.983
  261TIP3    H2  725   3.725   1.302   5.007
  262TIP3   OH2  726   6.635   1.180   5.195
  262TIP3    H1  727   6.575   1.105   5.194
  262TIP3    H2  728   6.721   1.141   5.210
  263TIP3   OH2  729   3.926   7.522   4.270
  263TIP3    H1  730   3.865   7.468   4.219
  263TIP3    H2  731   3.877   7.602   4.288
  264TIP3   OH2  732   3.290   2.832   1.373
  264TIP3    H1  733   3.273   2.773   1.300
  264TIP3    H2  734   3.287   2.777   1.451
  265TIP3   OH2  735   3.904   4.960   3.193
  265TIP3    H1  736   3.811   4.976   3.208
  265TIP3    H2  737   3.929   4.897   3.260
  266TIP3   OH2  738   0.050   2.615   1.043
  266TIP3    H1  739   0.115   2.545   1.044
  266TIP3    H2  740  -0.006   2.596   1.118
  267TIP3   OH2  741   3.472   2.346   3.410
  267TIP3    H1  742   3.522   2.275   3.371
  267TIP3    H2  743   3.464   2.323   3.503
  268TIP3   OH2  744   3.856   0.944   4.819
  268TIP3    H1  745   3.813   0.858   4.814
  268TIP3    H2  746   3.944   0.925   4.850
  269TIP3   OH2  747   1.597   3.229   6.686
  269TIP3    H1  748   1.650   3.176   6.746
  269TIP3    H2  749   1.527   3.263   6.741
  270TIP3   OH2  750   6.743   7.119   5.712
  270TIP3    H1  751   6.822   7.162   5.678
  270TIP3    H2  752   6.697   7.187   5.761
  271TIP3   OH2  753   2.688   0.401   1.781
  271TIP3    H1  754   2.627   0.354   1.838
  271TIP3    H2  755   2.732   0.464   1.839
  272TIP3   OH2  756   1.664   3.365   5.872
  272TIP3    H1  757   1.620   3.449   5.858
  272TIP3    H2  758   1.619   3.326   5.948
  273TIP3   OH2  759   4.482   7.372   1.942
  273TIP3    H1  760   4.467   7.306   1.875
  273TIP3    H2  761   4.555   7.424   1.909
  274TIP3   OH2  762   4.312   3.122   6.278
  274TIP3    H1  763   4.313   3.029   6.258
  274TIP3    H2  764   4.240   3.157   6.226
  275TIP3   OH2  765   8.045   7.371   2.601
  275TIP3    H1  766   8.103   7.295   2.591
  275TIP3    H2  767   7.957   7.333   2.605
  276TIP3   OH2  768   2.432   6.761   3.142
  276TIP3    H1  769   2.359   6.699   3.136
  276TIP3    H2  770   2.396   6.835   3.192
  277TIP3   OH2  771   1.201   5.456   3.108
  277TIP3    H1  772   1.128   5.511   3.137
  277TIP3    H2  773   1.221   5.489   3.020
  278TIP3   OH2  774   7.099   3.926   4.926
  278TIP3    H1  775   7.119   3.835   4.905
  278TIP3    H2  776   7.004   3.928   4.939
  279TIP3   OH2  777   2.113   7.644   6.550
  279TIP3    H1  778   2.091   7.735   6.567
  279TIP3    H2  779   2.201   7.633   6.585
  280TIP3   OH2  780   0.090   4.287   3.181
  280TIP3    H1  781   0.117   4.196   3.175
  280TIP3    H2  782   0.142   4.323   3.253
  281TIP3   OH2  783   0.568   3.868   2.957
  281TIP3    H1  784   0.573   3.881   2.862
  281TIP3    H2  785   0.627   3.935   2.993
  282TIP3   OH2  786   6.692   0.940   6.473
  282TIP3    H1  787   6.599   0.945   6.451
  282TIP3    H2  788   6.727   0.874   6.413
  283TIP3   OH2  789   7.967   5.718   3.921
  283TIP3    H1  790   7.991   5.647   3.981
  283TIP3    H2  791   7.979   5.798   3.973
  284TIP3   OH2  792   6.561   6.494   3.297
  284TIP3    H1  793   6.534   6.521   3.384
  284TIP3    H2  794   6.478   6.480   3.250
  285TIP3   OH2  795   1.330   4.990   4.449
  285TIP3    H1  796   1.388   5.001   4.525
  285TIP3    H2  797   1.371   5.043   4.381
  286TIP3   OH2  798   1.136   3.866   5.650
  286TIP3    H1  799   1.046   3.843   5.627
  286TIP3    H2  800   1.186   3.785   5.637
  287TIP3   OH2  801   3.674   3.646   1.390
  287TIP3    H1  802   3.743   3.583   1.365
  287TIP3    H2  803   3.651   3.621   1.480
  288TIP3   OH2  804   8.004   3.214   2.653
  288TIP3    H1  805   8.049   3.211   2.738
  288TIP3    H2  806   8.058   3.161   2.595
  289TIP3   OH2  807   4.099   1.161   4.838
  289TIP3    H1  808   4.076   1.141   4.748
  289TIP3    H2  809   4.194   1.152   4.841
  290TIP3   OH2  810   4.173   4.694   2.232
  290TIP3    H1  811   4.158   4.697   2.327
  290TIP3    H2  812   4.161   4.602   2.208
  291TIP3   OH2  813   6.861   5.722   2.488
  291TIP3    H1  814   6.876   5.718   2.394
  291TIP3    H2  815   6.886   5.811   2.512
  292TIP3   OH2  816   1.915   7.234   6.289
  292TIP3    H1  817   1.914   7.287   6.210
  292TIP3    H2  818   1.990   7.267   6.339
  293TIP3   OH2  819   5.198   0.896   1.639
  293TIP3    H1  820   5.191   0.932   1.728
  293TIP3    H2  821   5.281   0.849   1.639
  294TIP3   OH2  822   2.181   6.215   4.342
  294TIP3    H1  823   2.266   6.171   4.344
  294TIP3    H2  824   2.202   6.307   4.357
  295TIP3   OH2  825   2.836   7.448   1.469
  295TIP3    H1  826   2.794   7.489   1.544
  295TIP3    H2  827   2.775   7.462   1.396
  296TIP3   OH2  828   2.365   4.198   0.690
  296TIP3    H1  829   2.300   4.238   0.747
  296TIP3    H2  830   2.319   4.183   0.607
  297TIP3   OH2  831   0.253   0.438   4.686
  297TIP3    H1  832   0.251   0.349   4.718
  297TIP3    H2  833   0.305   0.486   4.750
  298TIP3   OH2  834   4.554   0.264   0.069
  298TIP3    H1  835   4.595   0.299  -0.010
  298TIP3    H2  836   4.625   0.219   0.115
  299TIP3   OH2  837   5.510   0.189   5.745
  299TIP3    H1  838   5.553   0.241   5.812
  299TIP3    H2  839   5.419   0.219   5.745
  300TIP3   OH2  840   2.765   5.986   0.563
  300TIP3    H1  841   2.822   6.032   0.624
  300TIP3    H2  842   2.758   5.897   0.599
  301TIP3   OH2  843   5.842   6.016   4.651
  301TIP3    H1  844   5.911   5.972   4.700
  301TIP3    H2  845   5.771   5.952   4.647
  302TIP3   OH2  846   0.188   4.297   0.233
  302TIP3    H1  847   0.249   4.307   0.306
  302TIP3    H2  848   0.157   4.206   0.239
  303TIP3   OH2  849   5.388   1.143   5.322
  303TIP3    H1  850   5.451   1.183   5.382
  303TIP3    H2  851   5.442   1.099   5.256
  304TIP3   OH2  852   2.246   7.494   3.777
  304TIP3    H1  853   2.316   7.431   3.763
  304TIP3    H2  854   2.278   7.550   3.847
  305TIP3   OH2  855   8.067   1.032   6.576
  305TIP3    H1  856   8.010   0.992   6.643
  305TIP3    H2  857   8.135   0.967   6.561
  306TIP3   OH2  858   5.924   2.414   5.906
  306TIP3    H1  859   5.848   2.465   5.879
  306TIP3    H2  860   5.931   2.428   6.000
  307TIP3   OH2  861   1.419   6.946   3.015
  307TIP3    H1  862   1.445   6.998   2.939
  307TIP3    H2  863   1.357   6.881   2.981
  308TIP3   OH2  864   4.725   5.829   5.133
  308TIP3    H1  865   4.734   5.795   5.223
  308TIP3    H2  866   4.661   5.899   5.140
  309TIP3   OH2  867   5.434   2.286   2.715
  309TIP3    H1  868   5.427   2.198   2.678
  309TIP3    H2  869   5.372   2.338   2.663
  310TIP3   OH2  870   5.542   6.829   2.693
  310TIP3    H1  871   5.449   6.828   2.673
  310TIP3    H2  872   5.565   6.737   2.709
  311TIP3   OH2  873   8.134   5.009   6.015
  311TIP3    H1  874   8.046   4.981   5.991
  311TIP3    H2  875   8.163   5.063   5.941
  312TIP3   OH2  876   6.616   1.301   2.739
  312TIP3    H1  877   6.575   1.349   2.667
  312TIP3    H2  878   6.676   1.240   2.696
  313TIP3   OH2  879   5.737   3.246   3.688
  313TIP3    H1  880   5.753   3.171   3.630
  313TIP3    H2  881   5.823   3.285   3.700
  314TIP3   OH2  882   5.939   0.496   4.577
  314TIP3    H1  883   5.870   0.507   4.643
  314TIP3    H2  884   5.929   0.572   4.519
  315TIP3   OH2  885   5.601   6.535   5.062
  315TIP3    H1  886   5.687   6.503   5.035
  315TIP3    H2  887   5.597   6.518   5.156
  316TIP3   OH2  888   2.921   7.258   1.850
  316TIP3    H1  889   3.011   7.262   1.819
  316TIP3    H2  890   2.928   7.236   1.942
  317TIP3   OH2  891   5.315   7.160   5.406
  317TIP3    H1  892   5.349   7.076   5.436
  317TIP3    H2  893   5.358   7.225   5.461
  318TIP3   OH2  894   0.658   0.277   4.841
  318TIP3    H1  895   0.702   0.203   4.884
  318TIP3    H2  896   0.695   0.355   4.882
  319TIP3   OH2  897   2.151   6.590   0.988
  319TIP3    H1  898   2.176   6.580   0.896
  319TIP3    H2  899   2.211   6.656   1.023
  320TIP3   OH2  900   1.397   2.343   6.577
  320TIP3    H1  901   1.433   2.431   6.592
  320TIP3    H2  902   1.366   2.315   6.662
  321TIP3   OH2  903   5.197   5.652   5.921
  321TIP3    H1  904   5.152   5.707   5.857
  321TIP3    H2  905   5.154   5.671   6.004
  322TIP3   OH2  906   5.337   6.085   1.449
  322TIP3    H1  907   5.344   6.111   1.358
  322TIP3    H2  908   5.256   6.125   1.480
  323TIP3   OH2  909   7.111   5.652   1.366
  323TIP3    H1  910   7.162   5.655   1.285
  323TIP3    H2  911   7.172   5.622   1.433
  324TIP3   OH2  912   3.805   3.838   3.852
  324TIP3    H1  913   3.797   3.920   3.900
  324TIP3    H2  914   3.818   3.772   3.919
  325TIP3   OH2  915   0.310   4.410   0.935
  325TIP3    H1  916   0.355   4.412   1.019
  325TIP3    H2  917   0.380   4.404   0.870
  326TIP3   OH2  918   5.937   7.579   6.511
  326TIP3    H1  919   5.955   7.558   6.420
  326TIP3    H2  920   6.019   7.616   6.544
  327TIP3   OH2  921   1.280   7.826   0.359
  327TIP3    H1  922   1.284   7.814   0.264
  327TIP3    H2  923   1.212   7.765   0.387
  328TIP3   OH2  924   7.097   7.283   0.170
  328TIP3    H1  925   7.157   7.352   0.197
  328TIP3    H2  926   7.124   7.263   0.080
  329TIP3   OH2  927   3.787   5.399   4.188
  329TIP3    H1  928   3.695   5.415   4.208
  329TIP3    H2  929   3.790   5.309   4.155
  330TIP3   OH2  930   3.506   2.387   1.697
  330TIP3    H1  931   3.412   2.391   1.681
  330TIP3    H2  932   3.537   2.476   1.682
  331TIP3   OH2  933   1.250   6.233   0.938
  331TIP3    H1  934   1.305   6.156   0.946
  331TIP3    H2  935   1.161   6.201   0.955
  332TIP3   OH2  936   8.102   6.028   0.706
  332TIP3    H1  937   8.040   5.976   0.654
  332TIP3    H2  938   8.141   5.965   0.767
  333TIP3   OH2  939   3.446   6.245   3.010
  333TIP3    H1  940   3.389   6.244   2.933
  333TIP3    H2  941   3.387   6.234   3.084
  334TIP3   OH2  942   8.166   4.491   0.636
  334TIP3    H1  943   8.195   4.578   0.662
  334TIP3    H2  944   8.240   4.454   0.588
  335TIP3   OH2  945   3.071   5.826   0.176
  335TIP3    H1  946   3.077   5.836   0.271
  335TIP3    H2  947   3.067   5.915   0.142
  336TIP3   OH2  948   6.748   5.351   3.863
  336TIP3    H1  949   6.771   5.263   3.891
  336TIP3    H2  950   6.777   5.357   3.772
  337TIP3   OH2  951   7.783   3.430   4.570
  337TIP3    H1  952   7.851   3.457   4.509
  337TIP3    H2  953   7.823   3.441   4.657
  338TIP3   OH2  954   5.758   2.168   1.063
  338TIP3    H1  955   5.787   2.259   1.071
  338TIP3    H2  956   5.665   2.170   1.086
  339TIP3   OH2  957   5.304   4.207   3.434
  339TIP3    H1  958   5.282   4.295   3.403
  339TIP3    H2  959   5.370   4.175   3.373
  340TIP3   OH2  960   6.316   4.213   4.418
  340TIP3    H1  961   6.338   4.242   4.507
  340TIP3    H2  962   6.230   4.252   4.401
  341TIP3   OH2  963   2.328   3.582   6.246
  341TIP3    H1  964   2.386   3.658   6.250
  341TIP3    H2  965   2.296   3.571   6.335
  342TIP3   OH2  966   6.108   6.946   0.716
  342TIP3    H1  967   6.064   6.976   0.637
  342TIP3    H2  968   6.132   7.027   0.762
  343TIP3   OH2  969   6.055   4.228   1.133
  343TIP3    H1  970   6.000   4.153   1.155
  343TIP3    H2  971   6.114   4.237   1.208
  344TIP3   OH2  972   1.421   6.424   1.384
  344TIP3    H1  973   1.470   6.342   1.395
  344TIP3    H2  974   1.489   6.492   1.385
  345TIP3   OH2  975   0.095   6.257   4.168
  345TIP3    H1  976   0.164   6.287   4.228
  345TIP3    H2  977   0.038   6.333   4.157
  346TIP3   OH2  978   6.863   3.613   6.137
  346TIP3    H1  979   6.937   3.558   6.110
  346TIP3    H2  980   6.871   3.693   6.084
  347TIP3   OH2  981   5.726   4.062   1.383
  347TIP3    H1  982   5.795   4.125   1.364
  347TIP3    H2  983   5.657   4.082   1.319
  348TIP3   OH2  984   5.650   3.334   0.055
  348TIP3    H1  985   5.633   3.241   0.042
  348TIP3    H2  986   5.737   3.349   0.016
  349TIP3   OH2  987   3.122   6.712   1.310
  349TIP3    H1  988   3.048   6.656   1.286
  349TIP3    H2  989   3.086   6.800   1.316
  350TIP3   OH2  990   2.016   4.320   2.703
  350TIP3    H1  991   1.922   4.329   2.720
  350TIP3    H2  992   2.033   4.379   2.629
  351TIP3   OH2  993   7.909   5.688   1.356
  351TIP3    H1  994   7.876   5.767   1.313
  351TIP3    H2  995   7.996   5.713   1.387
  352TIP3   OH2  996   5.000   7.774   3.641
  352TIP3    H1  997   4.982   7.799   3.550
  352TIP3    H2  998   5.026   7.682   3.636
  353TIP3   OH2  999   1.664   0.615   3.500
  353TIP3    H1 1000   1.712   0.698   3.508
  353TIP3    H2 1001   1.660   0.581   3.589
  354TIP3   OH2 1002   5.988   2.346   4.582
  354TIP3    H1 1003   6.009   2.277   4.520
  354TIP3    H2 1004   5.924   2.308   4.641
  355TIP3   OH2 1005   3.126   0.346   4.972
  355TIP3    H1 1006   3.049   0.319   4.921
  355TIP3    H2 1007   3.130   0.283   5.044
  356TIP3   OH2 1008   5.506   3.644   5.943
  356TIP3    H1 1009   5.415   3.633   5.969
  356TIP3    H2 1010   5.514   3.737   5.922
  357TIP3   OH2 1011   4.788   4.648   1.893
  357TIP3    H1 1012   4.823   4.618   1.977
  357TIP3    H2 1013   4.840   4.601   1.828
  358TIP3   OH2 1014   4.299   0.162   1.825
  358TIP3    H1 1015   4.233   0.114   1.875
  358TIP3    H2 1016   4.324   0.102   1.754
  359TIP3   OH2 1017   0.474   7.635   6.082
  359TIP3    H1 1018   0.559   7.625   6.040
  359TIP3    H2 1019   0.464   7.556   6.136
  360TIP3   OH2 1020   2.679   0.526   4.005
  360TIP3    H1 1021   2.679   0.504   3.911
  360TIP3    H2 1022   2.771   0.519   4.031
  361TIP3   OH2 1023   3.175   3.045   3.836
  361TIP3    H1 1024   3.208   2.992   3.909
  361TIP3    H2 1025   3.108   2.991   3.795
  362TIP3   OH2 1026   3.247   5.848   1.448
  362TIP3    H1 1027   3.282   5.932   1.418
  362TIP3    H2 1028   3.157   5.847   1.416
  363TIP3   OH2 1029   0.925   1.257   3.154
  363TIP3    H1 1030   0.997   1.283   3.211
  363TIP3    H2 1031   0.917   1.162   3.167
  364TIP3   OH2 1032   3.384   4.333   5.626
  364TIP3    H1 1033   3.364   4.296   5.540
  364TIP3    H2 1034   3.300   4.333   5.673
  365TIP3   OH2 1035   2.726   1.147   5.537
  365TIP3    H1 1036   2.801   1.205   5.549
  365TIP3    H2 1037   2.759   1.060   5.561
  366TIP3   OH2 1038   2.241   7.942   1.436
  366TIP3    H1 1039   2.298   7.929   1.360
  366TIP3    H2 1040   2.262   7.870   1.495
  367TIP3   OH2 1041   1.703   5.421   1.000
  367TIP3    H1 1042   1.738   5.347   1.050
  367TIP3    H2 1043   1.735   5.499   1.044
  368TIP3   OH2 1044   1.489   7.576   2.877
  368TIP3    H1 1045   1.442   7.496   2.901
  368TIP3    H2 1046   1.465   7.639   2.945
  369TIP3   OH2 1047   0.719   0.910   1.659
  369TIP3    H1 1048   0.734   0.825   1.618
  369TIP3    H2 1049   0.790   0.919   1.723
  370TIP3   OH2 1050   3.524   5.593   1.954
  370TIP3    H1 1051   3.517   5.498   1.943
  370TIP3    H2 1052   3.476   5.611   2.035
  371TIP3   OH2 1053   0.714   7.937   2.282
  371TIP3    H1 1054   0.644   7.977   2.333
  371TIP3    H2 1055   0.674   7.859   2.243
  372TIP3   OH2 1056   0.805   4.129   3.632
  372TIP3    H1 1057   0.713   4.155   3.638
  372TIP3    H2 1058   0.835   4.162   3.547
  373TIP3   OH2 1059   0.601   0.379   6.550
  373TIP3    H1 1060   0.601   0.399   6.457
  373TIP3    H2 1061   0.527   0.319   6.562
  374TIP3   OH2 1062   3.714   0.402   0.996
  374TIP3    H1 1063   3.723   0.434   1.085
  374TIP3    H2 1064   3.713   0.481   0.941
  375TIP3   OH2 1065   0.001   6.930   1.765
  375TIP3    H1 1066   0.081   6.879   1.777
  375TIP3    H2 1067  -0.017   6.966   1.853
  376TIP3   OH2 1068   3.574   7.027   2.149
  376TIP3    H1 1069   3.634   6.958   2.179
  376TIP3    H2 1070   3.600   7.043   2.058
  377TIP3   OH2 1071   7.190   4.067   5.252
  377TIP3    H1 1072   7.232   4.130   5.193
  377TIP3    H2 1073   7.109   4.043   5.208
  378TIP3   OH2 1074   3.829   2.412   2.737
  378TIP3    H1 1075   3.829   2.364   2.654
  378TIP3    H2 1076   3.819   2.503   2.712
  379TIP3   OH2 1077   1.709   7.911   2.044
  379TIP3    H1 1078   1.722   7.849   1.972
  379TIP3    H2 1079   1.645   7.868   2.101
  380TIP3   OH2 1080   0.342   1.300   6.214
  380TIP3    H1 1081   0.361   1.381   6.261
  380TIP3    H2 1082   0.425   1.251   6.216
  381TIP3   OH2 1083   4.956   6.222   0.254
  381TIP3    H1 1084   4.966   6.223   0.349
  381TIP3    H2 1085   4.875   6.172   0.239
  382TIP3   OH2 1086   2.080   3.597   1.160
  382TIP3    H1 1087   2.045   3.509   1.147
  382TIP3    H2 1088   2.016   3.641   1.215
  383TIP3   OH2 1089   8.265   5.258   4.735
  383TIP3    H1 1090   8.348   5.298   4.762
  383TIP3    H2 1091   8.199   5.326   4.748
  384TIP3   OH2 1092   4.446   3.570   6.295
  384TIP3    H1 1093   4.381   3.608   6.236
  384TIP3    H2 1094   4.408   3.579   6.382
  385TIP3   OH2 1095   6.200   3.020   3.439
  385TIP3    H1 1096   6.232   2.984   3.356
  385TIP3    H2 1097   6.253   3.097   3.454
  386TIP3   OH2 1098   0.453   3.311   4.367
  386TIP3    H1 1099   0.391   3.326   4.295
  386TIP3    H2 1100   0.400   3.314   4.446
  387TIP3   OH2 1101   3.900   2.693   1.479
  387TIP3    H1 1102   3.912   2.762   1.413
  387TIP3    H2 1103   3.916   2.736   1.563
  388TIP3   OH2 1104   4.845   0.877   6.693
  388TIP3    H1 1105   4.936   0.901   6.713
  388TIP3    H2 1106   4.796   0.959   6.701
  389TIP3   OH2 1107   3.133   6.772   4.097
  389TIP3    H1 1108   3.222   6.738   4.087
  389TIP3    H2 1109   3.111   6.753   4.188
  390TIP3   OH2 1110   0.956   2.983   2.464
  390TIP3    H1 1111   0.993   3.020   2.384
  390TIP3    H2 1112   0.866   2.961   2.442
  391TIP3   OH2 1113   0.172   1.908   0.512
  391TIP3    H1 1114   0.208   1.819   0.513
  391TIP3    H2 1115   0.178   1.937   0.604
  392TIP3   OH2 1116   4.156   7.072   5.791
  392TIP3    H1 1117   4.142   7.015   5.867
  392TIP3    H2 1118   4.225   7.132   5.820
  393TIP3   OH2 1119   1.110   4.930   4.845
  393TIP3    H1 1120   1.055   4.951   4.920
  393TIP3    H2 1121   1.094   4.837   4.828
  394TIP3   OH2 1122   2.067   5.855   3.635
  394TIP3    H1 1123   2.046   5.765   3.658
  394TIP3    H2 1124   2.146   5.848   3.581
  395TIP3   OH2 1125   6.087   1.471   1.261
  395TIP3    H1 1126   6.121   1.382   1.267
  395TIP3    H2 1127   6.152   1.518   1.209
  396TIP3   OH2 1128   6.745   4.582   6.639
  396TIP3    H1 1129   6.664   4.632   6.638
  396TIP3    H2 1130   6.722   4.497   6.600
  397TIP3   OH2 1131   0.325   3.943   2.100
  397TIP3    H1 1132   0.280   4.028   2.109
  397TIP3    H2 1133   0.403   3.963   2.049
  398TIP3   OH2 1134   1.947   0.767   0.580
  398TIP3    H1 1135   1.975   0.681   0.548
  398TIP3    H2 1136   1.853   0.757   0.597
  399TIP3   OH2 1137   3.752   2.303   2.983
  399TIP3    H1 1138   3.676   2.361   2.987
  399TIP3    H2 1139   3.766   2.287   2.890
  400TIP3   OH2 1140   0.205   4.894   2.390
  400TIP3    H1 1141   0.150   4.967   2.362
  400TIP3    H2 1142   0.173   4.871   2.476
  401TIP3   OH2 1143   7.643   6.042   4.268
  401TIP3    H1 1144   7.720   5.986   4.270
  401TIP3    H2 1145   7.630   6.061   4.175
  402TIP3   OH2 1146   5.333   3.815   1.566
  402TIP3    H1 1147   5.404   3.826   1.630
  402TIP3    H2 1148   5.331   3.898   1.518
  403TIP3   OH2 1149   3.782   6.469   6.264
  403TIP3    H1 1150   3.758   6.477   6.357
  403TIP3    H2 1151   3.859   6.525   6.254
  404TIP3   OH2 1152   7.753   1.037   0.515
  404TIP3    H1 1153   7.748   0.997   0.428
  404TIP3    H2 1154   7.662   1.057   0.537
  405TIP3   OH2 1155   1.254   6.711   0.351
  405TIP3    H1 1156   1.248   6.658   0.430
  405TIP3    H2 1157   1.219   6.654   0.282
  406TIP3   OH2 1158   4.351   3.804   3.975
  406TIP3    H1 1159   4.423   3.799   4.038
  406TIP3    H2 1160   4.275   3.829   4.027
  407TIP3   OH2 1161   3.513   2.532   1.373
  407TIP3    H1 1162   3.427   2.506   1.341
  407TIP3    H2 1163   3.499   2.553   1.466
  408TIP3   OH2 1164   6.046   1.694   6.291
  408TIP3    H1 1165   6.060   1.755   6.220
  408TIP3    H2 1166   6.022   1.612   6.248
  409TIP3   OH2 1167   3.408   4.703   6.126
  409TIP3    H1 1168   3.399   4.662   6.212
  409TIP3    H2 1169   3.351   4.651   6.069
  410TIP3   OH2 1170   2.029   6.632   6.649
  410TIP3    H1 1171   2.103   6.610   6.593
  410TIP3    H2 1172   1.961   6.569   6.625
  411TIP3   OH2 1173   7.359   7.555   2.098
  411TIP3    H1 1174   7.308   7.629   2.065
  411TIP3    H2 1175   7.354   7.489   2.029
  412TIP3   OH2 1176   3.483   3.773   5.729
  412TIP3    H1 1177   3.458   3.842   5.790
  412TIP3    H2 1178   3.455   3.805   5.643
  413TIP3   OH2 1179   6.687   1.462   3.235
  413TIP3    H1 1180   6.724   1.426   3.154
  413TIP3    H2 1181   6.748   1.433   3.304
  414TIP3   OH2 1182   5.685   0.835   3.329
  414TIP3    H1 1183   5.709   0.901   3.395
  414TIP3    H2 1184   5.721   0.869   3.247
  415TIP3   OH2 1185   5.261   4.614   6.695
  415TIP3    H1 1186   5.284   4.537   6.748
  415TIP3    H2 1187   5.178   4.644   6.732
  416TIP3   OH2 1188   1.782   3.802   4.783
  416TIP3    H1 1189   1.825   3.878   4.822
  416TIP3    H2 1190   1.854   3.746   4.754
  417TIP3   OH2 1191   2.111   2.981   5.861
  417TIP3    H1 1192   2.113   2.886   5.854
  417TIP3    H2 1193   2.138   3.000   5.951
  418TIP3   OH2 1194   3.635   2.207   0.135
  418TIP3    H1 1195   3.675   2.137   0.187
  418TIP3    H2 1196   3.543   2.182   0.127
  419TIP3   OH2 1197   6.342   1.938   4.241
  419TIP3    H1 1198   6.262   1.986   4.262
  419TIP3    H2 1199   6.339   1.861   4.297
  420TIP3   OH2 1200   0.666   6.958   1.703
  420TIP3    H1 1201   0.712   6.887   1.658
  420TIP3    H2 1202   0.638   7.016   1.633
  421TIP3   OH2 1203   6.076   7.386   1.180
  421TIP3    H1 1204   6.033   7.354   1.100
  421TIP3    H2 1205   6.114   7.470   1.153
  422TIP3   OH2 1206   8.350   6.173   1.735
  422TIP3    H1 1207   8.414   6.237   1.766
  422TIP3    H2 1208   8.404   6.102   1.699
  423TIP3   OH2 1209   2.224   5.112   5.601
  423TIP3    H1 1210   2.182   5.106   5.687
  423TIP3    H2 1211   2.222   5.206   5.580
  424TIP3   OH2 1212   1.936   7.950   0.701
  424TIP3    H1 1213   1.891   7.901   0.633
  424TIP3    H2 1214   1.921   7.900   0.781
  425TIP3   OH2 1215   8.030   4.501   6.366
  425TIP3    H1 1216   8.080   4.516   6.286
  425TIP3    H2 1217   7.957   4.445   6.339
  426TIP3   OH2 1218   4.993   0.828   0.858
  426TIP3    H1 1219   5.051   0.887   0.905
  426TIP3    H2 1220   5.025   0.829   0.768
  427TIP3   OH2 1221   1.888   5.903   5.962
  427TIP3    H1 1222   1.904   5.815   5.995
  427TIP3    H2 1223   1.811   5.933   6.009
  428TIP3   OH2 1224   0.300   3.347   0.753
  428TIP3    H1 1225   0.288   3.268   0.805
  428TIP3    H2 1226   0.257   3.416   0.803
  429TIP3   OH2 1227   0.634   4.305   5.961
  429TIP3    H1 1228   0.722   4.275   5.938
  429TIP3    H2 1229   0.612   4.257   6.041
  430TIP3   OH2 1230   4.347   7.885   0.476
  430TIP3    H1 1231   4.359   7.820   0.407
  430TIP3    H2 1232   4.429   7.935   0.477
  431TIP3   OH2 1233   6.350   6.957   1.672
  431TIP3    H1 1234   6.406   6.954   1.750
  431TIP3    H2 1235   6.338   7.050   1.654
  432TIP3   OH2 1236   0.245   2.503   3.426
  432TIP3    H1 1237   0.296   2.575   3.388
  432TIP3    H2 1238   0.190   2.545   3.492
  433TIP3   OH2 1239   5.303   7.331   6.430
  433TIP3    H1 1240   5.279   7.308   6.340
  433TIP3    H2 1241   5.360   7.259   6.459
  434TIP3   OH2 1242   2.691   5.420   1.910
  434TIP3    H1 1243   2.758   5.397   1.974
  434TIP3    H2 1244   2.646   5.496   1.947
  435TIP3   OH2 1245   5.061   6.440   3.932
  435TIP3    H1 1246   5.053   6.514   3.872
  435TIP3    H2 1247   5.082   6.480   4.017
  436TIP3   OH2 1248   7.598   0.260   1.657
  436TIP3    H1 1249   7.555   0.314   1.723
  436TIP3    H2 1250   7.628   0.322   1.591
  437TIP3   OH2 1251   2.699   2.213   2.501
  437TIP3    H1 1252   2.792   2.237   2.497
  437TIP3    H2 1253   2.653   2.292   2.475
  438TIP3   OH2 1254   3.162   3.946   0.891
  438TIP3    H1 1255   3.137   3.853   0.898
  438TIP3    H2 1256   3.089   3.987   0.845
  439TIP3   OH2 1257   4.840   0.581   1.280
  439TIP3    H1 1258   4.892   0.590   1.359
  439TIP3    H2 1259   4.880   0.640   1.216
  440TIP3   OH2 1260   0.437   7.810   2.616
  440TIP3    H1 1261   0.374   7.878   2.639
  440TIP3    H2 1262   0.416   7.787   2.526
  441TIP3   OH2 1263   3.895   6.443   3.948
  441TIP3    H1 1264   3.927   6.500   3.878
  441TIP3    H2 1265   3.970   6.432   4.007
  442TIP3   OH2 1266   3.903   3.787   3.604
  442TIP3    H1 1267   3.861   3.817   3.686
  442TIP3    H2 1268   3.987   3.833   3.603
  443TIP3   OH2 1269   2.673   7.735   5.997
  443TIP3    H1 1270   2.705   7.672   6.061
  443TIP3    H2 1271   2.609   7.687   5.945
  444TIP3   OH2 1272   6.390   1.167   4.302
  444TIP3    H1 1273   6.421   1.090   4.254
  444TIP3    H2 1274   6.344   1.131   4.378
  445TIP3   OH2 1275   3.001   3.079   2.675
  445TIP3    H1 1276   2.997   3.084   2.580
  445TIP3    H2 1277   3.094   3.082   2.696
  446TIP3   OH2 1278   5.313   0.892   2.653
  446TIP3    H1 1279   5.372   0.902   2.578
  446TIP3    H2 1280   5.265   0.975   2.656
  447TIP3   OH2 1281   4.136   3.515   4.060
  447TIP3    H1 1282   4.188   3.581   4.106
  447TIP3    H2 1283   4.198   3.444   4.042
  448TIP3   OH2 1284   3.251   3.678   1.871
  448TIP3    H1 1285   3.171   3.719   1.904
  448TIP3    H2 1286   3.223   3.593   1.839
  449TIP3   OH2 1287   5.143   0.764   1.253
  449TIP3    H1 1288   5.115   0.728   1.337
  449TIP3    H2 1289   5.232   0.729   1.241
  450TIP3   OH2 1290   1.817   0.949   4.018
  450TIP3    H1 1291   1.771   0.871   4.049
  450TIP3    H2 1292   1.752   1.019   4.024
  451TIP3   OH2 1293   2.731   3.827   4.346
  451TIP3    H1 1294   2.682   3.747   4.324
  451TIP3    H2 1295   2.796   3.834   4.276
  452TIP3   OH2 1296   0.609   5.731   2.546
  452TIP3    H1 1297   0.597   5.688   2.462
  452TIP3    H2 1298   0.570   5.818   2.535
  453TIP3   OH2 1299   0.605   6.407   6.018
  453TIP3    H1 1300   0.525   6.440   6.058
  453TIP3    H2 1301   0.607   6.314   6.041
  454TIP3   OH2 1302   8.358   0.916   4.218
  454TIP3    H1 1303   8.454   0.913   4.212
  454TIP3    H2 1304   8.328   0.856   4.151
  455TIP3   OH2 1305   7.496   0.677   3.742
  455TIP3    H1 1306   7.431   0.741   3.771
  455TIP3    H2 1307   7.520   0.706   3.654
  456TIP3   OH2 1308   2.443   6.833   0.523
  456TIP3    H1 1309   2.490   6.916   0.527
  456TIP3    H2 1310   2.353   6.854   0.549
  457TIP3   OH2 1311   8.319   3.003   4.484
  457TIP3    H1 1312   8.341   2.929   4.542
  457TIP3    H2 1313   8.342   2.972   4.397
  458TIP3   OH2 1314   7.914   0.811   1.429
  458TIP3    H1 1315   7.838   0.790   1.484
  458TIP3    H2 1316   7.899   0.900   1.399
  459TIP3   OH2 1317   7.432   4.748   2.638
  459TIP3    H1 1318   7.465   4.748   2.728
  459TIP3    H2 1319   7.484   4.816   2.594
  460TIP3   OH2 1320   0.012   0.815   3.914
  460TIP3    H1 1321  -0.002   0.720   3.915
  460TIP3    H2 1322   0.101   0.827   3.947
  461TIP3   OH2 1323   1.373   7.761   2.447
  461TIP3    H1 1324   1.370   7.831   2.513
  461TIP3    H2 1325   1.393   7.682   2.497
  462TIP3   OH2 1326   7.122   6.760   0.980
  462TIP3    H1 1327   7.188   6.777   0.913
  462TIP3    H2 1328   7.156   6.685   1.029
  463TIP3   OH2 1329   1.767   2.070   1.872
  463TIP3    H1 1330   1.849   2.101   1.833
  463TIP3    H2 1331   1.789   1.985   1.911
  464TIP3   OH2 1332   1.228   1.960   5.673
  464TIP3    H1 1333   1.270   1.941   5.757
  464TIP3    H2 1334   1.141   1.991   5.696
  465TIP3   OH2 1335   6.860   7.595   1.271
  465TIP3    H1 1336   6.876   7.503   1.293
  465TIP3    H2 1337   6.945   7.638   1.283
  466TIP3   OH2 1338   6.575   1.619   4.244
  466TIP3    H1 1339   6.485   1.621   4.278
  466TIP3    H2 1340   6.573   1.678   4.169
  467TIP3   OH2 1341   3.680   4.058   6.427
  467TIP3    H1 1342   3.689   3.963   6.432
  467TIP3    H2 1343   3.591   4.075   6.455
  468TIP3   OH2 1344   7.543   4.543   1.125
  468TIP3    H1 1345   7.491   4.617   1.156
  468TIP3    H2 1346   7.483   4.469   1.121
  469TIP3   OH2 1347   4.328   3.017   3.674
  469TIP3    H1 1348   4.420   3.033   3.655
  469TIP3    H2 1349   4.299   3.094   3.723
  470TIP3   OH2 1350   7.324   5.361   0.183
  470TIP3    H1 1351   7.268   5.294   0.144
  470TIP3    H2 1352   7.269   5.402   0.250
  471TIP3   OH2 1353   0.809   4.122   1.323
  471TIP3    H1 1354   0.832   4.131   1.230
  471TIP3    H2 1355   0.872   4.057   1.356
  472TIP3   OH2 1356   2.588   0.560   2.683
  472TIP3    H1 1357   2.507   0.606   2.663
  472TIP3    H2 1358   2.606   0.581   2.775
  473TIP3   OH2 1359   5.567   6.416   1.149
  473TIP3    H1 1360   5.501   6.423   1.219
  473TIP3    H2 1361   5.651   6.420   1.195
  474TIP3   OH2 1362   6.998   3.832   5.837
  474TIP3    H1 1363   6.978   3.924   5.850
  474TIP3    H2 1364   7.093   3.828   5.833
  475TIP3   OH2 1365   5.365   2.053   5.174
  475TIP3    H1 1366   5.324   2.043   5.088
  475TIP3    H2 1367   5.299   2.095   5.228
  476TIP3   OH2 1368   5.519   3.677   3.932
  476TIP3    H1 1369   5.480   3.591   3.917
  476TIP3    H2 1370   5.487   3.731   3.859
  477TIP3   OH2 1371   7.726   7.229   5.002
  477TIP3    H1 1372   7.649   7.186   4.963
  477TIP3    H2 1373   7.711   7.323   4.985
  478TIP3   OH2 1374   8.023   1.683   3.975
  478TIP3    H1 1375   8.076   1.759   3.997
  478TIP3    H2 1376   8.032   1.673   3.881
  479TIP3   OH2 1377   5.881   0.448   1.052
  479TIP3    H1 1378   5.950   0.452   0.986
  479TIP3    H2 1379   5.804   0.484   1.009
  480TIP3   OH2 1380   0.058   5.194   3.599
  480TIP3    H1 1381   0.081   5.282   3.569
  480TIP3    H2 1382  -0.035   5.200   3.622
  481TIP3   OH2 1383   1.324   7.151   5.446
  481TIP3    H1 1384   1.416   7.164   5.421
  481TIP3    H2 1385   1.324   7.158   5.541
  482TIP3   OH2 1386   2.297   2.008   0.404
  482TIP3    H1 1387   2.338   2.055   0.476
  482TIP3    H2 1388   2.350   2.029   0.328
  483TIP3   OH2 1389   3.954   6.696   6.279
  483TIP3    H1 1390   3.982   6.712   6.370
  483TIP3    H2 1391   4.034   6.708   6.228
  484TIP3   OH2 1392   2.407   5.888   3.990
  484TIP3    H1 1393   2.330   5.942   4.010
  484TIP3    H2 1394   2.479   5.933   4.033
  485TIP3   OH2 1395   6.923   7.096   1.530
  485TIP3    H1 1396   6.869   7.038   1.477
  485TIP3    H2 1397   6.931   7.052   1.614
  486TIP3   OH2 1398   2.313   6.210   1.369
  486TIP3    H1 1399   2.284   6.248   1.286
  486TIP3    H2 1400   2.407   6.196   1.357
  487TIP3   OH2 1401   6.955   7.716   0.840
  487TIP3    H1 1402   6.871   7.727   0.796
  487TIP3    H2 1403   6.933   7.713   0.933
  488TIP3   OH2 1404   6.779   6.902   2.363
  488TIP3    H1 1405   6.832   6.956   2.422
  488TIP3    H2 1406   6.843   6.863   2.304
  489TIP3   OH2 1407   4.869   2.004   1.122
  489TIP3    H1 1408   4.789   2.011   1.175
  489TIP3    H2 1409   4.931   1.957   1.179
  490TIP3   OH2 1410   3.546   5.559   0.155
  490TIP3    H1 1411   3.616   5.597   0.102
  490TIP3    H2 1412   3.500   5.499   0.097
  491TIP3   OH2 1413   1.315   5.370   5.845
  491TIP3    H1 1414   1.248   5.366   5.913
  491TIP3    H2 1415   1.376   5.437   5.875
  492TIP3   OH2 1416   4.176   2.656   1.613
  492TIP3    H1 1417   4.117   2.589   1.645
  492TIP3    H2 1418   4.164   2.730   1.673
  493TIP3   OH2 1419   2.169   6.342   0.770
  493TIP3    H1 1420   2.193   6.280   0.838
  493TIP3    H2 1421   2.073   6.340   0.769
  494TIP3   OH2 1422   1.255   1.513   5.589
  494TIP3    H1 1423   1.201   1.474   5.657
  494TIP3    H2 1424   1.327   1.556   5.637
  495TIP3   OH2 1425   7.381   0.218   4.264
  495TIP3    H1 1426   7.290   0.196   4.288
  495TIP3    H2 1427   7.392   0.180   4.177
  496TIP3   OH2 1428   3.003   1.074   3.939
  496TIP3    H1 1429   3.043   0.987   3.939
  496TIP3    H2 1430   3.050   1.121   3.870
  497TIP3   OH2 1431   1.577   7.406   5.826
  497TIP3    H1 1432   1.532   7.357   5.895
  497TIP3    H2 1433   1.570   7.498   5.854
  498TIP3   OH2 1434   2.423   0.645   2.209
  498TIP3    H1 1435   2.387   0.563   2.175
  498TIP3    H2 1436   2.508   0.622   2.244
  499TIP3   OH2 1437   3.231   3.918   1.716
  499TIP3    H1 1438   3.246   3.838   1.767
  499TIP3    H2 1439   3.298   3.915   1.647
  500TIP3   OH2 1440   7.948   1.836   5.403
  500TIP3    H1 1441   7.855   1.831   5.428
  500TIP3    H2 1442   7.992   1.777   5.464
  501TIP3   OH2 1443   2.387   4.939   4.202
  501TIP3    H1 1444   2.448   4.994   4.250
  501TIP3    H2 1445   2.312   4.929   4.261
  502TIP3   OH2 1446   5.236   3.348   1.419
  502TIP3    H1 1447   5.204   3.431   1.382
  502TIP3    H2 1448   5.166   3.286   1.400
  503TIP3   OH2 1449   3.287   5.761   4.542
  503TIP3    H1 1450   3.245   5.726   4.621
  503TIP3    H2 1451   3.280   5.691   4.478
  504TIP3   OH2 1452   3.523   0.553   3.061
  504TIP3    H1 1453   3.489   0.466   3.043
  504TIP3    H2 1454   3.587   0.540   3.131
  505TIP3   OH2 1455   4.064   7.630   3.910
  505TIP3    H1 1456   4.140   7.662   3.959
  505TIP3    H2 1457   4.055   7.539   3.937
  506TIP3   OH2 1458   3.203   0.144   4.298
  506TIP3    H1 1459   3.122   0.184   4.266
  506TIP3    H2 1460   3.205   0.058   4.257
  507TIP3   OH2 1461   3.295   3.627   6.090
  507TIP3    H1 1462   3.261   3.541   6.064
  507TIP3    H2 1463   3.219   3.685   6.082
  508TIP3   OH2 1464   8.301   7.731   5.703
  508TIP3    H1 1465   8.286   7.756   5.794
  508TIP3    H2 1466   8.230   7.670   5.683
  509TIP3   OH2 1467   3.145   4.138   1.847
  509TIP3    H1 1468   3.153   4.052   1.807
  509TIP3    H2 1469   3.095   4.122   1.928
  510TIP3   OH2 1470   4.035   0.727   2.191
  510TIP3    H1 1471   4.036   0.686   2.104
  510TIP3    H2 1472   4.126   0.755   2.204
  511TIP3   OH2 1473   4.601   7.284   0.642
  511TIP3    H1 1474   4.643   7.265   0.726
  511TIP3    H2 1475   4.666   7.333   0.592
  512TIP3   OH2 1476   3.774   1.694   1.825
  512TIP3    H1 1477   3.760   1.749   1.748
  512TIP3    H2 1478   3.739   1.608   1.801
  513TIP3   OH2 1479   6.445   6.511   0.920
  513TIP3    H1 1480   6.368   6.493   0.867
  513TIP3    H2 1481   6.413   6.507   1.010
  514TIP3   OH2 1482   0.912   3.118   2.002
  514TIP3    H1 1483   0.856   3.184   1.961
  514TIP3    H2 1484   0.855   3.073   2.064
  515TIP3   OH2 1485   1.767   2.947   0.430
  515TIP3    H1 1486   1.735   2.921   0.343
  515TIP3    H2 1487   1.853   2.906   0.437
  516TIP3   OH2 1488   1.346   0.131   4.007
  516TIP3    H1 1489   1.300   0.048   3.994
  516TIP3    H2 1490   1.279   0.198   3.997
  517TIP3   OH2 1491   7.975   4.944   6.667
  517TIP3    H1 1492   7.892   4.953   6.714
  517TIP3    H2 1493   7.957   4.880   6.598
  518TIP3   OH2 1494   2.146   5.961   2.309
  518TIP3    H1 1495   2.199   6.035   2.339
  518TIP3    H2 1496   2.066   6.000   2.276
  519TIP3   OH2 1497   4.810   3.325   3.876
  519TIP3    H1 1498   4.779   3.381   3.947
  519TIP3    H2 1499   4.823   3.239   3.917
  520TIP3   OH2 1500   4.402   6.364   1.159
  520TIP3    H1 1501   4.367   6.290   1.110
  520TIP3    H2 1502   4.496   6.348   1.162
  521TIP3   OH2 1503   5.103   5.307   6.639
  521TIP3    H1 1504   5.100   5.245   6.566
  521TIP3    H2 1505   5.172   5.368   6.616
  522TIP3   OH2 1506   0.430   3.766   1.570
  522TIP3    H1 1507   0.384   3.790   1.490
  522TIP3    H2 1508   0.497   3.833   1.581
  523TIP3   OH2 1509   7.338   5.536   1.487
  523TIP3    H1 1510   7.411   5.597   1.476
  523TIP3    H2 1511   7.322   5.533   1.581
  524TIP3   OH2 1512   5.504   1.154   3.061
  524TIP3    H1 1513   5.582   1.111   3.025
  524TIP3    H2 1514   5.498   1.121   3.150
  525TIP3   OH2 1515   1.618   7.390   0.660
  525TIP3    H1 1516   1.635   7.334   0.585
  525TIP3    H2 1517   1.703   7.399   0.703
  526TIP3   OH2 1518   7.767   6.001   3.172
  526TIP3    H1 1519   7.785   6.093   3.152
  526TIP3    H2 1520   7.672   5.998   3.184
  527TIP3   OH2 1521   0.561   2.739   2.045
  527TIP3    H1 1522   0.624   2.682   2.002
  527TIP3    H2 1523   0.613   2.813   2.076
  528TIP3   OH2 1524   7.263   5.244   1.835
  528TIP3    H1 1525   7.188   5.261   1.893
  528TIP3    H2 1526   7.231   5.269   1.748
  529TIP3   OH2 1527   0.824   1.293   2.599
  529TIP3    H1 1528   0.771   1.247   2.535
  529TIP3    H2 1529   0.843   1.227   2.666
  530TIP3   OH2 1530   0.970   2.836   1.795
  530TIP3    H1 1531   0.998   2.926   1.774
  530TIP3    H2 1532   0.874   2.840   1.790
  531TIP3   OH2 1533   6.307   2.779   0.814
  531TIP3    H1 1534   6.312   2.690   0.780
  531TIP3    H2 1535   6.231   2.818   0.769
  532TIP3   OH2 1536   7.566   6.145   4.031
  532TIP3    H1 1537   7.532   6.069   3.983
  532TIP3    H2 1538   7.639   6.175   3.978
  533TIP3   OH2 1539   6.436   0.967   5.248
  533TIP3    H1 1540   6.394   0.964   5.163
  533TIP3    H2 1541   6.392   1.038   5.295
  534TIP3   OH2 1542   7.870   3.078   2.342
  534TIP3    H1 1543   7.794   3.096   2.398
  534TIP3    H2 1544   7.884   3.159   2.294
  535TIP3   OH2 1545   4.088   2.134   4.542
  535TIP3    H1 1546   4.181   2.157   4.541
  535TIP3    H2 1547   4.045   2.211   4.504
  536TIP3   OH2 1548   5.562   2.200   5.812
  536TIP3    H1 1549   5.619   2.275   5.823
  536TIP3    H2 1550   5.539   2.200   5.719
  537TIP3   OH2 1551   4.853   7.537   4.698
  537TIP3    H1 1552   4.900   7.455   4.680
  537TIP3    H2 1553   4.842   7.577   4.612
  538TIP3   OH2 1554   7.512   0.383   1.051
  538TIP3    H1 1555   7.541   0.308   1.103
  538TIP3    H2 1556   7.564   0.456   1.084
  539TIP3   OH2 1557   7.617   3.370   1.520
  539TIP3    H1 1558   7.618   3.402   1.430
  539TIP3    H2 1559   7.561   3.431   1.568
  540TIP3   OH2 1560   7.603   5.873   2.777
  540TIP3    H1 1561   7.514   5.846   2.802
  540TIP3    H2 1562   7.590   5.931   2.702
  541TIP3   OH2 1563   5.601   4.732   4.734
  541TIP3    H1 1564   5.526   4.673   4.724
  541TIP3    H2 1565   5.564   4.819   4.722
  542TIP3   OH2 1566   0.278   6.099   1.219
  542TIP3    H1 1567   0.351   6.036   1.216
  542TIP3    H2 1568   0.243   6.089   1.308
  543TIP3   OH2 1569   6.229   6.285   3.668
  543TIP3    H1 1570   6.155   6.345   3.682
  543TIP3    H2 1571   6.305   6.332   3.702
  544TIP3   OH2 1572   8.187   4.100   6.173
  544TIP3    H1 1573   8.123   4.036   6.144
  544TIP3    H2 1574   8.264   4.086   6.118
  545TIP3   OH2 1575   3.058   6.828   0.785
  545TIP3    H1 1576   2.994   6.849   0.852
  545TIP3    H2 1577   3.007   6.792   0.713
  546TIP3   OH2 1578   1.988   7.050   6.036
  546TIP3    H1 1579   1.994   7.138   6.000
  546TIP3    H2 1580   1.920   7.007   5.983
  547TIP3   OH2 1581   2.128   4.082   2.564
  547TIP3    H1 1582   2.182   4.020   2.515
  547TIP3    H2 1583   2.146   4.167   2.522
  548TIP3   OH2 1584   5.405   1.108   6.086
  548TIP3    H1 1585   5.427   1.063   6.005
  548TIP3    H2 1586   5.480   1.093   6.143
  549TIP3   OH2 1587   0.295   3.417   5.378
  549TIP3    H1 1588   0.286   3.463   5.461
  549TIP3    H2 1589   0.340   3.336   5.400
  550TIP3   OH2 1590   1.819   7.537   3.390
  550TIP3    H1 1591   1.755   7.508   3.325
  550TIP3    H2 1592   1.845   7.624   3.361
  551TIP3   OH2 1593   1.185   4.064   5.159
  551TIP3    H1 1594   1.196   4.056   5.254
  551TIP3    H2 1595   1.090   4.072   5.147
  552TIP3   OH2 1596   0.128   4.111   4.990
  552TIP3    H1 1597   0.129   4.022   4.955
  552TIP3    H2 1598   0.090   4.103   5.077
  553TIP3   OH2 1599   3.055   6.416   1.682
  553TIP3    H1 1600   3.009   6.404   1.598
  553TIP3    H2 1601   3.054   6.329   1.721
  554TIP3   OH2 1602   1.642   4.306   4.752
  554TIP3    H1 1603   1.595   4.241   4.804
  554TIP3    H2 1604   1.580   4.332   4.684
  555TIP3   OH2 1605   7.284   0.665   4.898
  555TIP3    H1 1606   7.210   0.675   4.958
  555TIP3    H2 1607   7.244   0.649   4.813
  556TIP3   OH2 1608   6.735   0.882   2.224
  556TIP3    H1 1609   6.752   0.951   2.288
  556TIP3    H2 1610   6.723   0.929   2.141
  557TIP3   OH2 1611   2.441   0.195   4.037
  557TIP3    H1 1612   2.377   0.260   4.065
  557TIP3    H2 1613   2.511   0.245   3.995
  558TIP3   OH2 1614   6.041   7.711   1.996
  558TIP3    H1 1615   6.071   7.748   1.913
  558TIP3    H2 1616   6.061   7.779   2.061
  559TIP3   OH2 1617   3.086   1.948   5.933
  559TIP3    H1 1618   3.150   1.980   5.997
  559TIP3    H2 1619   3.139   1.903   5.867
  560TIP3   OH2 1620   2.003   7.345   1.843
  560TIP3    H1 1621   2.048   7.372   1.763
  560TIP3    H2 1622   2.024   7.413   1.907
  561TIP3   OH2 1623   1.381   0.776   3.964
  561TIP3    H1 1624   1.326   0.844   3.925
  561TIP3    H2 1625   1.333   0.749   4.042
  562TIP3   OH2 1626   4.522   1.542   5.630
  562TIP3    H1 1627   4.466   1.538   5.708
  562TIP3    H2 1628   4.611   1.534   5.665
  563TIP3   OH2 1629   5.160   7.514   6.026
  563TIP3    H1 1630   5.123   7.537   5.941
  563TIP3    H2 1631   5.151   7.594   6.078
  564TIP3   OH2 1632   5.751   0.975   3.902
  564TIP3    H1 1633   5.704   0.893   3.883
  564TIP3    H2 1634   5.832   0.968   3.851
  565TIP3   OH2 1635   2.895   6.854   2.448
  565TIP3    H1 1636   2.957   6.818   2.511
  565TIP3    H2 1637   2.823   6.888   2.501
  566TIP3   OH2 1638   7.220   0.893   6.602
  566TIP3    H1 1639   7.280   0.818   6.602
  566TIP3    H2 1640   7.178   0.890   6.517
  567TIP3   OH2 1641   6.974   3.122   0.795
  567TIP3    H1 1642   6.881   3.135   0.812
  567TIP3    H2 1643   7.008   3.082   0.876
  568TIP3   OH2 1644   2.496   0.022   0.816
  568TIP3    H1 1645   2.441   0.090   0.855
  568TIP3    H2 1646   2.583   0.038   0.852
  569TIP3   OH2 1647   7.484   5.353   6.178
  569TIP3    H1 1648   7.389   5.347   6.168
  569TIP3    H2 1649   7.497   5.386   6.267
  570TIP3   OH2 1650   2.851   0.197   3.349
  570TIP3    H1 1651   2.916   0.184   3.280
  570TIP3    H2 1652   2.876   0.136   3.418
  571TIP3   OH2 1653   0.834   2.166   5.683
  571TIP3    H1 1654   0.751   2.152   5.637
  571TIP3    H2 1655   0.810   2.220   5.758
  572TIP3   OH2 1656   3.128   0.242   6.476
  572TIP3    H1 1657   3.167   0.325   6.503
  572TIP3    H2 1658   3.129   0.188   6.554
  573TIP3   OH2 1659   6.653   2.375   2.901
  573TIP3    H1 1660   6.659   2.293   2.949
  573TIP3    H2 1661   6.564   2.376   2.865
  574TIP3   OH2 1662   7.125   7.605   0.004
  574TIP3    H1 1663   7.188   7.564   0.063
  574TIP3    H2 1664   7.114   7.694   0.039
  575TIP3   OH2 1665   5.043   2.358   6.714
  575TIP3    H1 1666   5.138   2.368   6.713
  575TIP3    H2 1667   5.022   2.312   6.633
  576TIP3   OH2 1668   5.725   3.330   4.711
  576TIP3    H1 1669   5.783   3.254   4.705
  576TIP3    H2 1670   5.638   3.295   4.693
  577TIP3   OH2 1671   6.246   4.198   1.392
  577TIP3    H1 1672   6.213   4.112   1.416
  577TIP3    H2 1673   6.218   4.256   1.463
  578TIP3   OH2 1674   1.037   2.941   4.335
  578TIP3    H1 1675   1.128   2.970   4.327
  578TIP3    H2 1676   0.998   2.958   4.250
  579TIP3   OH2 1677   4.681   1.567   6.918
  579TIP3    H1 1678   4.753   1.530   6.867
  579TIP3    H2 1679   4.626   1.492   6.941
  580TIP3   OH2 1680   3.924   2.872   2.879
  580TIP3    H1 1681   3.872   2.803   2.920
  580TIP3    H2 1682   3.925   2.943   2.943
  581TIP3   OH2 1683   5.076   2.496   3.882
  581TIP3    H1 1684   5.014   2.484   3.954
  581TIP3    H2 1685   5.092   2.408   3.849
  582TIP3   OH2 1686   2.399   5.358   3.700
  582TIP3    H1 1687   2.332   5.290   3.698
  582TIP3    H2 1688   2.478   5.315   3.666
  583TIP3   OH2 1689   8.324   4.092   1.306
  583TIP3    H1 1690   8.317   4.003   1.341
  583TIP3    H2 1691   8.235   4.125   1.306
  584TIP3   OH2 1692   5.867   1.710   0.140
  584TIP3    H1 1693   5.808   1.783   0.160
  584TIP3    H2 1694   5.816   1.653   0.082
  585TIP3   OH2 1695   7.015   5.743   3.382
  585TIP3    H1 1696   7.029   5.801   3.457
  585TIP3    H2 1697   7.093   5.687   3.380
  586TIP3   OH2 1698   2.704   4.787   0.026
  586TIP3    H1 1699   2.701   4.878   0.057
  586TIP3    H2 1700   2.777   4.748   0.075
  587TIP3   OH2 1701   1.133   6.220   5.864
  587TIP3    H1 1702   1.083   6.299   5.841
  587TIP3    H2 1703   1.199   6.251   5.925
  588TIP3   OH2 1704   3.197   6.512   5.925
  588TIP3    H1 1705   3.166   6.494   6.014
  588TIP3    H2 1706   3.213   6.425   5.887
  589TIP3   OH2 1707   0.805   0.598   2.053
  589TIP3    H1 1708   0.867   0.658   2.094
  589TIP3    H2 1709   0.797   0.526   2.116
  590TIP3   OH2 1710   7.835   3.066   3.243
  590TIP3    H1 1711   7.908   3.082   3.303
  590TIP3    H2 1712   7.874   3.072   3.156
  591TIP3   OH2 1713   4.400   3.458   4.378
  591TIP3    H1 1714   4.463   3.504   4.323
  591TIP3    H2 1715   4.320   3.512   4.372
  592TIP3   OH2 1716   0.093   5.173   2.631
  592TIP3    H1 1717   0.055   5.176   2.543
  592TIP3    H2 1718   0.033   5.224   2.685
  593TIP3   OH2 1719   1.626   4.649   2.762
  593TIP3    H1 1720   1.563   4.658   2.690
  593TIP3    H2 1721   1.661   4.738   2.773
  594TIP3   OH2 1722   2.161   0.148   6.664
  594TIP3    H1 1723   2.116   0.147   6.580
  594TIP3    H2 1724   2.100   0.106   6.725
  595TIP3   OH2 1725   1.799   5.928   0.431
  595TIP3    H1 1726   1.892   5.931   0.406
  595TIP3    H2 1727   1.766   5.847   0.393
  596TIP3   OH2 1728   0.696   5.106   0.091
  596TIP3    H1 1729   0.760   5.160   0.138
  596TIP3    H2 1730   0.652   5.168   0.033
  597TIP3   OH2 1731   4.024   4.388   0.346
  597TIP3    H1 1732   4.112   4.426   0.342
  597TIP3    H2 1733   4.034   4.308   0.397
  598TIP3   OH2 1734   2.848   0.285   4.150
  598TIP3    H1 1735   2.880   0.204   4.111
  598TIP3    H2 1736   2.818   0.261   4.237
  599TIP3   OH2 1737   5.856   6.155   5.269
  599TIP3    H1 1738   5.909   6.075   5.271
  599TIP3    H2 1739   5.886   6.205   5.345
  600TIP3   OH2 1740   0.297   3.516   1.676
  600TIP3    H1 1741   0.321   3.585   1.614
  600TIP3    H2 1742   0.293   3.561   1.760
  601TIP3   OH2 1743   0.061   5.077   6.512
  601TIP3    H1 1744   0.055   5.029   6.595
  601TIP3    H2 1745  -0.028   5.073   6.477
  602TIP3   OH2 1746   7.125   4.720   5.812
  602TIP3    H1 1747   7.153   4.811   5.805
  602TIP3    H2 1748   7.207   4.671   5.823
  603TIP3   OH2 1749   2.334   3.971   6.692
  603TIP3    H1 1750   2.342   4.058   6.729
  603TIP3    H2 1751   2.388   3.974   6.612
  604TIP3   OH2 1752   8.121   0.075   4.508
  604TIP3    H1 1753   8.041   0.104   4.464
  604TIP3    H2 1754   8.192   0.115   4.458
  605TIP3   OH2 1755   7.122   3.161   4.106
  605TIP3    H1 1756   7.122   3.238   4.163
  605TIP3    H2 1757   7.126   3.197   4.017
  606TIP3   OH2 1758   0.396   6.651   6.792
  606TIP3    H1 1759   0.460   6.718   6.767
  606TIP3    H2 1760   0.317   6.700   6.815
  607TIP3   OH2 1761   6.390   1.426   5.545
  607TIP3    H1 1762   6.404   1.397   5.635
  607TIP3    H2 1763   6.453   1.498   5.534
  608TIP3   OH2 1764   8.303   2.790   6.450
  608TIP3    H1 1765   8.210   2.812   6.453
  608TIP3    H2 1766   8.326   2.798   6.357
  609TIP3   OH2 1767   4.054   0.455   4.766
  609TIP3    H1 1768   3.982   0.438   4.827
  609TIP3    H2 1769   4.106   0.523   4.808
  610TIP3   OH2 1770   5.666   3.715   5.299
  610TIP3    H1 1771   5.669   3.757   5.213
  610TIP3    H2 1772   5.752   3.673   5.307
  611TIP3   OH2 1773   2.383   6.106   3.677
  611TIP3    H1 1774   2.341   6.173   3.730
  611TIP3    H2 1775   2.383   6.142   3.588
  612TIP3   OH2 1776   4.405   1.592   6.839
  612TIP3    H1 1777   4.489   1.554   6.861
  612TIP3    H2 1778   4.378   1.546   6.760
  613TIP3   OH2 1779   7.498   4.345   5.206
  613TIP3    H1 1780   7.505   4.439   5.191
  613TIP3    H2 1781   7.411   4.333   5.245
  614TIP3   OH2 1782   8.283   3.022   0.342
  614TIP3    H1 1783   8.371   3.060   0.343
  614TIP3    H2 1784   8.254   3.028   0.433
  615TIP3   OH2 1785   6.391   7.581   3.164
  615TIP3    H1 1786   6.455   7.621   3.222
  615TIP3    H2 1787   6.382   7.643   3.091
  616TIP3   OH2 1788   4.176   1.908   3.572
  616TIP3    H1 1789   4.242   1.848   3.606
  616TIP3    H2 1790   4.148   1.868   3.490
  617TIP3   OH2 1791   0.414   5.629   3.327
  617TIP3    H1 1792   0.328   5.614   3.289
  617TIP3    H2 1793   0.401   5.622   3.422
  618TIP3   OH2 1794   1.759   5.622   4.466
  618TIP3    H1 1795   1.837   5.591   4.512
  618TIP3    H2 1796   1.792   5.686   4.403
  619TIP3   OH2 1797   1.244   4.855   6.490
  619TIP3    H1 1798   1.264   4.763   6.473
  619TIP3    H2 1799   1.195   4.854   6.572
  620TIP3   OH2 1800   6.163   5.257   4.223
  620TIP3    H1 1801   6.217   5.293   4.153
  620TIP3    H2 1802   6.164   5.325   4.291
  621TIP3   OH2 1803   4.270   5.098   3.014
  621TIP3    H1 1804   4.176   5.100   3.000
  621TIP3    H2 1805   4.289   5.177   3.066
  622TIP3   OH2 1806   5.760   4.808   4.264
  622TIP3    H1 1807   5.793   4.797   4.353
  622TIP3    H2 1808   5.722   4.896   4.263
  623TIP3   OH2 1809   4.546   3.722   4.205
  623TIP3    H1 1810   4.604   3.777   4.258
  623TIP3    H2 1811   4.601   3.693   4.132
  624TIP3   OH2 1812   5.320   3.851   4.101
  624TIP3    H1 1813   5.358   3.865   4.188
  624TIP3    H2 1814   5.384   3.796   4.056
  625TIP3   OH2 1815   1.428   6.777   6.171
  625TIP3    H1 1816   1.503   6.823   6.135
  625TIP3    H2 1817   1.360   6.786   6.104
  626TIP3   OH2 1818   6.593   5.916   4.590
  626TIP3    H1 1819   6.634   5.901   4.675
  626TIP3    H2 1820   6.651   5.872   4.528
  627TIP3   OH2 1821   8.142   4.523   5.017
  627TIP3    H1 1822   8.227   4.481   5.026
  627TIP3    H2 1823   8.081   4.465   5.063
  628TIP3   OH2 1824   2.555   1.479   1.439
  628TIP3    H1 1825   2.506   1.544   1.389
  628TIP3    H2 1826   2.583   1.415   1.373
  629TIP3   OH2 1827   6.334   2.304   0.537
  629TIP3    H1 1828   6.347   2.280   0.629
  629TIP3    H2 1829   6.255   2.359   0.538
  630TIP3   OH2 1830   4.709   2.297   1.514
  630TIP3    H1 1831   4.669   2.383   1.505
  630TIP3    H2 1832   4.757   2.285   1.432
  631TIP3   OH2 1833   1.208   7.453   0.587
  631TIP3    H1 1834   1.140   7.497   0.536
  631TIP3    H2 1835   1.258   7.402   0.523
  632TIP3   OH2 1836   2.475   1.987   4.259
  632TIP3    H1 1837   2.517   1.901   4.255
  632TIP3    H2 1838   2.441   2.002   4.170
  633TIP3   OH2 1839   3.820   5.560   1.569
  633TIP3    H1 1840   3.735   5.539   1.607
  633TIP3    H2 1841   3.826   5.655   1.575
  634TIP3   OH2 1842   7.008   0.816   2.780
  634TIP3    H1 1843   6.955   0.745   2.815
  634TIP3    H2 1844   6.948   0.866   2.726
  635TIP3   OH2 1845   8.033   1.084   1.961
  635TIP3    H1 1846   8.121   1.046   1.971
  635TIP3    H2 1847   7.998   1.044   1.882
  636TIP3   OH2 1848   5.501   3.950   3.068
  636TIP3    H1 1849   5.555   3.952   2.988
  636TIP3    H2 1850   5.526   3.869   3.112
  637TIP3   OH2 1851   0.882   7.348   5.252
  637TIP3    H1 1852   0.941   7.297   5.197
  637TIP3    H2 1853   0.877   7.433   5.210
  638TIP3   OH2 1854   1.798   7.707   1.333
  638TIP3    H1 1855   1.842   7.628   1.365
  638TIP3    H2 1856   1.817   7.773   1.400
  639TIP3   OH2 1857   6.388   1.492   6.290
  639TIP3    H1 1858   6.360   1.551   6.221
  639TIP3    H2 1859   6.327   1.508   6.362
  640TIP3   OH2 1860   0.278   3.180   3.916
  640TIP3    H1 1861   0.370   3.169   3.893
  640TIP3    H2 1862   0.233   3.197   3.833
  641TIP3   OH2 1863   3.918   1.630   6.151
  641TIP3    H1 1864   3.830   1.666   6.161
  641TIP3    H2 1865   3.953   1.628   6.240
  642TIP3   OH2 1866   5.643   7.113   3.126
  642TIP3    H1 1867   5.631   7.028   3.084
  642TIP3    H2 1868   5.639   7.094   3.220
  643TIP3   OH2 1869   6.406   4.393   4.924
  643TIP3    H1 1870   6.402   4.482   4.960
  643TIP3    H2 1871   6.397   4.336   5.000
  644TIP3   OH2 1872   1.243   0.738   5.423
  644TIP3    H1 1873   1.285   0.822   5.404
  644TIP3    H2 1874   1.194   0.753   5.504
  645TIP3   OH2 1875   4.091   5.204   4.822
  645TIP3    H1 1876   4.095   5.145   4.747
  645TIP3    H2 1877   4.035   5.276   4.794
  646TIP3   OH2 1878   8.081   4.868   3.045
  646TIP3    H1 1879   8.077   4.776   3.072
  646TIP3    H2 1880   8.172   4.893   3.061
  647TIP3   OH2 1881   0.538   5.279   4.304
  647TIP3    H1 1882   0.462   5.236   4.342
  647TIP3    H2 1883   0.607   5.212   4.305
  648TIP3   OH2 1884   2.004   1.765   6.787
  648TIP3    H1 1885   1.955   1.706   6.728
  648TIP3    H2 1886   1.946   1.777   6.862
  649TIP3   OH2 1887   4.343   6.775   5.473
  649TIP3    H1 1888   4.364   6.864   5.501
  649TIP3    H2 1889   4.428   6.734   5.458
  650TIP3   OH2 1890   3.145   3.044   1.197
  650TIP3    H1 1891   3.194   2.976   1.244
  650TIP3    H2 1892   3.095   3.089   1.265
  651TIP3   OH2 1893   4.667   0.917   6.024
  651TIP3    H1 1894   4.670   1.011   6.039
  651TIP3    H2 1895   4.594   0.906   5.963
  652TIP3   OH2 1896   3.088   2.781   4.564
  652TIP3    H1 1897   3.079   2.833   4.643
  652TIP3    H2 1898   3.077   2.690   4.593
  653TIP3   OH2 1899   1.112   1.736   3.599
  653TIP3    H1 1900   1.042   1.671   3.606
  653TIP3    H2 1901   1.107   1.785   3.681
  654TIP3   OH2 1902   5.575   0.697   2.758
  654TIP3    H1 1903   5.481   0.691   2.776
  654TIP3    H2 1904   5.611   0.744   2.834
  655TIP3   OH2 1905   7.806   3.875   2.924
  655TIP3    H1 1906   7.775   3.808   2.864
  655TIP3    H2 1907   7.729   3.900   2.974
  656TIP3   OH2 1908   3.165   7.054   1.087
  656TIP3    H1 1909   3.145   7.050   0.994
  656TIP3    H2 1910   3.120   6.979   1.125
  657TIP3   OH2 1911   2.489   3.010   1.588
  657TIP3    H1 1912   2.454   3.094   1.617
  657TIP3    H2 1913   2.584   3.021   1.589
  658TIP3   OH2 1914   5.152   0.729   4.017
  658TIP3    H1 1915   5.063   0.693   4.016
  658TIP3    H2 1916   5.152   0.794   4.088
  659TIP3   OH2 1917   0.308   0.580   6.230
  659TIP3    H1 1918   0.292   0.596   6.323
  659TIP3    H2 1919   0.222   0.558   6.194
  660TIP3   OH2 1920   3.570   2.493   2.949
  660TIP3    H1 1921   3.481   2.505   2.981
  660TIP3    H2 1922   3.560   2.454   2.862
  661TIP3   OH2 1923   3.044   2.813   6.216
  661TIP3    H1 1924   3.083   2.889   6.259
  661TIP3    H2 1925   2.973   2.786   6.273
  662TIP3   OH2 1926   5.146   1.005   1.872
  662TIP3    H1 1927   5.108   0.941   1.931
  662TIP3    H2 1928   5.132   1.089   1.915
  663TIP3   OH2 1929   1.436   6.549   4.814
  663TIP3    H1 1930   1.394   6.604   4.880
  663TIP3    H2 1931   1.511   6.602   4.784
  664TIP3   OH2 1932   4.788   3.752   3.373
  664TIP3    H1 1933   4.840   3.745   3.293
  664TIP3    H2 1934   4.764   3.845   3.377
  665TIP3   OH2 1935   7.139   3.600   3.951
  665TIP3    H1 1936   7.056   3.556   3.968
  665TIP3    H2 1937   7.125   3.690   3.978
  666TIP3   OH2 1938   1.180   5.357   0.706
  666TIP3    H1 1939   1.115   5.393   0.646
  666TIP3    H2 1940   1.129   5.304   0.768
  667TIP3   OH2 1941   5.404   5.547   4.092
  667TIP3    H1 1942   5.421   5.630   4.047
  667TIP3    H2 1943   5.441   5.560   4.179
  668TIP3   OH2 1944   5.950   1.376   0.797
  668TIP3    H1 1945   5.911   1.449   0.844
  668TIP3    H2 1946   6.039   1.370   0.831
  669TIP3   OH2 1947   2.015   7.595   6.218
  669TIP3    H1 1948   2.094   7.563   6.174
  669TIP3    H2 1949   1.953   7.612   6.146
  670TIP3   OH2 1950   3.089   5.928   2.415
  670TIP3    H1 1951   3.066   5.980   2.338
  670TIP3    H2 1952   3.070   5.985   2.489
  671TIP3   OH2 1953   6.674   7.290   1.333
  671TIP3    H1 1954   6.633   7.377   1.336
  671TIP3    H2 1955   6.675   7.260   1.423
  672TIP3   OH2 1956   7.659   4.422   5.886
  672TIP3    H1 1957   7.707   4.343   5.862
  672TIP3    H2 1958   7.606   4.396   5.961
  673TIP3   OH2 1959   5.525   4.292   1.568
  673TIP3    H1 1960   5.601   4.236   1.581
  673TIP3    H2 1961   5.454   4.232   1.544
  674TIP3   OH2 1962   5.551   7.286   1.636
  674TIP3    H1 1963   5.516   7.221   1.697
  674TIP3    H2 1964   5.539   7.247   1.549
  675TIP3   OH2 1965   3.569   2.558   0.940
  675TIP3    H1 1966   3.609   2.520   1.018
  675TIP3    H2 1967   3.638   2.555   0.874
  676TIP3   OH2 1968   5.601   7.480   2.763
  676TIP3    H1 1969   5.506   7.471   2.771
  676TIP3    H2 1970   5.617   7.487   2.669
  677TIP3   OH2 1971   2.458   1.212   6.131
  677TIP3    H1 1972   2.525   1.189   6.195
  677TIP3    H2 1973   2.392   1.143   6.139
  678TIP3   OH2 1974   3.796   0.272   5.972
  678TIP3    H1 1975   3.871   0.221   6.005
  678TIP3    H2 1976   3.728   0.259   6.038
  679TIP3   OH2 1977   1.105   3.770   5.280
  679TIP3    H1 1978   1.152   3.763   5.363
  679TIP3    H2 1979   1.171   3.800   5.218
  680TIP3   OH2 1980   2.282   0.060   4.265
  680TIP3    H1 1981   2.215   0.115   4.225
  680TIP3    H2 1982   2.350   0.053   4.199
  681TIP3   OH2 1983   1.360   7.886   6.701
  681TIP3    H1 1984   1.409   7.919   6.626
  681TIP3    H2 1985   1.428   7.860   6.764
  682TIP3   OH2 1986   3.487   7.268   4.020
  682TIP3    H1 1987   3.421   7.296   4.084
  682TIP3    H2 1988   3.484   7.336   3.952
  683TIP3   OH2 1989   5.801   7.750   6.682
  683TIP3    H1 1990   5.708   7.737   6.698
  683TIP3    H2 1991   5.832   7.666   6.649
  684TIP3   OH2 1992   0.563   1.063   1.501
  684TIP3    H1 1993   0.626   1.002   1.539
  684TIP3    H2 1994   0.607   1.148   1.505
  685TIP3   OH2 1995   5.339   3.724   4.924
  685TIP3    H1 1996   5.361   3.689   4.837
  685TIP3    H2 1997   5.361   3.653   4.984
  686TIP3   OH2 1998   0.430   2.111   2.900
  686TIP3    H1 1999   0.471   2.144   2.981
  686TIP3    H2 2000   0.341   2.087   2.926
  687TIP3   OH2 2001   8.246   7.867   1.845
  687TIP3    H1 2002   8.170   7.848   1.791
  687TIP3    H2 2003   8.222   7.837   1.933
  688TIP3   OH2 2004   3.889   0.411   0.627
  688TIP3    H1 2005   3.947   0.419   0.552
  688TIP3    H2 2006   3.913   0.484   0.684
  689TIP3   OH2 2007   6.147   6.977   1.354
  689TIP3    H1 2008   6.130   7.065   1.387
  689TIP3    H2 2009   6.243   6.969   1.355
  690TIP3   OH2 2010   1.844   1.272   5.587
  690TIP3    H1 2011   1.788   1.314   5.522
  690TIP3    H2 2012   1.915   1.335   5.601
  691TIP3   OH2 2013   1.078   2.186   6.157
  691TIP3    H1 2014   0.995   2.225   6.187
  691TIP3    H2 2015   1.131   2.180   6.237
  692TIP3   OH2 2016   0.383   1.171   3.815
  692TIP3    H1 2017   0.478   1.176   3.824
  692TIP3    H2 2018   0.351   1.254   3.849
  693TIP3   OH2 2019   0.238   2.045   2.285
  693TIP3    H1 2020   0.241   2.010   2.374
  693TIP3    H2 2021   0.185   1.983   2.236
  694TIP3   OH2 2022   5.138   4.281   6.111
  694TIP3    H1 2023   5.213   4.230   6.142
  694TIP3    H2 2024   5.155   4.294   6.018
  695TIP3   OH2 2025   5.628  -0.016   3.557
  695TIP3    H1 2026   5.651   0.032   3.637
  695TIP3    H2 2027   5.704  -0.072   3.539
  696TIP3   OH2 2028   4.506   2.187   6.753
  696TIP3    H1 2029   4.566   2.133   6.701
  696TIP3    H2 2030   4.549   2.196   6.838
  697TIP3   OH2 2031   0.882   6.452   2.604
  697TIP3    H1 2032   0.790   6.432   2.624
  697TIP3    H2 2033   0.878   6.537   2.560
  698TIP3   OH2 2034   2.289   0.568   2.487
  698TIP3    H1 2035   2.316   0.609   2.405
  698TIP3    H2 2036   2.221   0.505   2.462
  699TIP3   OH2 2037   7.885   3.722   0.844
  699TIP3    H1 2038   7.926   3.808   0.852
  699TIP3    H2 2039   7.793   3.741   0.825
  700TIP3   OH2 2040   5.997   2.150   2.096
  700TIP3    H1 2041   6.076   2.188   2.134
  700TIP3    H2 2042   5.926   2.179   2.153
  701TIP3   OH2 2043   2.516   4.542   6.359
  701TIP3    H1 2044   2.497   4.631   6.389
  701TIP3    H2 2045   2.431   4.498   6.360
  702TIP3   OH2 2046   6.167   4.884   2.347
  702TIP3    H1 2047   6.145   4.975   2.370
  702TIP3    H2 2048   6.129   4.832   2.418
  703TIP3   OH2 2049   0.432   7.812   2.251
  703TIP3    H1 2050   0.406   7.895   2.290
  703TIP3    H2 2051   0.372   7.800   2.177
  704TIP3   OH2 2052   8.249   4.221   5.035
  704TIP3    H1 2053   8.303   4.300   5.028
  704TIP3    H2 2054   8.232   4.195   4.945
  705TIP3   OH2 2055   8.139   2.743   1.665
  705TIP3    H1 2056   8.074   2.792   1.715
  705TIP3    H2 2057   8.222   2.786   1.684
  706TIP3   OH2 2058   8.122   0.237   5.503
  706TIP3    H1 2059   8.153   0.247   5.413
  706TIP3    H2 2060   8.032   0.207   5.495
  707TIP3   OH2 2061   7.379   1.905   3.628
  707TIP3    H1 2062   7.385   1.991   3.587
  707TIP3    H2 2063   7.415   1.845   3.562
  708TIP3   OH2 2064   4.073   6.130   1.328
  708TIP3    H1 2065   4.051   6.213   1.287
  708TIP3    H2 2066   4.010   6.121   1.400
  709TIP3   OH2 2067   6.590   0.453   0.175
  709TIP3    H1 2068   6.505   0.486   0.144
  709TIP3    H2 2069   6.633   0.419   0.096
  710TIP3   OH2 2070   2.552   6.669   0.049
  710TIP3    H1 2071   2.508   6.741   0.094
  710TIP3    H2 2072   2.484   6.629  -0.005
  711TIP3   OH2 2073   6.749   7.891   3.898
  711TIP3    H1 2074   6.701   7.817   3.934
  711TIP3    H2 2075   6.708   7.968   3.938
  712TIP3   OH2 2076   4.966   3.539   6.187
  712TIP3    H1 2077   4.973   3.477   6.259
  712TIP3    H2 2078   5.054   3.539   6.147
  713TIP3   OH2 2079   5.288   5.535   0.986
  713TIP3    H1 2080   5.369   5.504   1.028
  713TIP3    H2 2081   5.318   5.600   0.923
  714TIP3   OH2 2082   0.240   1.218   5.026
  714TIP3    H1 2083   0.189   1.159   5.081
  714TIP3    H2 2084   0.174   1.274   4.984
  715TIP3   OH2 2085   1.192   4.038   3.020
  715TIP3    H1 2086   1.147   3.988   2.953
  715TIP3    H2 2087   1.285   4.028   3.000
  716TIP3   OH2 2088   3.136   4.670   1.122
  716TIP3    H1 2089   3.193   4.691   1.196
  716TIP3    H2 2090   3.099   4.585   1.144
  717TIP3   OH2 2091   5.662   5.943   3.518
  717TIP3    H1 2092   5.746   5.928   3.562
  717TIP3    H2 2093   5.673   5.905   3.431
  718TIP3   OH2 2094   5.039   3.159   6.057
  718TIP3    H1 2095   4.959   3.198   6.093
  718TIP3    H2 2096   5.008   3.109   5.981
  719TIP3   OH2 2097   7.358   5.074   2.699
  719TIP3    H1 2098   7.431   5.055   2.757
  719TIP3    H2 2099   7.285   5.095   2.757
  720TIP3   OH2 2100   1.684   3.379   3.532
  720TIP3    H1 2101   1.623   3.419   3.594
  720TIP3    H2 2102   1.734   3.317   3.585
  721TIP3   OH2 2103   1.335   2.216   6.802
  721TIP3    H1 2104   1.284   2.135   6.802
  721TIP3    H2 2105   1.318   2.256   6.887
  722TIP3   OH2 2106   6.565   2.280   1.942
  722TIP3    H1 2107   6.534   2.266   1.852
  722TIP3    H2 2108   6.531   2.366   1.966
  723TIP3   OH2 2109   1.407   0.476   5.582
  723TIP3    H1 2110   1.477   0.508   5.640
  723TIP3    H2 2111   1.376   0.555   5.536
  724TIP3   OH2 2112   0.701   1.773   0.249
  724TIP3    H1 2113   0.762   1.827   0.198
  724TIP3    H2 2114   0.644   1.734   0.183
  725TIP3   OH2 2115   1.566   4.178   3.765
  725TIP3    H1 2116   1.629   4.129   3.818
  725TIP3    H2 2117   1.565   4.131   3.681
  726TIP3   OH2 2118   4.634   3.777   5.312
  726TIP3    H1 2119   4.574   3.704   5.295
  726TIP3    H2 2120   4.687   3.783   5.233
  727TIP3   OH2 2121   3.836   1.056   6.151
  727TIP3    H1 2122   3.905   1.121   6.161
  727TIP3    H2 2123   3.789   1.083   6.072
  728TIP3   OH2 2124   2.461   0.899   2.637
  728TIP3    H1 2125   2.441   0.980   2.589
  728TIP3    H2 2126   2.543   0.868   2.597
  729TIP3   OH2 2127   0.192   3.540   1.074
  729TIP3    H1 2128   0.236   3.623   1.057
  729TIP3    H2 2129   0.168   3.544   1.167
  730TIP3   OH2 2130   5.494   5.682   4.305
  730TIP3    H1 2131   5.423   5.744   4.321
  730TIP3    H2 2132   5.572   5.725   4.341
  731TIP3   OH2 2133   0.653   3.729   0.972
  731TIP3    H1 2134   0.594   3.661   0.941
  731TIP3    H2 2135   0.612   3.811   0.943
  732TIP3   OH2 2136   7.895   2.235   3.271
  732TIP3    H1 2137   7.805   2.210   3.249
  732TIP3    H2 2138   7.895   2.240   3.367
  733TIP3   OH2 2139   7.699   0.597   0.088
  733TIP3    H1 2140   7.775   0.641   0.050
  733TIP3    H2 2141   7.709   0.505   0.063
  734TIP3   OH2 2142   3.525   6.527   2.574
  734TIP3    H1 2143   3.433   6.533   2.600
  734TIP3    H2 2144   3.566   6.603   2.615
  735TIP3   OH2 2145   3.410   4.732   2.018
  735TIP3    H1 2146   3.334   4.714   2.074
  735TIP3    H2 2147   3.376   4.724   1.929
  736TIP3   OH2 2148   5.277   3.538   5.156
  736TIP3    H1 2149   5.185   3.549   5.178
  736TIP3    H2 2150   5.283   3.451   5.117
  737TIP3   OH2 2151   3.495   4.296   4.354
  737TIP3    H1 2152   3.483   4.271   4.262
  737TIP3    H2 2153   3.589   4.285   4.370
  738TIP3   OH2 2154   1.849   7.073   3.291
  738TIP3    H1 2155   1.808   7.082   3.205
  738TIP3    H2 2156   1.785   7.024   3.343
  739TIP3   OH2 2157   4.401   2.686   6.436
  739TIP3    H1 2158   4.405   2.751   6.506
  739TIP3    H2 2159   4.493   2.674   6.409
  740TIP3   OH2 2160   1.551   0.492   5.266
  740TIP3    H1 2161   1.548   0.567   5.207
  740TIP3    H2 2162   1.598   0.424   5.217
  741TIP3   OH2 2163   7.475   7.637   1.575
  741TIP3    H1 2164   7.559   7.592   1.579
  741TIP3    H2 2165   7.415   7.574   1.534
  742TIP3   OH2 2166   0.586   5.500   5.666
  742TIP3    H1 2167   0.578   5.595   5.654
  742TIP3    H2 2168   0.601   5.489   5.760
  743TIP3   OH2 2169   2.567   0.178   1.498
  743TIP3    H1 2170   2.642   0.189   1.439
  743TIP3    H2 2171   2.508   0.249   1.475
  744TIP3   OH2 2172   6.607   1.458   0.388
  744TIP3    H1 2173   6.634   1.394   0.323
  744TIP3    H2 2174   6.548   1.517   0.341
  745TIP3   OH2 2175   4.577   2.255   1.108
  745TIP3    H1 2176   4.573   2.164   1.138
  745TIP3    H2 2177   4.634   2.253   1.031
  746TIP3   OH2 2178   7.058   4.992   2.291
  746TIP3    H1 2179   7.006   5.036   2.358
  746TIP3    H2 2180   7.142   4.974   2.333
  747TIP3   OH2 2181   3.579   3.426   1.970
  747TIP3    H1 2182   3.574   3.460   2.060
  747TIP3    H2 2183   3.536   3.493   1.917
  748TIP3   OH2 2184   0.237   0.428   2.703
  748TIP3    H1 2185   0.315   0.480   2.722
  748TIP3    H2 2186   0.232   0.426   2.608
  749TIP3   OH2 2187   1.355   1.981   1.674
  749TIP3    H1 2188   1.402   2.053   1.717
  749TIP3    H2 2189   1.412   1.905   1.684
  750TIP3   OH2 2190   6.694   2.444   0.059
  750TIP3    H1 2191   6.774   2.431   0.110
  750TIP3    H2 2192   6.626   2.397   0.108
  751TIP3   OH2 2193   0.916   0.316   3.587
  751TIP3    H1 2194   0.873   0.329   3.503
  751TIP3    H2 2195   0.994   0.264   3.567
  752TIP3   OH2 2196   4.182   2.709   2.339
  752TIP3    H1 2197   4.278   2.719   2.339
  752TIP3    H2 2198   4.164   2.657   2.417
  753TIP3   OH2 2199   5.976   1.227   4.577
  753TIP3    H1 2200   5.997   1.320   4.579
  753TIP3    H2 2201   6.048   1.184   4.624
  754TIP3   OH2 2202   3.822   7.766   4.849
  754TIP3    H1 2203   3.912   7.773   4.881
  754TIP3    H2 2204   3.824   7.810   4.764
  755TIP3   OH2 2205   7.649   2.280   3.706
  755TIP3    H1 2206   7.554   2.284   3.712
  755TIP3    H2 2207   7.672   2.351   3.646
  756TIP3   OH2 2208   7.363   6.893   4.050
  756TIP3    H1 2209   7.438   6.950   4.036
  756TIP3    H2 2210   7.296   6.926   3.990
  757TIP3   OH2 2211   5.899   4.235   6.462
  757TIP3    H1 2212   5.953   4.165   6.499
  757TIP3    H2 2213   5.827   4.245   6.524
  758TIP3   OH2 2214   0.220   0.925   4.157
  758TIP3    H1 2215   0.283   0.875   4.210
  758TIP3    H2 2216   0.237   1.016   4.180
  759TIP3   OH2 2217   2.566   1.647   2.069
  759TIP3    H1 2218   2.547   1.650   1.975
  759TIP3    H2 2219   2.580   1.738   2.094
  760TIP3   OH2 2220   6.322   5.195   3.253
  760TIP3    H1 2221   6.244   5.166   3.206
  760TIP3    H2 2222   6.299   5.187   3.345
  761TIP3   OH2 2223   3.539   2.350   2.525
  761TIP3    H1 2224   3.594   2.375   2.451
  761TIP3    H2 2225   3.589   2.280   2.569
  762TIP3   OH2 2226   3.788   4.533   4.655
  762TIP3    H1 2227   3.854   4.473   4.622
  762TIP3    H2 2228   3.838   4.605   4.693
  763TIP3   OH2 2229   2.294   4.769   0.703
  763TIP3    H1 2230   2.289   4.836   0.636
  763TIP3    H2 2231   2.373   4.789   0.752
  764TIP3   OH2 2232   7.413   7.387   5.760
  764TIP3    H1 2233   7.344   7.447   5.790
  764TIP3    H2 2234   7.463   7.438   5.697
  765TIP3   OH2 2235   1.037   7.908   5.837
  765TIP3    H1 2236   1.044   7.813   5.825
  765TIP3    H2 2237   1.113   7.931   5.891
  766TIP3   OH2 2238   4.292   6.917   1.737
  766TIP3    H1 2239   4.299   7.007   1.704
  766TIP3    H2 2240   4.226   6.921   1.806
  767TIP3   OH2 2241   2.059   2.889   3.123
  767TIP3    H1 2242   1.984   2.910   3.178
  767TIP3    H2 2243   2.077   2.796   3.142
  768TIP3   OH2 2244   2.346   7.672   2.113
  768TIP3    H1 2245   2.435   7.698   2.134
  768TIP3    H2 2246   2.344   7.578   2.129
  769TIP3   OH2 2247   0.936   1.881   4.929
  769TIP3    H1 2248   1.003   1.944   4.955
  769TIP3    H2 2249   0.935   1.816   5.000
  770TIP3   OH2 2250   5.934   1.963   3.571
  770TIP3    H1 2251   5.931   1.947   3.665
  770TIP3    H2 2252   5.887   1.890   3.532
  771TIP3   OH2 2253   1.389   3.981   0.082
  771TIP3    H1 2254   1.312   4.013   0.129
  771TIP3    H2 2255   1.452   4.053   0.087
  772TIP3   OH2 2256   8.427   1.374   2.467
  772TIP3    H1 2257   8.440   1.434   2.541
  772TIP3    H2 2258   8.402   1.431   2.395
  773TIP3   OH2 2259   7.962   3.207   5.945
  773TIP3    H1 2260   7.918   3.236   6.024
  773TIP3    H2 2261   8.013   3.130   5.972
  774TIP3   OH2 2262   5.400   3.786   0.031
  774TIP3    H1 2263   5.457   3.834  -0.029
  774TIP3    H2 2264   5.312   3.817   0.010
  775TIP3   OH2 2265   2.816   6.671   1.568
  775TIP3    H1 2266   2.872   6.736   1.527
  775TIP3    H2 2267   2.851   6.661   1.657
  776TIP3   OH2 2268   8.069   6.564   1.440
  776TIP3    H1 2269   8.075   6.483   1.489
  776TIP3    H2 2270   8.132   6.623   1.481
  777TIP3   OH2 2271   5.133   4.075   5.402
  777TIP3    H1 2272   5.140   4.052   5.310
  777TIP3    H2 2273   5.157   3.995   5.449
  778TIP3   OH2 2274   3.303   4.885   3.056
  778TIP3    H1 2275   3.294   4.959   3.116
  778TIP3    H2 2276   3.333   4.924   2.974
  779TIP3   OH2 2277   7.769   3.174   3.653
  779TIP3    H1 2278   7.786   3.236   3.724
  779TIP3    H2 2279   7.721   3.224   3.589
  780TIP3   OH2 2280   7.189   4.530   1.922
  780TIP3    H1 2281   7.133   4.548   1.997
  780TIP3    H2 2282   7.152   4.452   1.881
  781TIP3   OH2 2283   8.381   0.186   6.547
  781TIP3    H1 2284   8.392   0.248   6.619
  781TIP3    H2 2285   8.294   0.148   6.561
  782TIP3   OH2 2286   0.240   0.467   2.434
  782TIP3    H1 2287   0.201   0.554   2.434
  782TIP3    H2 2288   0.202   0.424   2.358
  783TIP3   OH2 2289   2.087   3.137   5.638
  783TIP3    H1 2290   2.107   3.061   5.584
  783TIP3    H2 2291   2.095   3.105   5.728
  784TIP3   OH2 2292   7.972   4.160   3.923
  784TIP3    H1 2293   7.905   4.096   3.951
  784TIP3    H2 2294   8.042   4.106   3.887
  785TIP3   OH2 2295   7.537   0.640   0.327
  785TIP3    H1 2296   7.573   0.595   0.251
  785TIP3    H2 2297   7.451   0.672   0.298
  786TIP3   OH2 2298   5.402   7.566   3.119
  786TIP3    H1 2299   5.325   7.617   3.146
  786TIP3    H2 2300   5.476   7.612   3.158
  787TIP3   OH2 2301   2.095   0.437   3.853
  787TIP3    H1 2302   2.008   0.437   3.895
  787TIP3    H2 2303   2.084   0.380   3.777
  788TIP3   OH2 2304   0.392   5.318   5.809
  788TIP3    H1 2305   0.470   5.322   5.754
  788TIP3    H2 2306   0.419   5.359   5.891
  789TIP3   OH2 2307   2.151   2.424   5.989
  789TIP3    H1 2308   2.063   2.412   5.952
  789TIP3    H2 2309   2.144   2.389   6.078
  790TIP3   OH2 2310   1.908   5.339   4.945
  790TIP3    H1 2311   1.944   5.393   4.875
  790TIP3    H2 2312   1.980   5.329   5.007
  791TIP3   OH2 2313   5.266   7.309   1.169
  791TIP3    H1 2314   5.210   7.240   1.205
  791TIP3    H2 2315   5.222   7.337   1.089
  792TIP3   OH2 2316   7.517   6.418   1.904
  792TIP3    H1 2317   7.437   6.429   1.853
  792TIP3    H2 2318   7.576   6.487   1.872
  793TIP3   OH2 2319   4.619   5.199   2.669
  793TIP3    H1 2320   4.568   5.170   2.593
  793TIP3    H2 2321   4.654   5.284   2.643
  794TIP3   OH2 2322  -0.007   4.188   4.013
  794TIP3    H1 2323   0.074   4.164   3.969
  794TIP3    H2 2324   0.019   4.253   4.078
  795TIP3   OH2 2325   5.226   6.403   3.088
  795TIP3    H1 2326   5.243   6.309   3.094
  795TIP3    H2 2327   5.131   6.410   3.078
  796TIP3   OH2 2328   6.894   0.896   2.546
  796TIP3    H1 2329   6.976   0.944   2.534
  796TIP3    H2 2330   6.900   0.822   2.485
  797TIP3   OH2 2331   4.130   2.012   0.733
  797TIP3    H1 2332   4.068   1.939   0.734
  797TIP3    H2 2333   4.085   2.082   0.781
  798TIP3   OH2 2334   8.384   5.282   5.580
  798TIP3    H1 2335   8.445   5.340   5.533
  798TIP3    H2 2336   8.418   5.281   5.670
  799TIP3   OH2 2337   4.169   6.363   5.093
  799TIP3    H1 2338   4.224   6.333   5.166
  799TIP3    H2 2339   4.170   6.289   5.031
  800TIP3   OH2 2340   1.427   1.951   5.183
  800TIP3    H1 2341   1.416   1.972   5.276
  800TIP3    H2 2342   1.373   2.015   5.138
  801TIP3   OH2 2343   3.520   2.210   6.053
  801TIP3    H1 2344   3.598   2.158   6.069
  801TIP3    H2 2345   3.534   2.290   6.104
  802TIP3   OH2 2346   4.916   6.837   5.304
  802TIP3    H1 2347   4.942   6.863   5.392
  802TIP3    H2 2348   4.999   6.830   5.256
  803TIP3   OH2 2349   3.666   0.714   0.729
  803TIP3    H1 2350   3.750   0.701   0.774
  803TIP3    H2 2351   3.649   0.808   0.736
  804TIP3   OH2 2352   7.136   3.143   0.186
  804TIP3    H1 2353   7.127   3.169   0.094
  804TIP3    H2 2354   7.205   3.077   0.185
  805TIP3   OH2 2355   4.082   4.692   0.898
  805TIP3    H1 2356   3.987   4.700   0.889
  805TIP3    H2 2357   4.107   4.769   0.950
  806TIP3   OH2 2358   2.484   3.535   5.806
  806TIP3    H1 2359   2.481   3.626   5.833
  806TIP3    H2 2360   2.392   3.510   5.796
  807TIP3   OH2 2361   2.141   2.000   3.025
  807TIP3    H1 2362   2.105   2.084   3.054
  807TIP3    H2 2363   2.130   1.942   3.100
  808TIP3   OH2 2364   4.975   2.869   6.411
  808TIP3    H1 2365   4.948   2.874   6.319
  808TIP3    H2 2366   5.021   2.785   6.417
  809TIP3   OH2 2367   5.771   5.748   2.863
  809TIP3    H1 2368   5.801   5.714   2.947
  809TIP3    H2 2369   5.848   5.739   2.806
  810TIP3   OH2 2370   0.377   4.265   5.264
  810TIP3    H1 2371   0.363   4.174   5.293
  810TIP3    H2 2372   0.321   4.317   5.321
  811TIP3   OH2 2373   4.729   0.729   6.432
  811TIP3    H1 2374   4.641   0.766   6.421
  811TIP3    H2 2375   4.787   0.805   6.432
  812TIP3   OH2 2376   3.511   3.309   5.529
  812TIP3    H1 2377   3.468   3.380   5.577
  812TIP3    H2 2378   3.465   3.306   5.445
  813TIP3   OH2 2379   3.229   2.360   2.469
  813TIP3    H1 2380   3.228   2.439   2.415
  813TIP3    H2 2381   3.312   2.363   2.515
  814TIP3   OH2 2382   0.129   4.982   5.523
  814TIP3    H1 2383   0.075   5.057   5.499
  814TIP3    H2 2384   0.168   5.006   5.607
  815TIP3   OH2 2385   4.081   6.860   5.960
  815TIP3    H1 2386   4.063   6.799   5.888
  815TIP3    H2 2387   4.093   6.803   6.037
  816TIP3   OH2 2388   8.308   6.194   3.937
  816TIP3    H1 2389   8.403   6.195   3.934
  816TIP3    H2 2390   8.286   6.242   4.017
  817TIP3   OH2 2391   3.593   2.637   1.666
  817TIP3    H1 2392   3.610   2.710   1.607
  817TIP3    H2 2393   3.588   2.676   1.753
  818TIP3   OH2 2394   4.511   5.462   2.036
  818TIP3    H1 2395   4.510   5.447   1.942
  818TIP3    H2 2396   4.440   5.525   2.051
  819TIP3   OH2 2397   4.942   1.381   6.588
  819TIP3    H1 2398   5.014   1.319   6.579
  819TIP3    H2 2399   4.899   1.381   6.502
  820TIP3   OH2 2400   3.004   0.827   0.742
  820TIP3    H1 2401   3.074   0.863   0.688
  820TIP3    H2 2402   3.047   0.805   0.825
  821TIP3   OH2 2403   6.723   4.292   5.151
  821TIP3    H1 2404   6.631   4.266   5.142
  821TIP3    H2 2405   6.720   4.381   5.186
  822TIP3   OH2 2406   3.676   1.796   6.138
  822TIP3    H1 2407   3.635   1.880   6.114
  822TIP3    H2 2408   3.617   1.730   6.102
  823TIP3   OH2 2409   2.600   4.645   6.782
  823TIP3    H1 2410   2.515   4.667   6.743
  823TIP3    H2 2411   2.608   4.704   6.857
  824TIP3   OH2 2412   2.776   7.364   2.652
  824TIP3    H1 2413   2.693   7.333   2.687
  824TIP3    H2 2414   2.803   7.434   2.712
  825TIP3   OH2 2415   6.832   5.947   4.762
  825TIP3    H1 2416   6.866   6.031   4.732
  825TIP3    H2 2417   6.807   5.962   4.853
  826TIP3   OH2 2418   5.676   7.811   5.649
  826TIP3    H1 2419   5.752   7.821   5.591
  826TIP3    H2 2420   5.654   7.900   5.676
  827TIP3   OH2 2421   1.876   1.587   6.625
  827TIP3    H1 2422   1.900   1.590   6.533
  827TIP3    H2 2423   1.801   1.528   6.629
  828TIP3   OH2 2424   0.760   6.757   4.447
  828TIP3    H1 2425   0.854   6.765   4.430
  828TIP3    H2 2426   0.753   6.685   4.509
  829TIP3   OH2 2427   4.830   1.980   0.307
  829TIP3    H1 2428   4.855   2.054   0.252
  829TIP3    H2 2429   4.765   2.016   0.367
  830TIP3   OH2 2430   0.195   0.415   5.449
  830TIP3    H1 2431   0.182   0.373   5.364
  830TIP3    H2 2432   0.211   0.343   5.510
  831TIP3   OH2 2433   7.720   0.993   2.446
  831TIP3    H1 2434   7.696   1.076   2.487
  831TIP3    H2 2435   7.696   1.004   2.354
  832TIP3   OH2 2436   5.188   3.984   2.674
  832TIP3    H1 2437   5.265   3.976   2.617
  832TIP3    H2 2438   5.156   3.894   2.684
  833TIP3   OH2 2439   3.181   4.304   5.823
  833TIP3    H1 2440   3.126   4.283   5.748
  833TIP3    H2 2441   3.130   4.276   5.899
  834TIP3   OH2 2442   3.499   0.456   0.729
  834TIP3    H1 2443   3.559   0.529   0.717
  834TIP3    H2 2444   3.541   0.383   0.682
  835TIP3   OH2 2445   3.032   4.377   4.057
  835TIP3    H1 2446   3.023   4.291   4.098
  835TIP3    H2 2447   2.945   4.416   4.063
  836TIP3   OH2 2448   6.505   6.247   1.217
  836TIP3    H1 2449   6.553   6.249   1.135
  836TIP3    H2 2450   6.448   6.170   1.209
  837TIP3   OH2 2451   0.077   5.003   0.638
  837TIP3    H1 2452   0.061   5.053   0.558
  837TIP3    H2 2453  -0.005   4.959   0.657
  838TIP3   OH2 2454   5.382   5.147   4.338
  838TIP3    H1 2455   5.433   5.210   4.387
  838TIP3    H2 2456   5.292   5.157   4.371
  839TIP3   OH2 2457   0.124   0.812   3.362
  839TIP3    H1 2458   0.202   0.757   3.374
  839TIP3    H2 2459   0.077   0.804   3.445
  840TIP3   OH2 2460   4.717   1.386   0.038
  840TIP3    H1 2461   4.757   1.469   0.013
  840TIP3    H2 2462   4.750   1.369   0.127
  841TIP3   OH2 2463   4.798   2.538   2.714
  841TIP3    H1 2464   4.819   2.450   2.744
  841TIP3    H2 2465   4.856   2.595   2.764
  842TIP3   OH2 2466   4.077   6.482   4.143
  842TIP3    H1 2467   4.131   6.543   4.193
  842TIP3    H2 2468   4.036   6.427   4.209
  843TIP3   OH2 2469   3.856   4.412   2.367
  843TIP3    H1 2470   3.799   4.382   2.437
  843TIP3    H2 2471   3.941   4.426   2.409
  844TIP3   OH2 2472   7.549   3.972   0.230
  844TIP3    H1 2473   7.537   4.017   0.313
  844TIP3    H2 2474   7.583   3.886   0.253
  845TIP3   OH2 2475   8.214   4.314   0.313
  845TIP3    H1 2476   8.250   4.348   0.232
  845TIP3    H2 2477   8.130   4.359   0.323
  846TIP3   OH2 2478   4.858   0.745   6.134
  846TIP3    H1 2479   4.782   0.779   6.087
  846TIP3    H2 2480   4.842   0.651   6.142
  847TIP3   OH2 2481   3.269   3.298   4.642
  847TIP3    H1 2482   3.188   3.309   4.693
  847TIP3    H2 2483   3.311   3.222   4.681
  848TIP3   OH2 2484   2.489   0.626   5.909
  848TIP3    H1 2485   2.515   0.566   5.979
  848TIP3    H2 2486   2.513   0.580   5.828
  849TIP3   OH2 2487   8.314   5.557   0.181
  849TIP3    H1 2488   8.221   5.532   0.179
  849TIP3    H2 2489   8.317   5.633   0.239
  850TIP3   OH2 2490   2.713   7.624   1.630
  850TIP3    H1 2491   2.708   7.667   1.715
  850TIP3    H2 2492   2.687   7.691   1.567
  851TIP3   OH2 2493   8.270   6.887   5.311
  851TIP3    H1 2494   8.347   6.833   5.289
  851TIP3    H2 2495   8.196   6.838   5.276
  852TIP3   OH2 2496   5.484   7.141   2.712
  852TIP3    H1 2497   5.548   7.070   2.719
  852TIP3    H2 2498   5.504   7.200   2.784
  853TIP3   OH2 2499   3.621   7.373   0.336
  853TIP3    H1 2500   3.578   7.421   0.407
  853TIP3    H2 2501   3.714   7.396   0.344
  854TIP3   OH2 2502   0.308   7.528   5.548
  854TIP3    H1 2503   0.327   7.620   5.570
  854TIP3    H2 2504   0.213   7.521   5.557
  855TIP3   OH2 2505   8.000   1.302   4.494
  855TIP3    H1 2506   8.026   1.225   4.545
  855TIP3    H2 2507   7.937   1.270   4.430
  856TIP3   OH2 2508   0.347   3.250   6.608
  856TIP3    H1 2509   0.341   3.163   6.567
  856TIP3    H2 2510   0.326   3.311   6.538
  857TIP3   OH2 2511   7.821   0.942   5.839
  857TIP3    H1 2512   7.916   0.936   5.824
  857TIP3    H2 2513   7.813   0.994   5.919
  858TIP3   OH2 2514   6.759   1.403   4.497
  858TIP3    H1 2515   6.735   1.359   4.415
  858TIP3    H2 2516   6.698   1.368   4.561
  859TIP3   OH2 2517   2.790   1.474   2.193
  859TIP3    H1 2518   2.871   1.456   2.145
  859TIP3    H2 2519   2.726   1.495   2.125
  860TIP3   OH2 2520   7.211   6.838   6.161
  860TIP3    H1 2521   7.261   6.891   6.098
  860TIP3    H2 2522   7.121   6.841   6.127
  861TIP3   OH2 2523   8.323   1.308   4.404
  861TIP3    H1 2524   8.385   1.363   4.356
  861TIP3    H2 2525   8.295   1.362   4.477
  862TIP3   OH2 2526   1.047   7.360   5.028
  862TIP3    H1 2527   1.133   7.356   5.069
  862TIP3    H2 2528   1.037   7.452   5.002
  863TIP3   OH2 2529   1.928   3.086   1.510
  863TIP3    H1 2530   1.988   3.073   1.437
  863TIP3    H2 2531   1.985   3.108   1.584
  864TIP3   OH2 2532   8.431   0.274   4.990
  864TIP3    H1 2533   8.358   0.285   5.052
  864TIP3    H2 2534   8.389   0.239   4.911
  865TIP3   OH2 2535   4.705   0.144   3.730
  865TIP3    H1 2536   4.779   0.120   3.673
  865TIP3    H2 2537   4.700   0.073   3.794
  866TIP3   OH2 2538   1.608   0.082   6.158
  866TIP3    H1 2539   1.579   0.132   6.082
  866TIP3    H2 2540   1.667   0.015   6.123
  867TIP3   OH2 2541   3.659   3.033   1.384
  867TIP3    H1 2542   3.714   3.056   1.458
  867TIP3    H2 2543   3.633   3.117   1.346
  868TIP3   OH2 2544   3.034   4.146   4.216
  868TIP3    H1 2545   2.970   4.075   4.224
  868TIP3    H2 2546   3.041   4.182   4.304
  869TIP3   OH2 2547   0.095   5.953   2.468
  869TIP3    H1 2548   0.126   5.919   2.551
  869TIP3    H2 2549   0.006   5.985   2.487
  870TIP3   OH2 2550   6.323   5.591   0.485
  870TIP3    H1 2551   6.259   5.640   0.538
  870TIP3    H2 2552   6.281   5.584   0.399
  871TIP3   OH2 2553   4.730   5.001   1.557
  871TIP3    H1 2554   4.808   5.036   1.514
  871TIP3    H2 2555   4.730   4.908   1.533
  872TIP3   OH2 2556   3.988   1.943   2.538
  872TIP3    H1 2557   4.007   1.997   2.461
  872TIP3    H2 2558   4.033   1.861   2.522
  873TIP3   OH2 2559   6.164   5.530   0.249
  873TIP3    H1 2560   6.183   5.604   0.191
  873TIP3    H2 2561   6.073   5.508   0.230
  874TIP3   OH2 2562   2.032   6.820   2.328
  874TIP3    H1 2563   2.083   6.900   2.315
  874TIP3    H2 2564   1.940   6.849   2.326
  875TIP3   OH2 2565   4.021   1.254   0.606
  875TIP3    H1 2566   4.013   1.347   0.630
  875TIP3    H2 2567   4.101   1.225   0.649
  876TIP3   OH2 2568   4.502   7.620   3.417
  876TIP3    H1 2569   4.469   7.564   3.487
  876TIP3    H2 2570   4.568   7.675   3.460
  877TIP3   OH2 2571   2.335   5.105   4.858
  877TIP3    H1 2572   2.253   5.126   4.814
  877TIP3    H2 2573   2.403   5.139   4.800
  878TIP3   OH2 2574   4.005   0.594   2.425
  878TIP3    H1 2575   3.924   0.633   2.458
  878TIP3    H2 2576   4.028   0.647   2.349
  879TIP3   OH2 2577   0.901   7.740   0.453
  879TIP3    H1 2578   0.931   7.798   0.523
  879TIP3    H2 2579   0.946   7.657   0.470
  880TIP3   OH2 2580   5.594   7.543   0.103
  880TIP3    H1 2581   5.647   7.536   0.182
  880TIP3    H2 2582   5.552   7.457   0.094
  881TIP3   OH2 2583   2.896   4.792   5.954
  881TIP3    H1 2584   2.853   4.835   6.028
  881TIP3    H2 2585   2.882   4.698   5.970
  882TIP3   OH2 2586   0.083   6.427   0.297
  882TIP3    H1 2587   0.070   6.470   0.382
  882TIP3    H2 2588   0.009   6.368   0.289
  883TIP3   OH2 2589   3.807   1.877   1.601
  883TIP3    H1 2590   3.837   1.966   1.580
  883TIP3    H2 2591   3.873   1.820   1.561
  884TIP3   OH2 2592   3.140   3.390   2.814
  884TIP3    H1 2593   3.189   3.316   2.780
  884TIP3    H2 2594   3.063   3.351   2.856
  885TIP3   OH2 2595   5.192  -0.017   6.475
  885TIP3    H1 2596   5.246  -0.014   6.553
  885TIP3    H2 2597   5.105   0.009   6.505
  886TIP3   OH2 2598   6.226   2.183   1.254
  886TIP3    H1 2599   6.286   2.257   1.269
  886TIP3    H2 2600   6.168   2.214   1.184
  887TIP3   OH2 2601   3.420   2.433   6.728
  887TIP3    H1 2602   3.422   2.413   6.635
  887TIP3    H2 2603   3.411   2.528   6.733
  888TIP3   OH2 2604   4.062   5.977   5.917
  888TIP3    H1 2605   4.059   5.882   5.904
  888TIP3    H2 2606   4.037   6.013   5.832
  889TIP3   OH2 2607   8.295   6.997   4.790
  889TIP3    H1 2608   8.306   6.990   4.885
  889TIP3    H2 2609   8.201   7.001   4.777
  890TIP3   OH2 2610   3.743   5.383   5.229
  890TIP3    H1 2611   3.775   5.469   5.256
  890TIP3    H2 2612   3.684   5.357   5.300
  891TIP3   OH2 2613   0.435   0.226   0.176
  891TIP3    H1 2614   0.421   0.158   0.242
  891TIP3    H2 2615   0.513   0.273   0.205
  892TIP3   OH2 2616   3.863   0.636   0.902
  892TIP3    H1 2617   3.951   0.606   0.881
  892TIP3    H2 2618   3.871   0.671   0.991
  893TIP3   OH2 2619   0.784   7.516   2.428
  893TIP3    H1 2620   0.869   7.560   2.436
  893TIP3    H2 2621   0.747   7.517   2.516
  894TIP3   OH2 2622  -0.009   2.649   2.223
  894TIP3    H1 2623   0.047   2.726   2.221
  894TIP3    H2 2624  -0.030   2.636   2.315
  895TIP3   OH2 2625   4.127   2.635   0.633
  895TIP3    H1 2626   4.055   2.657   0.574
  895TIP3    H2 2627   4.127   2.705   0.699
  896TIP3   OH2 2628   0.492   3.108   1.807
  896TIP3    H1 2629   0.557   3.048   1.842
  896TIP3    H2 2630   0.476   3.171   1.878
  897TIP3   OH2 2631   0.472   6.556   2.438
  897TIP3    H1 2632   0.504   6.620   2.501
  897TIP3    H2 2633   0.403   6.508   2.484
  898TIP3   OH2 2634   5.650   2.622   4.223
  898TIP3    H1 2635   5.571   2.596   4.271
  898TIP3    H2 2636   5.626   2.705   4.181
  899TIP3   OH2 2637   0.890   2.481   4.533
  899TIP3    H1 2638   0.811   2.428   4.546
  899TIP3    H2 2639   0.897   2.491   4.439
  900TIP3   OH2 2640   4.391   3.843   3.701
  900TIP3    H1 2641   4.470   3.796   3.675
  900TIP3    H2 2642   4.387   3.833   3.796
  901TIP3   OH2 2643   0.587   7.456   3.649
  901TIP3    H1 2644   0.536   7.516   3.702
  901TIP3    H2 2645   0.617   7.508   3.574
  902TIP3   OH2 2646   4.440   1.683   4.349
  902TIP3    H1 2647   4.517   1.683   4.291
  902TIP3    H2 2648   4.400   1.597   4.334
  903TIP3   OH2 2649   3.331   0.768   4.055
  903TIP3    H1 2650   3.425   0.757   4.039
  903TIP3    H2 2651   3.307   0.689   4.105
  904TIP3   OH2 2652   1.060   3.150   2.807
  904TIP3    H1 2653   1.063   3.055   2.796
  904TIP3    H2 2654   1.136   3.183   2.759
  905TIP3   OH2 2655   1.626   0.130   1.906
  905TIP3    H1 2656   1.713   0.167   1.895
  905TIP3    H2 2657   1.580   0.194   1.960
  906TIP3   OH2 2658   5.311   0.652   6.593
  906TIP3    H1 2659   5.269   0.620   6.673
  906TIP3    H2 2660   5.293   0.584   6.527
  907TIP3   OH2 2661   3.564   0.779   1.548
  907TIP3    H1 2662   3.548   0.747   1.637
  907TIP3    H2 2663   3.631   0.846   1.559
  908TIP3   OH2 2664   2.801   1.161   6.679
  908TIP3    H1 2665   2.892   1.155   6.652
  908TIP3    H2 2666   2.803   1.144   6.774
  909TIP3   OH2 2667   2.089   5.981   1.652
  909TIP3    H1 2668   1.999   5.955   1.630
  909TIP3    H2 2669   2.079   6.055   1.712
  910TIP3   OH2 2670   5.737   6.291   3.932
  910TIP3    H1 2671   5.788   6.298   3.851
  910TIP3    H2 2672   5.802   6.272   4.000
  911TIP3   OH2 2673   2.851   3.963   4.995
  911TIP3    H1 2674   2.820   3.902   4.929
  911TIP3    H2 2675   2.946   3.954   4.994
  912TIP3   OH2 2676   5.290   6.101   6.397
  912TIP3    H1 2677   5.295   6.187   6.438
  912TIP3    H2 2678   5.197   6.088   6.380
  913TIP3   OH2 2679   1.133   3.899   2.251
  913TIP3    H1 2680   1.043   3.931   2.243
  913TIP3    H2 2681   1.183   3.953   2.191
  914TIP3   OH2 2682   7.404   0.332   6.477
  914TIP3    H1 2683   7.427   0.396   6.411
  914TIP3    H2 2684   7.383   0.252   6.428
  915TIP3   OH2 2685   2.166   0.657   6.139
  915TIP3    H1 2686   2.230   0.623   6.077
  915TIP3    H2 2687   2.214   0.666   6.221
  916TIP3   OH2 2688   4.476   3.571   5.247
  916TIP3    H1 2689   4.449   3.552   5.336
  916TIP3    H2 2690   4.509   3.488   5.213
  917TIP3   OH2 2691   1.930   5.725   2.279
  917TIP3    H1 2692   2.020   5.718   2.249
  917TIP3    H2 2693   1.891   5.641   2.257
  918TIP3   OH2 2694   5.257   6.875   2.326
  918TIP3    H1 2695   5.338   6.917   2.355
  918TIP3    H2 2696   5.188   6.938   2.346
  919TIP3   OH2 2697   2.909   6.795   3.939
  919TIP3    H1 2698   2.863   6.859   3.994
  919TIP3    H2 2699   2.985   6.770   3.991
  920TIP3   OH2 2700   7.578   0.331   5.839
  920TIP3    H1 2701   7.557   0.416   5.878
  920TIP3    H2 2702   7.536   0.267   5.896
  921TIP3   OH2 2703   5.175   6.650   1.760
  921TIP3    H1 2704   5.164   6.565   1.802
  921TIP3    H2 2705   5.267   6.672   1.772
  922TIP3   OH2 2706   0.283   2.112   6.053
  922TIP3    H1 2707   0.241   2.026   6.050
  922TIP3    H2 2708   0.241   2.157   6.126
  923TIP3   OH2 2709   7.179   6.300   6.802
  923TIP3    H1 2710   7.199   6.239   6.873
  923TIP3    H2 2711   7.227   6.265   6.727
  924TIP3   OH2 2712   5.893   6.805   1.478
  924TIP3    H1 2713   5.938   6.784   1.560
  924TIP3    H2 2714   5.961   6.804   1.411
  925TIP3   OH2 2715   1.750   7.077   3.015
  925TIP3    H1 2716   1.808   7.007   2.984
  925TIP3    H2 2717   1.669   7.063   2.966
  926TIP3   OH2 2718   8.048   7.018   2.789
  926TIP3    H1 2719   8.062   7.019   2.694
  926TIP3    H2 2720   8.101   7.091   2.822
  927TIP3   OH2 2721   5.519   0.841   0.759
  927TIP3    H1 2722   5.562   0.907   0.812
  927TIP3    H2 2723   5.513   0.764   0.815
  928TIP3   OH2 2724   3.211   4.582   4.208
  928TIP3    H1 2725   3.156   4.535   4.145
  928TIP3    H2 2726   3.196   4.537   4.291
  929TIP3   OH2 2727   1.055   3.971   6.055
  929TIP3    H1 2728   1.126   3.942   6.112
  929TIP3    H2 2729   1.048   3.902   5.989
  930TIP3   OH2 2730   4.864   5.041   2.736
  930TIP3    H1 2731   4.848   4.955   2.698
  930TIP3    H2 2732   4.785   5.091   2.717
  931TIP3   OH2 2733   8.309   7.528   0.729
  931TIP3    H1 2734   8.224   7.543   0.689
  931TIP3    H2 2735   8.366   7.596   0.692
  932TIP3   OH2 2736   3.250   5.784   2.719
  932TIP3    H1 2737   3.157   5.760   2.714
  932TIP3    H2 2738   3.295   5.701   2.736
  933TIP3   OH2 2739   5.560   3.625   4.231
  933TIP3    H1 2740   5.532   3.647   4.143
  933TIP3    H2 2741   5.646   3.583   4.219
  934TIP3   OH2 2742   1.569   4.246   0.885
  934TIP3    H1 2743   1.583   4.190   0.961
  934TIP3    H2 2744   1.567   4.334   0.920
  935TIP3   OH2 2745   8.095   5.586   6.503
  935TIP3    H1 2746   8.130   5.652   6.563
  935TIP3    H2 2747   8.170   5.533   6.479
  936TIP3   OH2 2748   4.156   3.944   4.117
  936TIP3    H1 2749   4.224   3.991   4.166
  936TIP3    H2 2750   4.075   3.989   4.140
  937TIP3   OH2 2751   0.711   4.883   6.136
  937TIP3    H1 2752   0.706   4.819   6.065
  937TIP3    H2 2753   0.670   4.839   6.211
  938TIP3   OH2 2754   0.712   1.990   2.362
  938TIP3    H1 2755   0.702   2.063   2.422
  938TIP3    H2 2756   0.658   2.013   2.286
  939TIP3   OH2 2757   2.403   4.989   2.074
  939TIP3    H1 2758   2.359   5.029   1.999
  939TIP3    H2 2759   2.491   4.970   2.042
  940TIP3   OH2 2760   0.279   4.819   0.640
  940TIP3    H1 2761   0.271   4.865   0.556
  940TIP3    H2 2762   0.229   4.873   0.701
  941TIP3   OH2 2763   7.056   0.192   2.223
  941TIP3    H1 2764   7.061   0.172   2.316
  941TIP3    H2 2765   7.051   0.107   2.180
  942TIP3   OH2 2766   0.357   7.904   3.756
  942TIP3    H1 2767   0.433   7.916   3.813
  942TIP3    H2 2768   0.343   7.809   3.753
  943TIP3   OH2 2769   1.175   5.348   4.318
  943TIP3    H1 2770   1.195   5.340   4.225
  943TIP3    H2 2771   1.252   5.311   4.362
  944TIP3   OH2 2772   5.126   7.660   2.486
  944TIP3    H1 2773   5.144   7.723   2.416
  944TIP3    H2 2774   5.202   7.601   2.484
  945TIP3   OH2 2775   1.683   6.282   5.881
  945TIP3    H1 2776   1.732   6.292   5.799
  945TIP3    H2 2777   1.606   6.231   5.856
  946TIP3   OH2 2778   0.307   3.151   0.952
  946TIP3    H1 2779   0.373   3.170   1.019
  946TIP3    H2 2780   0.315   3.057   0.935
  947TIP3   OH2 2781   6.764   5.311   5.187
  947TIP3    H1 2782   6.703   5.237   5.188
  947TIP3    H2 2783   6.789   5.320   5.095
  948TIP3   OH2 2784   6.497   7.189   0.124
  948TIP3    H1 2785   6.495   7.243   0.203
  948TIP3    H2 2786   6.406   7.164   0.109
  949TIP3   OH2 2787   7.902   2.859   3.874
  949TIP3    H1 2788   7.937   2.832   3.959
  949TIP3    H2 2789   7.807   2.857   3.885
  950TIP3   OH2 2790   3.475   6.960   4.347
  950TIP3    H1 2791   3.503   6.873   4.319
  950TIP3    H2 2792   3.552   7.015   4.330
  951TIP3   OH2 2793   2.351   5.688   5.216
  951TIP3    H1 2794   2.442   5.669   5.196
  951TIP3    H2 2795   2.330   5.765   5.162
  952TIP3   OH2 2796   7.345   5.233   2.185
  952TIP3    H1 2797   7.393   5.153   2.165
  952TIP3    H2 2798   7.318   5.222   2.276
  953TIP3   OH2 2799   0.394   3.035   0.242
  953TIP3    H1 2800   0.412   2.942   0.227
  953TIP3    H2 2801   0.439   3.056   0.324
  954TIP3   OH2 2802   6.851   4.392   3.053
  954TIP3    H1 2803   6.766   4.431   3.074
  954TIP3    H2 2804   6.859   4.402   2.958
  955TIP3   OH2 2805   4.285   5.324   1.649
  955TIP3    H1 2806   4.211   5.336   1.590
  955TIP3    H2 2807   4.246   5.322   1.736
  956TIP3   OH2 2808   1.185   0.030   6.690
  956TIP3    H1 2809   1.252  -0.029   6.725
  956TIP3    H2 2810   1.231   0.111   6.670
  957TIP3   OH2 2811   5.128   1.644   4.330
  957TIP3    H1 2812   5.067   1.575   4.302
  957TIP3    H2 2813   5.212   1.599   4.339
  958TIP3   OH2 2814   7.320   3.913   3.241
  958TIP3    H1 2815   7.394   3.882   3.294
  958TIP3    H2 2816   7.278   3.833   3.211
  959TIP3   OH2 2817   4.748   2.772   4.041
  959TIP3    H1 2818   4.754   2.819   3.958
  959TIP3    H2 2819   4.791   2.829   4.105
  960TIP3   OH2 2820   0.813   5.343   1.706
  960TIP3    H1 2821   0.807   5.249   1.724
  960TIP3    H2 2822   0.903   5.355   1.673
  961TIP3   OH2 2823   0.183   5.467   5.456
  961TIP3    H1 2824   0.176   5.517   5.375
  961TIP3    H2 2825   0.246   5.398   5.435
  962TIP3   OH2 2826   2.167   2.284   4.198
  962TIP3    H1 2827   2.183   2.255   4.108
  962TIP3    H2 2828   2.072   2.273   4.209
  963TIP3   OH2 2829   7.492   7.252   0.721
  963TIP3    H1 2830   7.579   7.219   0.698
  963TIP3    H2 2831   7.471   7.313   0.650
  964TIP3   OH2 2832   4.380   1.877   0.343
  964TIP3    H1 2833   4.316   1.835   0.401
  964TIP3    H2 2834   4.386   1.967   0.375
  965TIP3   OH2 2835   1.976   0.269   4.266
  965TIP3    H1 2836   1.932   0.354   4.258
  965TIP3    H2 2837   2.002   0.264   4.358
  966TIP3   OH2 2838   0.060   7.419   2.756
  966TIP3    H1 2839   0.071   7.378   2.671
  966TIP3    H2 2840   0.119   7.495   2.755
  967TIP3   OH2 2841   4.154   2.150   2.708
  967TIP3    H1 2842   4.157   2.189   2.796
  967TIP3    H2 2843   4.092   2.078   2.716
  968TIP3   OH2 2844   1.612   2.041   4.291
  968TIP3    H1 2845   1.563   2.033   4.372
  968TIP3    H2 2846   1.702   2.016   4.314
  969TIP3   OH2 2847   3.501   3.801   4.919
  969TIP3    H1 2848   3.478   3.887   4.884
  969TIP3    H2 2849   3.587   3.782   4.881
  970TIP3   OH2 2850   6.917   7.338   3.602
  970TIP3    H1 2851   6.886   7.311   3.516
  970TIP3    H2 2852   6.979   7.409   3.584
  971TIP3   OH2 2853   4.760   4.172   4.659
  971TIP3    H1 2854   4.823   4.177   4.732
  971TIP3    H2 2855   4.800   4.225   4.590
  972TIP3   OH2 2856   7.145   3.203   3.115
  972TIP3    H1 2857   7.145   3.117   3.073
  972TIP3    H2 2858   7.194   3.190   3.196
  973TIP3   OH2 2859   5.012   5.868   5.271
  973TIP3    H1 2860   4.961   5.947   5.252
  973TIP3    H2 2861   5.102   5.893   5.250
  974TIP3   OH2 2862   2.211   4.876   1.305
  974TIP3    H1 2863   2.288   4.825   1.329
  974TIP3    H2 2864   2.218   4.888   1.210
  975TIP3   OH2 2865   3.165   7.415   4.424
  975TIP3    H1 2866   3.257   7.427   4.450
  975TIP3    H2 2867   3.151   7.321   4.428
  976TIP3   OH2 2868   2.600   0.715   5.397
  976TIP3    H1 2869   2.517   0.737   5.440
  976TIP3    H2 2870   2.600   0.767   5.317
  977TIP3   OH2 2871   3.894   4.288   1.331
  977TIP3    H1 2872   3.812   4.326   1.301
  977TIP3    H2 2873   3.915   4.336   1.411
  978TIP3   OH2 2874   7.011   5.561   5.950
  978TIP3    H1 2875   6.970   5.647   5.940
  978TIP3    H2 2876   6.976   5.528   6.033
  979TIP3   OH2 2877   2.443   3.987   4.992
  979TIP3    H1 2878   2.364   3.969   5.044
  979TIP3    H2 2879   2.415   4.053   4.928
  980TIP3   OH2 2880   2.616   1.264   1.741
  980TIP3    H1 2881   2.541   1.244   1.686
  980TIP3    H2 2882   2.691   1.256   1.682
  981TIP3   OH2 2883   6.965   6.530   5.007
  981TIP3    H1 2884   6.944   6.516   5.100
  981TIP3    H2 2885   6.921   6.612   4.985
  982TIP3   OH2 2886   2.037   4.696   5.871
  982TIP3    H1 2887   2.000   4.779   5.901
  982TIP3    H2 2888   1.995   4.680   5.787
  983TIP3   OH2 2889   2.827   2.999   4.169
  983TIP3    H1 2890   2.854   3.083   4.133
  983TIP3    H2 2891   2.806   3.017   4.260
  984TIP3   OH2 2892   3.311   6.894   0.715
  984TIP3    H1 2893   3.374   6.859   0.778
  984TIP3    H2 2894   3.228   6.856   0.741
  985TIP3   OH2 2895   3.670   1.646   5.342
  985TIP3    H1 2896   3.622   1.674   5.264
  985TIP3    H2 2897   3.756   1.687   5.333
  986TIP3   OH2 2898   4.905   4.203   4.382
  986TIP3    H1 2899   4.954   4.125   4.409
  986TIP3    H2 2900   4.962   4.247   4.319
  987TIP3   OH2 2901   7.160   3.021   5.883
  987TIP3    H1 2902   7.196   3.080   5.948
  987TIP3    H2 2903   7.087   3.069   5.844
  988TIP3   OH2 2904   6.225   7.314   6.077
  988TIP3    H1 2905   6.229   7.361   6.160
  988TIP3    H2 2906   6.137   7.277   6.074
  989TIP3   OH2 2907   7.371   2.159   2.011
  989TIP3    H1 2908   7.440   2.093   2.008
  989TIP3    H2 2909   7.348   2.174   1.919
  990TIP3   OH2 2910   3.199   1.660   6.072
  990TIP3    H1 2911   3.293   1.643   6.076
  990TIP3    H2 2912   3.184   1.731   6.135
  991TIP3   OH2 2913   3.535   6.689   4.578
  991TIP3    H1 2914   3.543   6.778   4.613
  991TIP3    H2 2915   3.460   6.651   4.625
  992TIP3   OH2 2916   1.282   6.975   6.331
  992TIP3    H1 2917   1.259   6.883   6.319
  992TIP3    H2 2918   1.377   6.974   6.343
  993TIP3   OH2 2919   4.395   2.700   3.109
  993TIP3    H1 2920   4.485   2.728   3.090
  993TIP3    H2 2921   4.358   2.678   3.023
  994TIP3   OH2 2922   7.869   7.710   5.809
  994TIP3    H1 2923   7.815   7.673   5.879
  994TIP3    H2 2924   7.945   7.747   5.854
  995TIP3   OH2 2925   4.265   5.230   1.901
  995TIP3    H1 2926   4.191   5.258   1.956
  995TIP3    H2 2927   4.317   5.173   1.957
  996TIP3   OH2 2928   5.836   6.335   3.528
  996TIP3    H1 2929   5.852   6.273   3.457
  996TIP3    H2 2930   5.758   6.384   3.501
  997TIP3   OH2 2931   1.358   3.765   0.316
  997TIP3    H1 2932   1.436   3.801   0.359
  997TIP3    H2 2933   1.345   3.821   0.240
  998TIP3   OH2 2934   5.370   1.867   3.305
  998TIP3    H1 2935   5.305   1.800   3.328
  998TIP3    H2 2936   5.432   1.822   3.248
  999TIP3   OH2 2937   6.932   6.055   6.086
  999TIP3    H1 2938   6.953   6.132   6.139
  999TIP3    H2 2939   6.926   6.088   5.996
 1000TIP3   OH2 2940   6.423   5.971   3.350
 1000TIP3    H1 2941   6.428   6.008   3.439
 1000TIP3    H2 2942   6.388   5.883   3.362
 1001TIP3   OH2 2943   2.037   2.450   3.447
 1001TIP3    H1 2944   2.128   2.479   3.453
 1001TIP3    H2 2945   1.986   2.531   3.445
 1002TIP3   OH2 2946   4.740   1.129   6.776
 1002TIP3    H1 2947   4.680   1.185   6.726
 1002TIP3    H2 2948   4.798   1.191   6.821
 1003TIP3   OH2 2949   2.995   3.807   1.938
 1003TIP3    H1 2950   2.938   3.864   1.887
 1003TIP3    H2 2951   2.943   3.729   1.956
 1004TIP3   OH2 2952   4.089   1.746   3.975
 1004TIP3    H1 2953   4.071   1.744   4.069
 1004TIP3    H2 2954   4.147   1.820   3.962
 1005TIP3   OH2 2955   1.108   4.429   3.010
 1005TIP3    H1 2956   1.187   4.389   3.047
 1005TIP3    H2 2957   1.129   4.522   3.003
 1006TIP3   OH2 2958   1.180   1.052   1.732
 1006TIP3    H1 2959   1.123   0.976   1.726
 1006TIP3    H2 2960   1.143   1.104   1.803
 1007TIP3   OH2 2961   4.678   3.852   1.860
 1007TIP3    H1 2962   4.661   3.910   1.786
 1007TIP3    H2 2963   4.666   3.907   1.938
 1008TIP3   OH2 2964   0.141   3.157  -0.012
 1008TIP3    H1 2965   0.114   3.203   0.067
 1008TIP3    H2 2966   0.229   3.189  -0.031
 1009TIP3   OH2 2967   5.074   5.988   4.673
 1009TIP3    H1 2968   5.130   5.976   4.750
 1009TIP3    H2 2969   5.095   5.913   4.616
 1010TIP3   OH2 2970   3.675   6.974   3.826
 1010TIP3    H1 2971   3.711   7.003   3.742
 1010TIP3    H2 2972   3.720   6.892   3.844
 1011TIP3   OH2 2973   3.887   3.525   2.282
 1011TIP3    H1 2974   3.796   3.521   2.312
 1011TIP3    H2 2975   3.935   3.474   2.347
 1012TIP3   OH2 2976   5.592   6.937   4.457
 1012TIP3    H1 2977   5.660   7.004   4.462
 1012TIP3    H2 2978   5.636   6.855   4.483
 1013TIP3   OH2 2979   6.231   1.132   3.200
 1013TIP3    H1 2980   6.313   1.111   3.244
 1013TIP3    H2 2981   6.256   1.193   3.131
 1014TIP3   OH2 2982   1.713   7.886   5.113
 1014TIP3    H1 2983   1.687   7.968   5.154
 1014TIP3    H2 2984   1.746   7.911   5.026
 1015TIP3   OH2 2985   2.076   4.296   5.344
 1015TIP3    H1 2986   2.034   4.333   5.422
 1015TIP3    H2 2987   2.147   4.357   5.324
 1016TIP3   OH2 2988   0.829   4.872   3.189
 1016TIP3    H1 2989   0.882   4.900   3.115
 1016TIP3    H2 2990   0.862   4.786   3.213
 1017TIP3   OH2 2991   7.178   0.928   5.303
 1017TIP3    H1 2992   7.188   1.005   5.359
 1017TIP3    H2 2993   7.233   0.946   5.227
 1018TIP3   OH2 2994   3.706   1.893   4.624
 1018TIP3    H1 2995   3.792   1.867   4.591
 1018TIP3    H2 2996   3.720   1.909   4.718
 1019TIP3   OH2 2997   7.910   3.444   2.560
 1019TIP3    H1 2998   7.936   3.362   2.601
 1019TIP3    H2 2999   7.849   3.419   2.491
 1020TIP3   OH2 3000   2.593   0.636   3.179
 1020TIP3    H1 3001   2.543   0.718   3.182
 1020TIP3    H2 3002   2.564   0.593   3.099
 1021TIP3   OH2 3003   3.893   6.931   6.765
 1021TIP3    H1 3004   3.912   6.861   6.828
 1021TIP3    H2 3005   3.969   6.990   6.771
 1022TIP3   OH2 3006   5.737   1.772   1.350
 1022TIP3    H1 3007   5.756   1.860   1.316
 1022TIP3    H2 3008   5.819   1.744   1.389
 1023TIP3   OH2 3009   0.037   3.804   0.712
 1023TIP3    H1 3010   0.051   3.852   0.794
 1023TIP3    H2 3011  -0.058   3.790   0.708
 1024TIP3   OH2 3012   5.711   4.966   6.532
 1024TIP3    H1 3013   5.698   5.005   6.445
 1024TIP3    H2 3014   5.640   5.001   6.585
 1025TIP3   OH2 3015   6.181   5.468   4.048
 1025TIP3    H1 3016   6.169   5.519   4.128
 1025TIP3    H2 3017   6.098   5.421   4.036
 1026TIP3   OH2 3018   7.235   6.372   1.371
 1026TIP3    H1 3019   7.304   6.359   1.437
 1026TIP3    H2 3020   7.205   6.284   1.350
 1027TIP3   OH2 3021   7.303   5.556   2.976
 1027TIP3    H1 3022   7.321   5.641   2.935
 1027TIP3    H2 3023   7.215   5.533   2.946
 1028TIP3   OH2 3024   5.110   1.039   0.355
 1028TIP3    H1 3025   5.154   1.107   0.406
 1028TIP3    H2 3026   5.180   0.983   0.323
 1029TIP3   OH2 3027   3.050   1.389   2.627
 1029TIP3    H1 3028   3.016   1.324   2.688
 1029TIP3    H2 3029   3.065   1.340   2.546
 1030TIP3   OH2 3030   1.060   5.339   3.554
 1030TIP3    H1 3031   1.088   5.423   3.517
 1030TIP3    H2 3032   0.976   5.359   3.596
 1031TIP3   OH2 3033   0.710   2.082   2.793
 1031TIP3    H1 3034   0.619   2.109   2.805
 1031TIP3    H2 3035   0.706   1.988   2.774
 1032TIP3   OH2 3036   2.247   4.443   6.308
 1032TIP3    H1 3037   2.215   4.478   6.224
 1032TIP3    H2 3038   2.239   4.348   6.299
 1033TIP3   OH2 3039   0.619   2.210   0.648
 1033TIP3    H1 3040   0.535   2.212   0.693
 1033TIP3    H2 3041   0.602   2.161   0.567
 1034TIP3   OH2 3042   8.021   3.489   1.133
 1034TIP3    H1 3043   8.103   3.496   1.083
 1034TIP3    H2 3044   7.980   3.409   1.099
 1035TIP3   OH2 3045   1.821   1.306   1.310
 1035TIP3    H1 3046   1.885   1.351   1.255
 1035TIP3    H2 3047   1.853   1.217   1.318
 1036TIP3   OH2 3048   7.592   1.923   5.871
 1036TIP3    H1 3049   7.592   1.913   5.776
 1036TIP3    H2 3050   7.584   1.834   5.905
 1037TIP3   OH2 3051   6.185   1.667   3.316
 1037TIP3    H1 3052   6.234   1.614   3.379
 1037TIP3    H2 3053   6.219   1.756   3.328
 1038TIP3   OH2 3054   6.815   1.403   6.640
 1038TIP3    H1 3055   6.891   1.449   6.605
 1038TIP3    H2 3056   6.773   1.467   6.697
 1039TIP3   OH2 3057   8.017   3.773   2.487
 1039TIP3    H1 3058   7.987   3.777   2.578
 1039TIP3    H2 3059   7.973   3.695   2.451
 1040TIP3   OH2 3060   4.117   5.104   3.413
 1040TIP3    H1 3061   4.211   5.087   3.407
 1040TIP3    H2 3062   4.101   5.171   3.347
 1041TIP3   OH2 3063   1.771   6.176   0.173
 1041TIP3    H1 3064   1.807   6.098   0.216
 1041TIP3    H2 3065   1.847   6.227   0.146
 1042TIP3   OH2 3066   5.802   5.579   3.114
 1042TIP3    H1 3067   5.764   5.491   3.113
 1042TIP3    H2 3068   5.768   5.619   3.194
 1043TIP3   OH2 3069   3.605   5.338   0.867
 1043TIP3    H1 3070   3.658   5.280   0.812
 1043TIP3    H2 3071   3.664   5.365   0.937
 1044TIP3   OH2 3072   8.404   1.236   4.014
 1044TIP3    H1 3073   8.337   1.173   3.989
 1044TIP3    H2 3074   8.473   1.183   4.053
 1045TIP3   OH2 3075   5.591   1.640   4.100
 1045TIP3    H1 3076   5.564   1.685   4.020
 1045TIP3    H2 3077   5.513   1.591   4.127
 1046TIP3   OH2 3078   5.072   0.409   3.416
 1046TIP3    H1 3079   5.124   0.331   3.396
 1046TIP3    H2 3080   5.114   0.446   3.493
 1047TIP3   OH2 3081   1.523   0.401   2.371
 1047TIP3    H1 3082   1.505   0.322   2.422
 1047TIP3    H2 3083   1.479   0.471   2.420
 1048TIP3   OH2 3084   2.342   5.635   4.066
 1048TIP3    H1 3085   2.429   5.596   4.058
 1048TIP3    H2 3086   2.356   5.727   4.045
 1049TIP3   OH2 3087   4.116   6.329   1.817
 1049TIP3    H1 3088   4.129   6.416   1.855
 1049TIP3    H2 3089   4.026   6.331   1.784
 1050TIP3   OH2 3090   3.131   1.255   0.392
 1050TIP3    H1 3091   3.171   1.305   0.464
 1050TIP3    H2 3092   3.077   1.318   0.346
 1051TIP3   OH2 3093   8.121   4.698   2.356
 1051TIP3    H1 3094   8.121   4.706   2.451
 1051TIP3    H2 3095   8.205   4.734   2.328
 1052TIP3   OH2 3096   1.419   4.991   2.653
 1052TIP3    H1 3097   1.362   5.015   2.579
 1052TIP3    H2 3098   1.468   5.071   2.672
 1053TIP3   OH2 3099   2.113   0.399   5.578
 1053TIP3    H1 3100   2.049   0.441   5.637
 1053TIP3    H2 3101   2.059   0.350   5.516
 1054TIP3   OH2 3102   4.499   3.866   1.065
 1054TIP3    H1 3103   4.421   3.894   1.017
 1054TIP3    H2 3104   4.479   3.776   1.093
 1055TIP3   OH2 3105   3.359   0.713   1.365
 1055TIP3    H1 3106   3.340   0.792   1.314
 1055TIP3    H2 3107   3.431   0.739   1.422
 1056TIP3   OH2 3108   8.173   4.194   3.309
 1056TIP3    H1 3109   8.239   4.132   3.339
 1056TIP3    H2 3110   8.109   4.140   3.261
 1057TIP3   OH2 3111   6.865   2.428   4.050
 1057TIP3    H1 3112   6.844   2.392   3.964
 1057TIP3    H2 3113   6.791   2.485   4.070
 1058TIP3   OH2 3114   4.823   1.483   1.820
 1058TIP3    H1 3115   4.872   1.402   1.812
 1058TIP3    H2 3116   4.858   1.525   1.899
 1059TIP3   OH2 3117   5.292   2.359   4.093
 1059TIP3    H1 3118   5.232   2.291   4.125
 1059TIP3    H2 3119   5.362   2.310   4.049
 1060TIP3   OH2 3120   1.413   5.259   6.438
 1060TIP3    H1 3121   1.347   5.291   6.499
 1060TIP3    H2 3122   1.463   5.195   6.488
 1061TIP3   OH2 3123   1.312   4.228   1.562
 1061TIP3    H1 3124   1.315   4.300   1.625
 1061TIP3    H2 3125   1.234   4.178   1.587
 1062TIP3   OH2 3126   6.216   7.049   0.328
 1062TIP3    H1 3127   6.207   7.122   0.266
 1062TIP3    H2 3128   6.262   7.087   0.402
 1063TIP3   OH2 3129   2.651   6.590   5.605
 1063TIP3    H1 3130   2.706   6.533   5.551
 1063TIP3    H2 3131   2.567   6.544   5.610
 1064TIP3   OH2 3132   4.944   7.444   2.338
 1064TIP3    H1 3133   5.035   7.453   2.313
 1064TIP3    H2 3134   4.946   7.401   2.424
 1065TIP3   OH2 3135   6.518   2.558   6.022
 1065TIP3    H1 3136   6.499   2.466   6.038
 1065TIP3    H2 3137   6.456   2.584   5.954
 1066TIP3   OH2 3138   1.771   3.279   2.832
 1066TIP3    H1 3139   1.837   3.342   2.802
 1066TIP3    H2 3140   1.738   3.316   2.914
 1067TIP3   OH2 3141   6.965   1.476   0.223
 1067TIP3    H1 3142   6.904   1.407   0.250
 1067TIP3    H2 3143   7.014   1.497   0.303
 1068TIP3   OH2 3144   1.269   1.105   5.760
 1068TIP3    H1 3145   1.239   1.158   5.834
 1068TIP3    H2 3146   1.190   1.089   5.708
 1069TIP3   OH2 3147   6.563   6.163   0.969
 1069TIP3    H1 3148   6.479   6.173   0.924
 1069TIP3    H2 3149   6.624   6.218   0.920
 1070TIP3   OH2 3150   2.159   4.807   1.664
 1070TIP3    H1 3151   2.148   4.850   1.579
 1070TIP3    H2 3152   2.253   4.817   1.683
 1071TIP3   OH2 3153   6.823   3.248   4.113
 1071TIP3    H1 3154   6.735   3.226   4.084
 1071TIP3    H2 3155   6.815   3.260   4.208
 1072TIP3   OH2 3156   1.064   3.810   4.614
 1072TIP3    H1 3157   1.034   3.750   4.545
 1072TIP3    H2 3158   0.995   3.806   4.681
 1073TIP3   OH2 3159   3.434   2.812   5.080
 1073TIP3    H1 3160   3.419   2.764   4.999
 1073TIP3    H2 3161   3.394   2.898   5.065
 1074TIP3   OH2 3162   3.887   5.023   2.749
 1074TIP3    H1 3163   3.981   5.035   2.736
 1074TIP3    H2 3164   3.880   4.961   2.821
 1075TIP3   OH2 3165   0.442   1.837   2.626
 1075TIP3    H1 3166   0.447   1.763   2.686
 1075TIP3    H2 3167   0.500   1.814   2.554
 1076TIP3   OH2 3168   1.088   4.655   2.151
 1076TIP3    H1 3169   1.041   4.679   2.071
 1076TIP3    H2 3170   1.022   4.611   2.205
 1077TIP3   OH2 3171   1.784   5.174   1.536
 1077TIP3    H1 3172   1.823   5.087   1.523
 1077TIP3    H2 3173   1.711   5.177   1.473
 1078TIP3   OH2 3174   5.636   4.015   2.796
 1078TIP3    H1 3175   5.674   4.005   2.709
 1078TIP3    H2 3176   5.706   4.053   2.849
 1079TIP3   OH2 3177   1.297   7.106   6.081
 1079TIP3    H1 3178   1.292   7.054   6.162
 1079TIP3    H2 3179   1.382   7.084   6.043
 1080TIP3   OH2 3180   8.153   1.291   0.460
 1080TIP3    H1 3181   8.186   1.216   0.508
 1080TIP3    H2 3182   8.201   1.290   0.377
 1081TIP3   OH2 3183   4.328   5.188   6.507
 1081TIP3    H1 3184   4.248   5.140   6.531
 1081TIP3    H2 3185   4.298   5.255   6.445
 1082TIP3   OH2 3186   1.414   3.567   5.332
 1082TIP3    H1 3187   1.379   3.484   5.364
 1082TIP3    H2 3188   1.508   3.552   5.322
 1083TIP3   OH2 3189   7.370   1.772   5.700
 1083TIP3    H1 3190   7.298   1.749   5.641
 1083TIP3    H2 3191   7.430   1.823   5.645
 1084TIP3   OH2 3192   5.371   1.185   1.761
 1084TIP3    H1 3193   5.346   1.274   1.788
 1084TIP3    H2 3194   5.329   1.129   1.826
 1085TIP3   OH2 3195   4.323   1.164   5.598
 1085TIP3    H1 3196   4.395   1.223   5.574
 1085TIP3    H2 3197   4.303   1.117   5.518
 1086TIP3   OH2 3198   7.266   3.632   3.177
 1086TIP3    H1 3199   7.172   3.628   3.192
 1086TIP3    H2 3200   7.277   3.601   3.087
 1087TIP3   OH2 3201   6.461   6.113   3.127
 1087TIP3    H1 3202   6.448   6.061   3.206
 1087TIP3    H2 3203   6.497   6.052   3.063
 1088TIP3   OH2 3204   2.611   4.041   1.648
 1088TIP3    H1 3205   2.618   4.013   1.557
 1088TIP3    H2 3206   2.593   4.135   1.642
 1089TIP3   OH2 3207   8.070   5.512   4.743
 1089TIP3    H1 3208   8.124   5.589   4.724
 1089TIP3    H2 3209   7.980   5.543   4.734
 1090TIP3   OH2 3210   2.970   5.380   5.275
 1090TIP3    H1 3211   3.038   5.434   5.235
 1090TIP3    H2 3212   2.891   5.402   5.226
 1091TIP3   OH2 3213   4.943   2.925   0.256
 1091TIP3    H1 3214   4.916   3.001   0.204
 1091TIP3    H2 3215   4.971   2.861   0.191
 1092TIP3   OH2 3216   0.483   3.015   1.089
 1092TIP3    H1 3217   0.538   3.028   1.167
 1092TIP3    H2 3218   0.524   2.941   1.043
 1093TIP3   OH2 3219   5.719   2.135   4.071
 1093TIP3    H1 3220   5.697   2.156   4.162
 1093TIP3    H2 3221   5.683   2.207   4.020
 1094TIP3   OH2 3222   2.902   6.042   0.837
 1094TIP3    H1 3223   2.814   6.077   0.847
 1094TIP3    H2 3224   2.896   5.951   0.868
 1095TIP3   OH2 3225   8.337   0.972   5.772
 1095TIP3    H1 3226   8.349   1.025   5.850
 1095TIP3    H2 3227   8.400   0.901   5.781
 1096TIP3   OH2 3228   3.178   6.354   0.016
 1096TIP3    H1 3229   3.263   6.331  -0.021
 1096TIP3    H2 3230   3.191   6.442   0.052
 1097TIP3   OH2 3231   5.901   5.805   6.249
 1097TIP3    H1 3232   5.971   5.838   6.191
 1097TIP3    H2 3233   5.841   5.879   6.258
 1098TIP3   OH2 3234   5.890   3.300   1.640
 1098TIP3    H1 3235   5.869   3.377   1.587
 1098TIP3    H2 3236   5.930   3.336   1.720
 1099TIP3   OH2 3237   1.501   0.681   3.245
 1099TIP3    H1 3238   1.428   0.654   3.300
 1099TIP3    H2 3239   1.577   0.678   3.302
 1100TIP3   OH2 3240   1.960   1.240   3.002
 1100TIP3    H1 3241   1.948   1.188   3.082
 1100TIP3    H2 3242   1.986   1.175   2.936
 1101TIP3   OH2 3243   6.330   5.899   0.782
 1101TIP3    H1 3244   6.274   5.858   0.716
 1101TIP3    H2 3245   6.408   5.844   0.785
 1102TIP3   OH2 3246   1.445   5.378   3.869
 1102TIP3    H1 3247   1.489   5.300   3.902
 1102TIP3    H2 3248   1.365   5.345   3.829
 1103TIP3   OH2 3249   2.585   2.920   6.032
 1103TIP3    H1 3250   2.653   2.895   5.970
 1103TIP3    H2 3251   2.629   2.920   6.117
 1104TIP3   OH2 3252   4.657   5.045   3.543
 1104TIP3    H1 3253   4.661   5.058   3.637
 1104TIP3    H2 3254   4.744   5.070   3.512
 1105TIP3   OH2 3255   1.407   1.720   3.558
 1105TIP3    H1 3256   1.312   1.719   3.566
 1105TIP3    H2 3257   1.427   1.646   3.501
 1106TIP3   OH2 3258   3.543   4.945   3.588
 1106TIP3    H1 3259   3.550   5.031   3.546
 1106TIP3    H2 3260   3.471   4.901   3.543
 1107TIP3   OH2 3261   6.814   0.282   3.587
 1107TIP3    H1 3262   6.773   0.244   3.665
 1107TIP3    H2 3263   6.815   0.210   3.523
 1108TIP3   OH2 3264   3.656   3.230   5.927
 1108TIP3    H1 3265   3.666   3.324   5.940
 1108TIP3    H2 3266   3.676   3.216   5.834
 1109TIP3   OH2 3267   2.517   2.058   0.931
 1109TIP3    H1 3268   2.477   2.092   0.852
 1109TIP3    H2 3269   2.592   2.115   0.947
 1110TIP3   OH2 3270   4.570   3.257   5.661
 1110TIP3    H1 3271   4.632   3.330   5.666
 1110TIP3    H2 3272   4.484   3.298   5.668
 1111TIP3   OH2 3273   4.710   3.222   2.715
 1111TIP3    H1 3274   4.708   3.227   2.811
 1111TIP3    H2 3275   4.656   3.146   2.694
 1112TIP3   OH2 3276   7.726   7.613   6.047
 1112TIP3    H1 3277   7.667   7.645   5.978
 1112TIP3    H2 3278   7.674   7.548   6.094
 1113TIP3   OH2 3279   3.597   2.635   5.182
 1113TIP3    H1 3280   3.530   2.567   5.188
 1113TIP3    H2 3281   3.550   2.713   5.153
 1114TIP3   OH2 3282   4.023   3.037   6.442
 1114TIP3    H1 3283   4.012   2.975   6.515
 1114TIP3    H2 3284   4.012   2.983   6.364
 1115TIP3   OH2 3285   4.807   3.816   3.036
 1115TIP3    H1 3286   4.812   3.893   3.092
 1115TIP3    H2 3287   4.897   3.798   3.011
 1116TIP3   OH2 3288   5.990   5.725   1.372
 1116TIP3    H1 3289   5.956   5.795   1.317
 1116TIP3    H2 3290   5.959   5.644   1.331
 1117TIP3   OH2 3291   2.350   6.542   4.847
 1117TIP3    H1 3292   2.397   6.515   4.769
 1117TIP3    H2 3293   2.317   6.629   4.827
 1118TIP3   OH2 3294   5.142   2.557   1.708
 1118TIP3    H1 3295   5.137   2.605   1.625
 1118TIP3    H2 3296   5.233   2.528   1.713
 1119TIP3   OH2 3297   2.523   4.108   4.365
 1119TIP3    H1 3298   2.482   4.110   4.452
 1119TIP3    H2 3299   2.601   4.054   4.377
 1120TIP3   OH2 3300   2.830   7.236   6.453
 1120TIP3    H1 3301   2.909   7.284   6.429
 1120TIP3    H2 3302   2.811   7.181   6.378
 1121TIP3   OH2 3303   2.568   2.616   5.045
 1121TIP3    H1 3304   2.560   2.580   5.133
 1121TIP3    H2 3305   2.495   2.677   5.037
 1122TIP3   OH2 3306   5.665   0.631   1.529
 1122TIP3    H1 3307   5.630   0.562   1.585
 1122TIP3    H2 3308   5.760   0.618   1.531
 1123TIP3   OH2 3309   6.828   1.224   3.105
 1123TIP3    H1 3310   6.901   1.207   3.045
 1123TIP3    H2 3311   6.831   1.151   3.168
 1124TIP3   OH2 3312   0.154   7.531   6.562
 1124TIP3    H1 3313   0.158   7.439   6.590
 1124TIP3    H2 3314   0.119   7.577   6.638
 1125TIP3   OH2 3315   3.194   0.726   1.736
 1125TIP3    H1 3316   3.188   0.673   1.656
 1125TIP3    H2 3317   3.268   0.688   1.784
 1126TIP3   OH2 3318   3.304   4.735   4.495
 1126TIP3    H1 3319   3.381   4.769   4.449
 1126TIP3    H2 3320   3.283   4.653   4.451
 1127TIP3   OH2 3321   5.875   5.363   4.990
 1127TIP3    H1 3322   5.903   5.331   5.076
 1127TIP3    H2 3323   5.780   5.352   4.991
 1128TIP3   OH2 3324   4.315   4.506   1.964
 1128TIP3    H1 3325   4.386   4.446   1.943
 1128TIP3    H2 3326   4.277   4.472   2.046
 1129TIP3   OH2 3327   8.335   0.176   5.669
 1129TIP3    H1 3328   8.394   0.243   5.635
 1129TIP3    H2 3329   8.256   0.184   5.616
 1130TIP3   OH2 3330   7.507   5.877   1.472
 1130TIP3    H1 3331   7.451   5.881   1.549
 1130TIP3    H2 3332   7.588   5.838   1.503
 1131TIP3   OH2 3333   2.384   5.711   0.417
 1131TIP3    H1 3334   2.414   5.762   0.492
 1131TIP3    H2 3335   2.454   5.647   0.401
 1132TIP3   OH2 3336   1.890   2.637   2.131
 1132TIP3    H1 3337   1.837   2.717   2.132
 1132TIP3    H2 3338   1.941   2.643   2.050
 1133TIP3   OH2 3339   3.139  -0.038   1.591
 1133TIP3    H1 3340   3.156   0.054   1.571
 1133TIP3    H2 3341   3.056  -0.057   1.548
 1134TIP3   OH2 3342   4.928   2.022   4.542
 1134TIP3    H1 3343   4.933   1.927   4.532
 1134TIP3    H2 3344   4.919   2.036   4.636
 1135TIP3   OH2 3345   8.080   4.172   1.063
 1135TIP3    H1 3346   7.991   4.158   1.032
 1135TIP3    H2 3347   8.135   4.154   0.988
 1136TIP3   OH2 3348   0.010   5.964   0.763
 1136TIP3    H1 3349   0.092   6.010   0.784
 1136TIP3    H2 3350   0.031   5.910   0.687
 1137TIP3   OH2 3351   1.075   1.235   0.476
 1137TIP3    H1 3352   1.092   1.168   0.409
 1137TIP3    H2 3353   1.097   1.318   0.433
 1138TIP3   OH2 3354   3.408   2.690   4.136
 1138TIP3    H1 3355   3.369   2.659   4.218
 1138TIP3    H2 3356   3.502   2.684   4.150
 1139TIP3   OH2 3357   0.585   4.411   0.460
 1139TIP3    H1 3358   0.632   4.330   0.436
 1139TIP3    H2 3359   0.651   4.480   0.452
 1140TIP3   OH2 3360   4.870   2.515   4.047
 1140TIP3    H1 3361   4.804   2.447   4.057
 1140TIP3    H2 3362   4.821   2.597   4.042
 1141TIP3   OH2 3363   2.729   2.206   4.154
 1141TIP3    H1 3364   2.751   2.184   4.245
 1141TIP3    H2 3365   2.759   2.131   4.103
 1142TIP3   OH2 3366   4.879   6.918   0.727
 1142TIP3    H1 3367   4.794   6.938   0.766
 1142TIP3    H2 3368   4.880   6.967   0.645
 1143TIP3   OH2 3369   8.185   3.259   2.897
 1143TIP3    H1 3370   8.257   3.236   2.839
 1143TIP3    H2 3371   8.222   3.323   2.958
 1144TIP3   OH2 3372   4.393   5.133   0.952
 1144TIP3    H1 3373   4.477   5.156   0.912
 1144TIP3    H2 3374   4.347   5.086   0.882
 1145TIP3   OH2 3375   1.051   6.431   6.435
 1145TIP3    H1 3376   0.988   6.448   6.505
 1145TIP3    H2 3377   1.089   6.346   6.456
 1146TIP3   OH2 3378   6.401   4.897   0.743
 1146TIP3    H1 3379   6.353   4.974   0.772
 1146TIP3    H2 3380   6.393   4.898   0.647
 1147TIP3   OH2 3381   3.255   6.167   2.008
 1147TIP3    H1 3382   3.287   6.086   2.048
 1147TIP3    H2 3383   3.171   6.142   1.969
 1148TIP3   OH2 3384   1.195   2.944   6.505
 1148TIP3    H1 3385   1.195   2.854   6.537
 1148TIP3    H2 3386   1.169   2.937   6.413
 1149TIP3   OH2 3387   2.571   5.226   5.831
 1149TIP3    H1 3388   2.539   5.315   5.845
 1149TIP3    H2 3389   2.623   5.231   5.751
 1150TIP3   OH2 3390   5.836   4.729   3.517
 1150TIP3    H1 3391   5.830   4.813   3.562
 1150TIP3    H2 3392   5.862   4.751   3.428
 1151TIP3   OH2 3393   7.900   1.635   2.018
 1151TIP3    H1 3394   7.918   1.590   1.935
 1151TIP3    H2 3395   7.986   1.648   2.057
 1152TIP3   OH2 3396   0.592   4.810   4.663
 1152TIP3    H1 3397   0.515   4.857   4.696
 1152TIP3    H2 3398   0.638   4.781   4.742
 1153TIP3   OH2 3399   4.241   5.923   4.687
 1153TIP3    H1 3400   4.329   5.887   4.687
 1153TIP3    H2 3401   4.240   5.984   4.614
 1154TIP3   OH2 3402   0.797   6.930   5.531
 1154TIP3    H1 3403   0.810   6.990   5.457
 1154TIP3    H2 3404   0.780   6.988   5.605
 1155TIP3   OH2 3405   4.389   2.121   0.131
 1155TIP3    H1 3406   4.460   2.071   0.172
 1155TIP3    H2 3407   4.323   2.055   0.109
 1156TIP3   OH2 3408   5.952   2.383   6.250
 1156TIP3    H1 3409   6.023   2.420   6.302
 1156TIP3    H2 3410   5.875   2.434   6.276
 1157TIP3   OH2 3411   4.829   5.618   1.322
 1157TIP3    H1 3412   4.918   5.591   1.343
 1157TIP3    H2 3413   4.837   5.710   1.297
 1158TIP3   OH2 3414   2.679   0.063   6.761
 1158TIP3    H1 3415   2.614   0.057   6.692
 1158TIP3    H2 3416   2.640   0.123   6.825
 1159TIP3   OH2 3417   3.907   3.939   2.993
 1159TIP3    H1 3418   3.932   3.988   3.071
 1159TIP3    H2 3419   3.894   3.850   3.023
 1160TIP3   OH2 3420   6.222   3.318   5.635
 1160TIP3    H1 3421   6.227   3.413   5.644
 1160TIP3    H2 3422   6.164   3.304   5.560
 1161TIP3   OH2 3423   5.417   1.746   1.721
 1161TIP3    H1 3424   5.332   1.768   1.683
 1161TIP3    H2 3425   5.467   1.710   1.647
 1162TIP3   OH2 3426   5.965   3.764   2.901
 1162TIP3    H1 3427   5.883   3.739   2.858
 1162TIP3    H2 3428   5.980   3.697   2.967
 1163TIP3   OH2 3429   4.837   1.043   2.591
 1163TIP3    H1 3430   4.886   0.963   2.610
 1163TIP3    H2 3431   4.757   1.012   2.548
 1164TIP3   OH2 3432   7.165   3.825   6.129
 1164TIP3    H1 3433   7.256   3.803   6.110
 1164TIP3    H2 3434   7.142   3.770   6.205
 1165TIP3   OH2 3435   3.956   4.089   3.246
 1165TIP3    H1 3436   3.892   4.064   3.313
 1165TIP3    H2 3437   4.038   4.102   3.294
 1166TIP3   OH2 3438   1.133   5.046   3.482
 1166TIP3    H1 3439   1.223   5.013   3.480
 1166TIP3    H2 3440   1.140   5.133   3.520
 1167TIP3   OH2 3441   6.697   3.297   1.896
 1167TIP3    H1 3442   6.721   3.266   1.809
 1167TIP3    H2 3443   6.778   3.294   1.947
 1168TIP3   OH2 3444   2.526   4.477   2.790
 1168TIP3    H1 3445   2.483   4.518   2.865
 1168TIP3    H2 3446   2.475   4.506   2.714
 1169TIP3   OH2 3447   2.686   0.180   5.821
 1169TIP3    H1 3448   2.669   0.230   5.901
 1169TIP3    H2 3449   2.764   0.128   5.841
 1170TIP3   OH2 3450   7.750   1.215   0.788
 1170TIP3    H1 3451   7.803   1.222   0.708
 1170TIP3    H2 3452   7.670   1.170   0.760
 1171TIP3   OH2 3453   8.342   7.243   2.162
 1171TIP3    H1 3454   8.420   7.187   2.169
 1171TIP3    H2 3455   8.274   7.196   2.210
 1172TIP3   OH2 3456   1.238   1.499   2.780
 1172TIP3    H1 3457   1.150   1.502   2.742
 1172TIP3    H2 3458   1.224   1.472   2.871
 1173TIP3   OH2 3459   2.031   3.277   5.111
 1173TIP3    H1 3460   2.061   3.229   5.189
 1173TIP3    H2 3461   1.976   3.215   5.064
 1174TIP3   OH2 3462   2.735   7.684   0.458
 1174TIP3    H1 3463   2.796   7.751   0.490
 1174TIP3    H2 3464   2.750   7.682   0.363
 1175TIP3   OH2 3465   4.986   1.397   4.330
 1175TIP3    H1 3466   4.935   1.363   4.257
 1175TIP3    H2 3467   5.047   1.326   4.352
 1176TIP3   OH2 3468   2.888   4.220   0.808
 1176TIP3    H1 3469   2.943   4.207   0.731
 1176TIP3    H2 3470   2.820   4.153   0.800
 1177TIP3   OH2 3471   8.272   4.404   3.069
 1177TIP3    H1 3472   8.218   4.370   3.141
 1177TIP3    H2 3473   8.360   4.373   3.088
 1178TIP3   OH2 3474   0.182   0.977   2.111
 1178TIP3    H1 3475   0.233   1.007   2.036
 1178TIP3    H2 3476   0.170   0.883   2.096
 1179TIP3   OH2 3477   6.358   2.790   6.747
 1179TIP3    H1 3478   6.437   2.751   6.708
 1179TIP3    H2 3479   6.375   2.884   6.746
 1180TIP3   OH2 3480   7.496   2.406   2.645
 1180TIP3    H1 3481   7.549   2.417   2.724
 1180TIP3    H2 3482   7.519   2.481   2.591
 1181TIP3   OH2 3483   4.668   4.835   6.087
 1181TIP3    H1 3484   4.635   4.905   6.031
 1181TIP3    H2 3485   4.763   4.850   6.091
 1182TIP3   OH2 3486   6.213   2.525   6.563
 1182TIP3    H1 3487   6.211   2.613   6.603
 1182TIP3    H2 3488   6.267   2.536   6.485
 1183TIP3   OH2 3489   5.913   4.282   1.470
 1183TIP3    H1 3490   5.897   4.375   1.451
 1183TIP3    H2 3491   5.995   4.282   1.519
 1184TIP3   OH2 3492   3.081   2.504   0.374
 1184TIP3    H1 3493   3.003   2.458   0.345
 1184TIP3    H2 3494   3.072   2.509   0.469
 1185TIP3   OH2 3495   6.927   4.440   3.879
 1185TIP3    H1 3496   6.966   4.389   3.950
 1185TIP3    H2 3497   6.983   4.421   3.803
 1186TIP3   OH2 3498   5.336  -0.005   5.297
 1186TIP3    H1 3499   5.329  -0.016   5.392
 1186TIP3    H2 3500   5.265   0.056   5.275
 1187TIP3   OH2 3501   4.422  -0.014   3.895
 1187TIP3    H1 3502   4.365  -0.009   3.972
 1187TIP3    H2 3503   4.440   0.078   3.873
 1188TIP3   OH2 3504   3.059   4.861   3.398
 1188TIP3    H1 3505   3.026   4.779   3.436
 1188TIP3    H2 3506   3.071   4.919   3.473
 1189TIP3   OH2 3507   3.668   3.771   6.405
 1189TIP3    H1 3508   3.598   3.719   6.366
 1189TIP3    H2 3509   3.664   3.749   6.498
 1190TIP3   OH2 3510   3.711   6.532   6.554
 1190TIP3    H1 3511   3.787   6.478   6.578
 1190TIP3    H2 3512   3.696   6.587   6.631
 1191TIP3   OH2 3513   6.523   1.750   6.539
 1191TIP3    H1 3514   6.565   1.667   6.517
 1191TIP3    H2 3515   6.556   1.771   6.626
 1192TIP3   OH2 3516   1.666   3.604   2.192
 1192TIP3    H1 3517   1.705   3.593   2.279
 1192TIP3    H2 3518   1.730   3.565   2.132
 1193TIP3   OH2 3519   4.847   2.823   5.905
 1193TIP3    H1 3520   4.784   2.893   5.888
 1193TIP3    H2 3521   4.806   2.745   5.868
 1194TIP3   OH2 3522   0.746   7.839   5.823
 1194TIP3    H1 3523   0.828   7.882   5.847
 1194TIP3    H2 3524   0.678   7.905   5.839
 1195TIP3   OH2 3525   3.623   4.544   2.028
 1195TIP3    H1 3526   3.534   4.572   2.050
 1195TIP3    H2 3527   3.653   4.496   2.105
 1196TIP3   OH2 3528   2.832   5.539   2.543
 1196TIP3    H1 3529   2.803   5.451   2.566
 1196TIP3    H2 3530   2.805   5.594   2.617
 1197TIP3   OH2 3531   7.387   5.110   5.089
 1197TIP3    H1 3532   7.384   5.198   5.129
 1197TIP3    H2 3533   7.480   5.094   5.074
 1198TIP3   OH2 3534   2.295   2.887   4.106
 1198TIP3    H1 3535   2.391   2.893   4.099
 1198TIP3    H2 3536   2.271   2.956   4.168
 1199TIP3   OH2 3537   8.090   3.012   0.115
 1199TIP3    H1 3538   8.144   3.049   0.185
 1199TIP3    H2 3539   8.082   3.082   0.051
 1200TIP3   OH2 3540   5.292   5.049   1.067
 1200TIP3    H1 3541   5.371   5.103   1.064
 1200TIP3    H2 3542   5.261   5.047   0.976
 1201TIP3   OH2 3543   6.189   7.048   2.323
 1201TIP3    H1 3544   6.167   6.955   2.327
 1201TIP3    H2 3545   6.205   7.073   2.414
 1202TIP3   OH2 3546   1.944   1.309   0.110
 1202TIP3    H1 3547   1.965   1.295   0.018
 1202TIP3    H2 3548   2.029   1.317   0.153
 1203TIP3   OH2 3549   5.901   4.382   4.948
 1203TIP3    H1 3550   5.816   4.339   4.963
 1203TIP3    H2 3551   5.880   4.456   4.890
 1204TIP3   OH2 3552   5.164   4.378   5.382
 1204TIP3    H1 3553   5.236   4.426   5.423
 1204TIP3    H2 3554   5.191   4.286   5.386
 1205TIP3   OH2 3555   4.954   3.419   5.443
 1205TIP3    H1 3556   5.041   3.379   5.447
 1205TIP3    H2 3557   4.949   3.457   5.355
 1206TIP3   OH2 3558   8.004   7.252   6.197
 1206TIP3    H1 3559   8.008   7.276   6.289
 1206TIP3    H2 3560   8.096   7.248   6.170
 1207TIP3   OH2 3561   6.814   6.375   6.167
 1207TIP3    H1 3562   6.897   6.341   6.201
 1207TIP3    H2 3563   6.824   6.470   6.173
 1208TIP3   OH2 3564   4.716   2.955   0.472
 1208TIP3    H1 3565   4.789   2.969   0.531
 1208TIP3    H2 3566   4.750   2.977   0.385
 1209TIP3   OH2 3567   3.889   3.908   0.981
 1209TIP3    H1 3568   3.905   3.961   1.059
 1209TIP3    H2 3569   3.875   3.971   0.911
 1210TIP3   OH2 3570   6.198   0.386   4.565
 1210TIP3    H1 3571   6.149   0.304   4.562
 1210TIP3    H2 3572   6.132   0.454   4.580
 1211TIP3   OH2 3573   7.037   3.465   2.536
 1211TIP3    H1 3574   7.100   3.529   2.570
 1211TIP3    H2 3575   7.069   3.443   2.449
 1212TIP3   OH2 3576   8.202   0.004   5.277
 1212TIP3    H1 3577   8.161  -0.019   5.360
 1212TIP3    H2 3578   8.139  -0.025   5.210
 1213TIP3   OH2 3579   6.018   6.246   5.055
 1213TIP3    H1 3580   6.069   6.166   5.045
 1213TIP3    H2 3581   5.958   6.228   5.127
 1214TIP3   OH2 3582   1.949   0.033   6.158
 1214TIP3    H1 3583   1.914   0.100   6.099
 1214TIP3    H2 3584   2.039   0.020   6.128
 1215TIP3   OH2 3585   6.333   7.309   4.544
 1215TIP3    H1 3586   6.257   7.268   4.585
 1215TIP3    H2 3587   6.295   7.371   4.481
 1216TIP3   OH2 3588   2.254   4.861   3.295
 1216TIP3    H1 3589   2.313   4.794   3.261
 1216TIP3    H2 3590   2.305   4.907   3.361
 1217TIP3   OH2 3591   4.700   0.654   2.933
 1217TIP3    H1 3592   4.718   0.746   2.914
 1217TIP3    H2 3593   4.670   0.617   2.850
 1218TIP3   OH2 3594   0.013   5.257   6.061
 1218TIP3    H1 3595  -0.009   5.254   5.968
 1218TIP3    H2 3596   0.089   5.315   6.067
 1219TIP3   OH2 3597   7.459   6.212   5.508
 1219TIP3    H1 3598   7.486   6.138   5.455
 1219TIP3    H2 3599   7.414   6.271   5.447
 1220TIP3   OH2 3600   5.871   3.385   1.946
 1220TIP3    H1 3601   5.882   3.356   2.036
 1220TIP3    H2 3602   5.796   3.444   1.948
 1221TIP3   OH2 3603   6.778   3.123   0.014
 1221TIP3    H1 3604   6.808   3.159  -0.069
 1221TIP3    H2 3605   6.750   3.200   0.065
 1222TIP3   OH2 3606   2.633   6.826   2.884
 1222TIP3    H1 3607   2.566   6.888   2.913
 1222TIP3    H2 3608   2.701   6.831   2.951
 1223TIP3   OH2 3609   0.757   2.928   0.417
 1223TIP3    H1 3610   0.714   2.846   0.390
 1223TIP3    H2 3611   0.807   2.904   0.495
 1224TIP3   OH2 3612   2.134   5.194   4.691
 1224TIP3    H1 3613   2.185   5.189   4.610
 1224TIP3    H2 3614   2.065   5.258   4.672
 1225TIP3   OH2 3615   2.098   3.883   1.318
 1225TIP3    H1 3616   2.135   3.909   1.402
 1225TIP3    H2 3617   2.171   3.841   1.272
 1226TIP3   OH2 3618   2.145   2.031   1.479
 1226TIP3    H1 3619   2.060   2.071   1.465
 1226TIP3    H2 3620   2.193   2.093   1.534
 1227TIP3   OH2 3621   4.297   2.492   3.322
 1227TIP3    H1 3622   4.336   2.567   3.276
 1227TIP3    H2 3623   4.275   2.430   3.253
 1228TIP3   OH2 3624   4.632   5.101   2.953
 1228TIP3    H1 3625   4.668   5.013   2.944
 1228TIP3    H2 3626   4.643   5.140   2.866
 1229TIP3   OH2 3627   3.205   1.755   0.091
 1229TIP3    H1 3628   3.295   1.780   0.111
 1229TIP3    H2 3629   3.210   1.716   0.004
 1230TIP3   OH2 3630   3.624   2.495   4.567
 1230TIP3    H1 3631   3.579   2.432   4.511
 1230TIP3    H2 3632   3.594   2.581   4.538
 1231TIP3   OH2 3633   0.218   1.845   5.800
 1231TIP3    H1 3634   0.158   1.778   5.832
 1231TIP3    H2 3635   0.166   1.899   5.741
 1232TIP3   OH2 3636   8.104   4.371   5.904
 1232TIP3    H1 3637   8.187   4.332   5.875
 1232TIP3    H2 3638   8.072   4.419   5.828
 1233TIP3   OH2 3639   3.647   3.736   6.688
 1233TIP3    H1 3640   3.640   3.728   6.783
 1233TIP3    H2 3641   3.741   3.744   6.671
 1234TIP3   OH2 3642   0.612   0.503   1.274
 1234TIP3    H1 3643   0.544   0.561   1.309
 1234TIP3    H2 3644   0.691   0.556   1.277
 1235TIP3   OH2 3645   1.964   6.150   3.013
 1235TIP3    H1 3646   1.899   6.174   2.946
 1235TIP3    H2 3647   1.955   6.056   3.022
 1236TIP3   OH2 3648   7.078   2.352   5.734
 1236TIP3    H1 3649   6.985   2.369   5.748
 1236TIP3    H2 3650   7.105   2.302   5.811
 1237TIP3   OH2 3651   6.316   7.088   3.150
 1237TIP3    H1 3652   6.373   7.013   3.139
 1237TIP3    H2 3653   6.306   7.097   3.245
 1238TIP3   OH2 3654   7.651   1.423   0.463
 1238TIP3    H1 3655   7.737   1.389   0.489
 1238TIP3    H2 3656   7.663   1.518   0.462
 1239TIP3   OH2 3657   0.385   2.676   6.728
 1239TIP3    H1 3658   0.357   2.714   6.645
 1239TIP3    H2 3659   0.480   2.667   6.721
 1240TIP3   OH2 3660   6.100   5.150   5.907
 1240TIP3    H1 3661   6.143   5.185   5.829
 1240TIP3    H2 3662   6.085   5.227   5.963
 1241TIP3   OH2 3663   4.910   3.451   3.420
 1241TIP3    H1 3664   4.948   3.447   3.332
 1241TIP3    H2 3665   4.938   3.369   3.461
 1242TIP3   OH2 3666   7.408   7.159   1.391
 1242TIP3    H1 3667   7.471   7.231   1.400
 1242TIP3    H2 3668   7.347   7.170   1.463
 1243TIP3   OH2 3669   0.980   2.105   1.710
 1243TIP3    H1 3670   1.011   2.139   1.794
 1243TIP3    H2 3671   0.973   2.182   1.654
 1244TIP3   OH2 3672   8.386   1.965   2.688
 1244TIP3    H1 3673   8.338   1.997   2.764
 1244TIP3    H2 3674   8.320   1.923   2.633
 1245TIP3   OH2 3675   4.973   5.454   4.319
 1245TIP3    H1 3676   4.924   5.508   4.257
 1245TIP3    H2 3677   5.054   5.432   4.272
 1246TIP3   OH2 3678   8.316   0.442   5.400
 1246TIP3    H1 3679   8.397   0.469   5.444
 1246TIP3    H2 3680   8.260   0.520   5.403
 1247TIP3   OH2 3681   2.425   0.253   6.670
 1247TIP3    H1 3682   2.356   0.190   6.650
 1247TIP3    H2 3683   2.401   0.287   6.757
 1248TIP3   OH2 3684   5.463   0.801   6.194
 1248TIP3    H1 3685   5.531   0.778   6.130
 1248TIP3    H2 3686   5.382   0.769   6.155
 1249TIP3   OH2 3687   6.879   7.579   3.295
 1249TIP3    H1 3688   6.814   7.520   3.333
 1249TIP3    H2 3689   6.836   7.615   3.217
 1250TIP3   OH2 3690   1.657   2.722   3.591
 1250TIP3    H1 3691   1.613   2.807   3.595
 1250TIP3    H2 3692   1.750   2.743   3.593
 1251TIP3   OH2 3693   7.630   4.036   4.065
 1251TIP3    H1 3694   7.607   4.128   4.052
 1251TIP3    H2 3695   7.559   3.987   4.024
 1252TIP3   OH2 3696   0.290   5.451   2.085
 1252TIP3    H1 3697   0.385   5.456   2.093
 1252TIP3    H2 3698   0.265   5.530   2.036
 1253TIP3   OH2 3699   3.647   6.946   5.813
 1253TIP3    H1 3700   3.694   6.952   5.897
 1253TIP3    H2 3701   3.702   6.890   5.759
 1254TIP3   OH2 3702   7.549   4.308   3.960
 1254TIP3    H1 3703   7.555   4.387   3.907
 1254TIP3    H2 3704   7.594   4.330   4.042
 1255TIP3   OH2 3705   5.246   7.349   0.873
 1255TIP3    H1 3706   5.173   7.288   0.876
 1255TIP3    H2 3707   5.323   7.294   0.860
 1256TIP3   OH2 3708   1.251   7.255   5.216
 1256TIP3    H1 3709   1.303   7.334   5.232
 1256TIP3    H2 3710   1.284   7.191   5.279
 1257TIP3   OH2 3711   8.058   3.643   5.098
 1257TIP3    H1 3712   8.033   3.552   5.087
 1257TIP3    H2 3713   7.991   3.692   5.049
 1258TIP3   OH2 3714   4.225   6.123   4.214
 1258TIP3    H1 3715   4.226   6.191   4.147
 1258TIP3    H2 3716   4.238   6.041   4.165
 1259TIP3   OH2 3717   0.857   5.076   2.526
 1259TIP3    H1 3718   0.801   5.146   2.559
 1259TIP3    H2 3719   0.813   4.995   2.550
 1260TIP3   OH2 3720   8.126   0.393   1.738
 1260TIP3    H1 3721   8.213   0.414   1.773
 1260TIP3    H2 3722   8.129   0.299   1.720
 1261TIP3   OH2 3723   7.626   2.953   2.989
 1261TIP3    H1 3724   7.588   3.041   2.984
 1261TIP3    H2 3725   7.703   2.956   2.934
 1262TIP3   OH2 3726   7.690   3.678   4.827
 1262TIP3    H1 3727   7.705   3.585   4.840
 1262TIP3    H2 3728   7.772   3.719   4.854
 1263TIP3   OH2 3729   7.430   2.698   0.352
 1263TIP3    H1 3730   7.415   2.783   0.310
 1263TIP3    H2 3731   7.510   2.709   0.402
 1264TIP3   OH2 3732   0.599   3.393   4.082
 1264TIP3    H1 3733   0.578   3.439   4.001
 1264TIP3    H2 3734   0.514   3.362   4.114
 1265TIP3   OH2 3735   4.760   6.617   2.723
 1265TIP3    H1 3736   4.689   6.554   2.723
 1265TIP3    H2 3737   4.720   6.700   2.751
 1266TIP3   OH2 3738   1.667   5.012   4.800
 1266TIP3    H1 3739   1.580   4.972   4.793
 1266TIP3    H2 3740   1.721   4.963   4.737
 1267TIP3   OH2 3741   5.666   3.239   0.975
 1267TIP3    H1 3742   5.709   3.233   1.061
 1267TIP3    H2 3743   5.586   3.288   0.992
 1268TIP3   OH2 3744   4.136   2.950   0.939
 1268TIP3    H1 3745   4.206   3.016   0.938
 1268TIP3    H2 3746   4.181   2.868   0.959
 1269TIP3   OH2 3747   8.180   1.433   5.459
 1269TIP3    H1 3748   8.181   1.353   5.513
 1269TIP3    H2 3749   8.190   1.401   5.369
 1270TIP3   OH2 3750   4.844   1.928   1.631
 1270TIP3    H1 3751   4.916   1.960   1.576
 1270TIP3    H2 3752   4.869   1.953   1.720
 1271TIP3   OH2 3753   7.206   7.280   3.955
 1271TIP3    H1 3754   7.125   7.260   4.002
 1271TIP3    H2 3755   7.248   7.348   4.008
 1272TIP3   OH2 3756   3.812   2.226   4.563
 1272TIP3    H1 3757   3.824   2.165   4.491
 1272TIP3    H2 3758   3.803   2.311   4.522
 1273TIP3   OH2 3759   2.495   0.136   5.377
 1273TIP3    H1 3760   2.558   0.105   5.443
 1273TIP3    H2 3761   2.453   0.212   5.418
 1274TIP3   OH2 3762   3.015   2.601   3.828
 1274TIP3    H1 3763   3.107   2.621   3.845
 1274TIP3    H2 3764   2.967   2.671   3.871
 1275TIP3   OH2 3765   7.589   1.643   6.152
 1275TIP3    H1 3766   7.523   1.662   6.086
 1275TIP3    H2 3767   7.565   1.557   6.186
 1276TIP3   OH2 3768   3.782   6.506   1.833
 1276TIP3    H1 3769   3.699   6.486   1.789
 1276TIP3    H2 3770   3.849   6.486   1.767
 1277TIP3   OH2 3771   2.648   6.813   6.459
 1277TIP3    H1 3772   2.684   6.884   6.512
 1277TIP3    H2 3773   2.693   6.734   6.491
 1278TIP3   OH2 3774   4.219   4.951   4.015
 1278TIP3    H1 3775   4.274   4.946   4.093
 1278TIP3    H2 3776   4.276   4.925   3.943
 1279TIP3   OH2 3777   3.825   7.009   0.017
 1279TIP3    H1 3778   3.873   7.080  -0.024
 1279TIP3    H2 3779   3.776   7.051   0.088
 1280TIP3   OH2 3780   0.278   1.299   2.823
 1280TIP3    H1 3781   0.273   1.243   2.901
 1280TIP3    H2 3782   0.190   1.299   2.787
 1281TIP3   OH2 3783   5.275   1.472   0.326
 1281TIP3    H1 3784   5.182   1.485   0.307
 1281TIP3    H2 3785   5.319   1.539   0.273
 1282TIP3   OH2 3786   3.439   0.785   6.638
 1282TIP3    H1 3787   3.429   0.700   6.595
 1282TIP3    H2 3788   3.520   0.821   6.603
 1283TIP3   OH2 3789   2.652   0.056   2.440
 1283TIP3    H1 3790   2.603  -0.025   2.434
 1283TIP3    H2 3791   2.586   0.125   2.435
 1284TIP3   OH2 3792   0.890   4.128   1.799
 1284TIP3    H1 3793   0.909   4.220   1.816
 1284TIP3    H2 3794   0.952   4.080   1.856
 1285TIP3   OH2 3795   2.514   1.802   6.240
 1285TIP3    H1 3796   2.519   1.793   6.144
 1285TIP3    H2 3797   2.495   1.895   6.254
 1286TIP3   OH2 3798   2.650   2.525   3.362
 1286TIP3    H1 3799   2.677   2.589   3.296
 1286TIP3    H2 3800   2.630   2.446   3.313
 1287TIP3   OH2 3801   8.372   4.353   0.076
 1287TIP3    H1 3802   8.456   4.351   0.122
 1287TIP3    H2 3803   8.372   4.275   0.020
 1288TIP3   OH2 3804   4.051   4.928   4.604
 1288TIP3    H1 3805   3.961   4.939   4.636
 1288TIP3    H2 3806   4.074   4.838   4.626
 1289TIP3   OH2 3807   6.502   3.011   2.036
 1289TIP3    H1 3808   6.568   3.006   2.105
 1289TIP3    H2 3809   6.459   3.096   2.051
 1290TIP3   OH2 3810   5.732   4.332   0.785
 1290TIP3    H1 3811   5.818   4.346   0.825
 1290TIP3    H2 3812   5.744   4.357   0.694
 1291TIP3   OH2 3813   3.894   2.329   0.603
 1291TIP3    H1 3814   3.878   2.374   0.520
 1291TIP3    H2 3815   3.806   2.311   0.637
 1292TIP3   OH2 3816   7.845   5.096   5.931
 1292TIP3    H1 3817   7.796   5.068   6.008
 1292TIP3    H2 3818   7.850   5.191   5.938
 1293TIP3   OH2 3819   4.872   1.117   4.444
 1293TIP3    H1 3820   4.811   1.172   4.394
 1293TIP3    H2 3821   4.815   1.061   4.496
 1294TIP3   OH2 3822   5.426   4.357   2.306
 1294TIP3    H1 3823   5.396   4.448   2.306
 1294TIP3    H2 3824   5.485   4.352   2.381
 1295TIP3   OH2 3825   3.788   2.723   4.367
 1295TIP3    H1 3826   3.846   2.719   4.443
 1295TIP3    H2 3827   3.847   2.720   4.291
 1296TIP3   OH2 3828   6.934   2.443   0.505
 1296TIP3    H1 3829   6.939   2.538   0.494
 1296TIP3    H2 3830   6.894   2.430   0.591
 1297TIP3   OH2 3831   4.490   1.830   2.047
 1297TIP3    H1 3832   4.428   1.886   2.000
 1297TIP3    H2 3833   4.485   1.860   2.138
 1298TIP3   OH2 3834   6.616   4.142   4.902
 1298TIP3    H1 3835   6.658   4.226   4.888
 1298TIP3    H2 3836   6.558   4.157   4.977
 1299TIP3   OH2 3837   8.250   1.632   0.089
 1299TIP3    H1 3838   8.319   1.618   0.154
 1299TIP3    H2 3839   8.210   1.546   0.078
 1300TIP3   OH2 3840   7.742   0.836   2.650
 1300TIP3    H1 3841   7.717   0.880   2.569
 1300TIP3    H2 3842   7.755   0.907   2.713
 1301TIP3   OH2 3843   0.810   3.419   2.995
 1301TIP3    H1 3844   0.760   3.401   3.075
 1301TIP3    H2 3845   0.901   3.408   3.021
 1302TIP3   OH2 3846   5.303   4.035   4.649
 1302TIP3    H1 3847   5.371   4.031   4.582
 1302TIP3    H2 3848   5.323   4.116   4.698
 1303TIP3   OH2 3849   0.961   5.479   4.271
 1303TIP3    H1 3850   1.042   5.428   4.274
 1303TIP3    H2 3851   0.905   5.432   4.209
 1304TIP3   OH2 3852   0.764   0.779   3.180
 1304TIP3    H1 3853   0.754   0.769   3.085
 1304TIP3    H2 3854   0.674   0.779   3.214
 1305TIP3   OH2 3855   6.435   3.154   4.671
 1305TIP3    H1 3856   6.343   3.156   4.646
 1305TIP3    H2 3857   6.462   3.245   4.676
 1306TIP3   OH2 3858   0.916   3.314   5.822
 1306TIP3    H1 3859   0.825   3.327   5.795
 1306TIP3    H2 3860   0.947   3.242   5.767
 1307TIP3   OH2 3861   3.256   6.164   3.401
 1307TIP3    H1 3862   3.223   6.137   3.487
 1307TIP3    H2 3863   3.190   6.132   3.339
 1308TIP3   OH2 3864   7.216   4.105   3.085
 1308TIP3    H1 3865   7.244   4.020   3.120
 1308TIP3    H2 3866   7.120   4.099   3.085
 1309TIP3   OH2 3867   2.108   0.164   0.968
 1309TIP3    H1 3868   2.130   0.079   0.930
 1309TIP3    H2 3869   2.191   0.212   0.967
 1310TIP3   OH2 3870   2.738   1.270   2.362
 1310TIP3    H1 3871   2.737   1.315   2.447
 1310TIP3    H2 3872   2.761   1.338   2.299
 1311TIP3   OH2 3873   7.757   3.653   3.478
 1311TIP3    H1 3874   7.694   3.623   3.543
 1311TIP3    H2 3875   7.781   3.574   3.430
 1312TIP3   OH2 3876   7.559   6.280   1.129
 1312TIP3    H1 3877   7.477   6.255   1.086
 1312TIP3    H2 3878   7.543   6.367   1.164
 1313TIP3   OH2 3879   2.012   2.759   4.493
 1313TIP3    H1 3880   1.930   2.794   4.458
 1313TIP3    H2 3881   2.009   2.666   4.471
 1314TIP3   OH2 3882   3.967   4.253   5.265
 1314TIP3    H1 3883   3.981   4.345   5.241
 1314TIP3    H2 3884   4.034   4.205   5.216
 1315TIP3   OH2 3885   6.869   5.744   1.393
 1315TIP3    H1 3886   6.954   5.706   1.373
 1315TIP3    H2 3887   6.879   5.779   1.482
 1316TIP3   OH2 3888   0.126  -0.019   4.758
 1316TIP3    H1 3889   0.056   0.041   4.731
 1316TIP3    H2 3890   0.082  -0.104   4.768
 1317TIP3   OH2 3891   1.294   4.730   4.360
 1317TIP3    H1 3892   1.276   4.694   4.447
 1317TIP3    H2 3893   1.289   4.825   4.373
 1318TIP3   OH2 3894   5.733   0.273   1.263
 1318TIP3    H1 3895   5.766   0.210   1.198
 1318TIP3    H2 3896   5.748   0.359   1.224
 1319TIP3   OH2 3897   1.481   3.140   5.243
 1319TIP3    H1 3898   1.481   3.056   5.288
 1319TIP3    H2 3899   1.455   3.120   5.153
 1320TIP3   OH2 3900   1.868   1.906   2.070
 1320TIP3    H1 3901   1.871   1.833   2.133
 1320TIP3    H2 3902   1.959   1.930   2.056
 1321TIP3   OH2 3903   6.418   7.261   5.444
 1321TIP3    H1 3904   6.409   7.292   5.354
 1321TIP3    H2 3905   6.388   7.170   5.440
 1322TIP3   OH2 3906   7.321   7.087   4.890
 1322TIP3    H1 3907   7.399   7.073   4.944
 1322TIP3    H2 3908   7.336   7.031   4.813
 1323TIP3   OH2 3909   0.018   0.612   1.642
 1323TIP3    H1 3910  -0.043   0.543   1.616
 1323TIP3    H2 3911   0.037   0.595   1.734
 1324TIP3   OH2 3912   4.397   3.735   5.031
 1324TIP3    H1 3913   4.413   3.674   5.104
 1324TIP3    H2 3914   4.391   3.678   4.954
 1325TIP3   OH2 3915   4.648   4.846   3.368
 1325TIP3    H1 3916   4.702   4.909   3.321
 1325TIP3    H2 3917   4.634   4.884   3.454
 1326TIP3   OH2 3918   6.049   2.405   0.585
 1326TIP3    H1 3919   5.960   2.441   0.588
 1326TIP3    H2 3920   6.096   2.451   0.655
 1327TIP3   OH2 3921   0.294   6.981   4.331
 1327TIP3    H1 3922   0.373   6.982   4.386
 1327TIP3    H2 3923   0.235   6.920   4.375
 1328TIP3   OH2 3924   6.504   6.396   4.645
 1328TIP3    H1 3925   6.586   6.409   4.693
 1328TIP3    H2 3926   6.436   6.400   4.712
 1329TIP3   OH2 3927   5.465   2.557   6.004
 1329TIP3    H1 3928   5.540   2.608   6.035
 1329TIP3    H2 3929   5.410   2.545   6.082
 1330TIP3   OH2 3930   4.524   2.198   5.729
 1330TIP3    H1 3931   4.531   2.105   5.752
 1330TIP3    H2 3932   4.464   2.234   5.794
 1331TIP3   OH2 3933   4.581   7.589   5.876
 1331TIP3    H1 3934   4.676   7.601   5.876
 1331TIP3    H2 3935   4.560   7.559   5.965
 1332TIP3   OH2 3936   2.877   7.145   2.550
 1332TIP3    H1 3937   2.802   7.088   2.568
 1332TIP3    H2 3938   2.843   7.234   2.565
 1333TIP3   OH2 3939   6.289   5.930   3.975
 1333TIP3    H1 3940   6.333   6.008   4.008
 1333TIP3    H2 3941   6.271   5.877   4.053
 1334TIP3   OH2 3942   3.166   3.260   0.523
 1334TIP3    H1 3943   3.184   3.217   0.439
 1334TIP3    H2 3944   3.247   3.305   0.545
 1335TIP3   OH2 3945   6.420   1.124   2.531
 1335TIP3    H1 3946   6.360   1.197   2.545
 1335TIP3    H2 3947   6.437   1.123   2.437
 1336TIP3   OH2 3948   3.179   6.279   1.064
 1336TIP3    H1 3949   3.213   6.342   1.129
 1336TIP3    H2 3950   3.163   6.332   0.986
 1337TIP3   OH2 3951   3.858   6.680   4.254
 1337TIP3    H1 3952   3.908   6.600   4.268
 1337TIP3    H2 3953   3.904   6.746   4.307
 1338TIP3   OH2 3954   5.312   7.863   5.526
 1338TIP3    H1 3955   5.237   7.904   5.569
 1338TIP3    H2 3956   5.373   7.843   5.597
 1339TIP3   OH2 3957   0.973   0.477   4.082
 1339TIP3    H1 3958   1.034   0.513   4.147
 1339TIP3    H2 3959   0.892   0.526   4.096
 1340TIP3   OH2 3960   8.053   3.799   2.978
 1340TIP3    H1 3961   7.975   3.841   2.941
 1340TIP3    H2 3962   8.085   3.742   2.908
 1341TIP3   OH2 3963   6.835   7.489   2.145
 1341TIP3    H1 3964   6.873   7.402   2.131
 1341TIP3    H2 3965   6.743   7.479   2.119
 1342TIP3   OH2 3966   1.860   7.514   5.351
 1342TIP3    H1 3967   1.932   7.452   5.341
 1342TIP3    H2 3968   1.824   7.496   5.438
 1343TIP3   OH2 3969   6.656   0.377   5.995
 1343TIP3    H1 3970   6.589   0.399   5.932
 1343TIP3    H2 3971   6.658   0.281   5.997
 1344TIP3   OH2 3972   3.325   6.977   1.679
 1344TIP3    H1 3973   3.320   6.926   1.760
 1344TIP3    H2 3974   3.306   6.914   1.610
 1345TIP3   OH2 3975   3.968   7.050   4.401
 1345TIP3    H1 3976   3.970   7.039   4.496
 1345TIP3    H2 3977   4.012   6.972   4.367
 1346TIP3   OH2 3978   1.231   2.436   5.161
 1346TIP3    H1 3979   1.193   2.492   5.228
 1346TIP3    H2 3980   1.186   2.462   5.080
 1347TIP3   OH2 3981   6.730   4.666   0.904
 1347TIP3    H1 3982   6.816   4.660   0.863
 1347TIP3    H2 3983   6.723   4.587   0.958
 1348TIP3   OH2 3984   6.168   1.172   2.820
 1348TIP3    H1 3985   6.075   1.185   2.804
 1348TIP3    H2 3986   6.177   1.077   2.835
 1349TIP3   OH2 3987   5.265   5.772   1.899
 1349TIP3    H1 3988   5.324   5.807   1.832
 1349TIP3    H2 3989   5.319   5.764   1.977
 1350TIP3   OH2 3990   6.786   3.525   4.592
 1350TIP3    H1 3991   6.846   3.481   4.652
 1350TIP3    H2 3992   6.836   3.601   4.561
 1351TIP3   OH2 3993   6.948   0.231   4.241
 1351TIP3    H1 3994   6.984   0.153   4.199
 1351TIP3    H2 3995   6.888   0.267   4.176
 1352TIP3   OH2 3996   0.602   0.752   4.478
 1352TIP3    H1 3997   0.636   0.684   4.537
 1352TIP3    H2 3998   0.677   0.810   4.463
 1353TIP3   OH2 3999   8.071   0.011   2.170
 1353TIP3    H1 4000   8.133   0.034   2.239
 1353TIP3    H2 4001   7.986   0.006   2.214
 1354TIP3   OH2 4002   7.255   7.072   5.207
 1354TIP3    H1 4003   7.269   7.131   5.280
 1354TIP3    H2 4004   7.250   7.128   5.130
 1355TIP3   OH2 4005   3.020   5.095   3.629
 1355TIP3    H1 4006   3.027   5.009   3.671
 1355TIP3    H2 4007   3.072   5.153   3.685
 1356TIP3   OH2 4008   4.638   1.269   2.032
 1356TIP3    H1 4009   4.603   1.349   1.992
 1356TIP3    H2 4010   4.723   1.295   2.066
 1357TIP3   OH2 4011   1.094   2.770   5.082
 1357TIP3    H1 4012   1.017   2.783   5.027
 1357TIP3    H2 4013   1.164   2.817   5.037
 1358TIP3   OH2 4014   0.931   6.005   5.939
 1358TIP3    H1 4015   0.959   5.918   5.968
 1358TIP3    H2 4016   1.012   6.054   5.927
 1359TIP3   OH2 4017   4.291   4.451   0.398
 1359TIP3    H1 4018   4.292   4.422   0.489
 1359TIP3    H2 4019   4.363   4.403   0.357
 1360TIP3   OH2 4020   3.683   0.808   6.472
 1360TIP3    H1 4021   3.667   0.811   6.377
 1360TIP3    H2 4022   3.761   0.752   6.481
 1361TIP3   OH2 4023   4.546   5.424   1.749
 1361TIP3    H1 4024   4.461   5.393   1.717
 1361TIP3    H2 4025   4.610   5.386   1.687
 1362TIP3   OH2 4026   3.200   2.617   6.099
 1362TIP3    H1 4027   3.289   2.613   6.133
 1362TIP3    H2 4028   3.153   2.674   6.160
 1363TIP3   OH2 4029   1.447   3.772   4.491
 1363TIP3    H1 4030   1.467   3.726   4.572
 1363TIP3    H2 4031   1.480   3.714   4.422
 1364TIP3   OH2 4032   7.357   6.278   4.132
 1364TIP3    H1 4033   7.395   6.299   4.217
 1364TIP3    H2 4034   7.425   6.231   4.085
 1365TIP3   OH2 4035   3.757   4.297   5.455
 1365TIP3    H1 4036   3.784   4.381   5.490
 1365TIP3    H2 4037   3.832   4.268   5.401
 1366TIP3   OH2 4038   2.482   5.805   4.376
 1366TIP3    H1 4039   2.565   5.757   4.376
 1366TIP3    H2 4040   2.435   5.772   4.452
 1367TIP3   OH2 4041   3.977   2.039   5.500
 1367TIP3    H1 4042   3.921   2.010   5.571
 1367TIP3    H2 4043   3.974   2.135   5.505
 1368TIP3   OH2 4044   8.079   0.900   4.119
 1368TIP3    H1 4045   8.075   0.929   4.210
 1368TIP3    H2 4046   8.106   0.808   4.124
 1369TIP3   OH2 4047   7.896   0.401   0.676
 1369TIP3    H1 4048   7.843   0.466   0.722
 1369TIP3    H2 4049   7.987   0.425   0.696
 1370TIP3   OH2 4050   4.766   4.086   3.122
 1370TIP3    H1 4051   4.855   4.108   3.095
 1370TIP3    H2 4052   4.770   4.082   3.218
 1371TIP3   OH2 4053   0.274   7.705   0.016
 1371TIP3    H1 4054   0.274   7.797   0.043
 1371TIP3    H2 4055   0.269   7.657   0.099
 1372TIP3   OH2 4056   3.914   0.528   2.732
 1372TIP3    H1 4057   3.996   0.575   2.748
 1372TIP3    H2 4058   3.903   0.471   2.808
 1373TIP3   OH2 4059   4.275   6.701   2.043
 1373TIP3    H1 4060   4.325   6.624   2.016
 1373TIP3    H2 4061   4.333   6.746   2.105
 1374TIP3   OH2 4062   5.270   2.293   4.567
 1374TIP3    H1 4063   5.353   2.297   4.519
 1374TIP3    H2 4064   5.296   2.289   4.660
 1375TIP3   OH2 4065   5.991   2.596   4.778
 1375TIP3    H1 4066   5.948   2.631   4.700
 1375TIP3    H2 4067   5.991   2.501   4.765
 1376TIP3   OH2 4068   3.774   6.357   2.741
 1376TIP3    H1 4069   3.710   6.425   2.719
 1376TIP3    H2 4070   3.773   6.354   2.837
 1377TIP3   OH2 4071   7.994   6.476   5.003
 1377TIP3    H1 4072   8.019   6.465   4.911
 1377TIP3    H2 4073   7.899   6.484   5.001
 1378TIP3   OH2 4074   0.065   3.691   2.409
 1378TIP3    H1 4075   0.013   3.611   2.401
 1378TIP3    H2 4076   0.089   3.696   2.502
 1379TIP3   OH2 4077   0.675   5.143   6.211
 1379TIP3    H1 4078   0.673   5.047   6.216
 1379TIP3    H2 4079   0.700   5.170   6.299
 1380TIP3   OH2 4080   3.062   4.850   2.535
 1380TIP3    H1 4081   3.148   4.808   2.544
 1380TIP3    H2 4082   3.038   4.834   2.444
 1381TIP3   OH2 4083   1.121   6.566   3.054
 1381TIP3    H1 4084   1.197   6.512   3.075
 1381TIP3    H2 4085   1.092   6.535   2.968
 1382TIP3   OH2 4086   1.189   2.766   4.136
 1382TIP3    H1 4087   1.236   2.765   4.052
 1382TIP3    H2 4088   1.207   2.853   4.172
 1383TIP3   OH2 4089   6.314   7.194   1.161
 1383TIP3    H1 4090   6.366   7.165   1.236
 1383TIP3    H2 4091   6.233   7.227   1.200
 1384TIP3   OH2 4092   6.942   4.615   3.284
 1384TIP3    H1 4093   6.894   4.542   3.246
 1384TIP3    H2 4094   6.967   4.670   3.210
 1385TIP3   OH2 4095   3.398   2.898   6.273
 1385TIP3    H1 4096   3.367   2.930   6.188
 1385TIP3    H2 4097   3.328   2.919   6.334
 1386TIP3   OH2 4098   7.151   0.388   3.819
 1386TIP3    H1 4099   7.111   0.344   3.894
 1386TIP3    H2 4100   7.228   0.432   3.855
 1387TIP3   OH2 4101   3.102   4.850   0.353
 1387TIP3    H1 4102   3.008   4.837   0.339
 1387TIP3    H2 4103   3.125   4.924   0.298
 1388TIP3   OH2 4104   3.078   7.623   0.266
 1388TIP3    H1 4105   3.094   7.531   0.242
 1388TIP3    H2 4106   3.004   7.650   0.212
 1389TIP3   OH2 4107   5.581   7.681   4.706
 1389TIP3    H1 4108   5.511   7.616   4.699
 1389TIP3    H2 4109   5.623   7.682   4.620
 1390TIP3   OH2 4110   2.289   6.484   2.302
 1390TIP3    H1 4111   2.245   6.458   2.220
 1390TIP3    H2 4112   2.352   6.551   2.275
 1391TIP3   OH2 4113   1.453   6.802   0.150
 1391TIP3    H1 4114   1.411   6.764   0.227
 1391TIP3    H2 4115   1.547   6.790   0.166
 1392TIP3   OH2 4116   1.827   7.767   0.495
 1392TIP3    H1 4117   1.897   7.780   0.432
 1392TIP3    H2 4118   1.753   7.816   0.460
 1393TIP3   OH2 4119   6.493   5.034   2.754
 1393TIP3    H1 4120   6.500   5.113   2.808
 1393TIP3    H2 4121   6.462   5.065   2.669
 1394TIP3   OH2 4122   3.528   4.364   6.607
 1394TIP3    H1 4123   3.479   4.445   6.591
 1394TIP3    H2 4124   3.538   4.326   6.520
 1395TIP3   OH2 4125   3.594   0.608   3.870
 1395TIP3    H1 4126   3.542   0.539   3.829
 1395TIP3    H2 4127   3.560   0.689   3.830
 1396TIP3   OH2 4128   7.289   1.763   1.532
 1396TIP3    H1 4129   7.229   1.818   1.482
 1396TIP3    H2 4130   7.342   1.825   1.582
 1397TIP3   OH2 4131   4.896   0.095   5.063
 1397TIP3    H1 4132   4.821   0.150   5.083
 1397TIP3    H2 4133   4.897   0.090   4.967
 1398TIP3   OH2 4134   2.824   7.053   6.247
 1398TIP3    H1 4135   2.846   7.010   6.164
 1398TIP3    H2 4136   2.869   7.002   6.313
 1399TIP3   OH2 4137   7.005   1.667   2.785
 1399TIP3    H1 4138   6.975   1.676   2.875
 1399TIP3    H2 4139   6.981   1.751   2.744
 1400TIP3   OH2 4140   1.982   4.110   0.464
 1400TIP3    H1 4141   2.064   4.106   0.415
 1400TIP3    H2 4142   1.992   4.183   0.524
 1401TIP3   OH2 4143   4.119   2.037   1.618
 1401TIP3    H1 4144   4.142   1.959   1.568
 1401TIP3    H2 4145   4.104   2.104   1.552
 1402TIP3   OH2 4146   6.781   7.670   3.052
 1402TIP3    H1 4147   6.795   7.634   2.965
 1402TIP3    H2 4148   6.765   7.763   3.037
 1403TIP3   OH2 4149   7.771   2.581   0.634
 1403TIP3    H1 4150   7.690   2.547   0.672
 1403TIP3    H2 4151   7.841   2.532   0.677
 1404TIP3   OH2 4152   5.179   7.273   2.775
 1404TIP3    H1 4153   5.222   7.189   2.792
 1404TIP3    H2 4154   5.138   7.263   2.690
 1405TIP3   OH2 4155   1.261   7.899   5.467
 1405TIP3    H1 4156   1.184   7.950   5.491
 1405TIP3    H2 4157   1.262   7.900   5.371
 1406TIP3   OH2 4158   2.315   6.800   6.293
 1406TIP3    H1 4159   2.391   6.859   6.286
 1406TIP3    H2 4160   2.242   6.852   6.261
 1407TIP3   OH2 4161   1.392   4.292   0.692
 1407TIP3    H1 4162   1.447   4.293   0.770
 1407TIP3    H2 4163   1.375   4.199   0.677
 1408TIP3   OH2 4164   7.427   2.129   1.471
 1408TIP3    H1 4165   7.465   2.055   1.424
 1408TIP3    H2 4166   7.501   2.188   1.486
 1409TIP3   OH2 4167   0.302   4.925   4.658
 1409TIP3    H1 4168   0.277   5.007   4.615
 1409TIP3    H2 4169   0.280   4.938   4.750
 1410TIP3   OH2 4170   3.100   2.369   5.979
 1410TIP3    H1 4171   3.039   2.333   6.044
 1410TIP3    H2 4172   3.129   2.452   6.017
 1411TIP3   OH2 4173   2.336   3.607   1.341
 1411TIP3    H1 4174   2.358   3.689   1.296
 1411TIP3    H2 4175   2.241   3.600   1.333
 1412TIP3   OH2 4176   3.259   6.867   5.191
 1412TIP3    H1 4177   3.196   6.920   5.141
 1412TIP3    H2 4178   3.343   6.880   5.146
 1413TIP3   OH2 4179   3.722   1.393   0.513
 1413TIP3    H1 4180   3.747   1.362   0.600
 1413TIP3    H2 4181   3.627   1.405   0.517
 1414TIP3   OH2 4182   6.703   6.705   2.872
 1414TIP3    H1 4183   6.747   6.622   2.891
 1414TIP3    H2 4184   6.743   6.768   2.931
 1415TIP3   OH2 4185   4.235   1.903   6.076
 1415TIP3    H1 4186   4.278   1.830   6.121
 1415TIP3    H2 4187   4.301   1.973   6.075
 1416TIP3   OH2 4188   4.722   1.648   5.828
 1416TIP3    H1 4189   4.804   1.671   5.784
 1416TIP3    H2 4190   4.725   1.696   5.911
 1417TIP3   OH2 4191   2.472   6.456   1.089
 1417TIP3    H1 4192   2.426   6.537   1.064
 1417TIP3    H2 4193   2.402   6.392   1.101
 1418TIP3   OH2 4194   7.477   5.075   0.959
 1418TIP3    H1 4195   7.514   5.032   1.036
 1418TIP3    H2 4196   7.492   5.168   0.975
 1419TIP3   OH2 4197   5.118   2.733   1.502
 1419TIP3    H1 4198   5.170   2.741   1.422
 1419TIP3    H2 4199   5.031   2.765   1.477
 1420TIP3   OH2 4200   2.485   7.599   6.173
 1420TIP3    H1 4201   2.425   7.640   6.236
 1420TIP3    H2 4202   2.437   7.599   6.090
 1421TIP3   OH2 4203   8.138   0.116   1.657
 1421TIP3    H1 4204   8.098   0.064   1.727
 1421TIP3    H2 4205   8.202   0.057   1.617
 1422TIP3   OH2 4206   2.309   1.740   6.631
 1422TIP3    H1 4207   2.340   1.662   6.677
 1422TIP3    H2 4208   2.306   1.714   6.539
 1423TIP3   OH2 4209   4.906   5.834   4.908
 1423TIP3    H1 4210   4.978   5.884   4.947
 1423TIP3    H2 4211   4.831   5.854   4.963
 1424TIP3   OH2 4212   5.401   7.831   1.141
 1424TIP3    H1 4213   5.311   7.829   1.174
 1424TIP3    H2 4214   5.424   7.924   1.141
 1425TIP3   OH2 4215   1.244   6.558   3.662
 1425TIP3    H1 4216   1.184   6.609   3.608
 1425TIP3    H2 4217   1.192   6.484   3.693
 1426TIP3   OH2 4218   5.646   1.083   0.832
 1426TIP3    H1 4219   5.652   1.173   0.863
 1426TIP3    H2 4220   5.730   1.067   0.789
 1427TIP3   OH2 4221   5.178   1.790   1.576
 1427TIP3    H1 4222   5.212   1.796   1.487
 1427TIP3    H2 4223   5.091   1.751   1.566
 1428TIP3   OH2 4224   3.569   1.242   5.260
 1428TIP3    H1 4225   3.650   1.279   5.295
 1428TIP3    H2 4226   3.558   1.284   5.174
 1429TIP3   OH2 4227   3.469   1.543   0.139
 1429TIP3    H1 4228   3.469   1.598   0.060
 1429TIP3    H2 4229   3.531   1.473   0.120
 1430TIP3   OH2 4230   2.792   5.977   5.808
 1430TIP3    H1 4231   2.712   6.009   5.850
 1430TIP3    H2 4232   2.794   5.883   5.828
 1431TIP3   OH2 4233   5.167   6.957   0.022
 1431TIP3    H1 4234   5.100   7.017  -0.011
 1431TIP3    H2 4235   5.207   7.003   0.095
 1432TIP3   OH2 4236   7.790   1.773   2.796
 1432TIP3    H1 4237   7.799   1.848   2.854
 1432TIP3    H2 4238   7.781   1.810   2.709
 1433TIP3   OH2 4239   5.911   6.418   0.338
 1433TIP3    H1 4240   5.942   6.430   0.248
 1433TIP3    H2 4241   5.818   6.397   0.329
 1434TIP3   OH2 4242   3.234   2.252   2.918
 1434TIP3    H1 4243   3.164   2.188   2.910
 1434TIP3    H2 4244   3.314   2.204   2.899
 1435TIP3   OH2 4245   0.177   5.450   4.483
 1435TIP3    H1 4246   0.256   5.487   4.524
 1435TIP3    H2 4247   0.108   5.466   4.547
 1436TIP3   OH2 4248   4.383   7.869   2.919
 1436TIP3    H1 4249   4.424   7.937   2.972
 1436TIP3    H2 4250   4.405   7.787   2.964
 1437TIP3   OH2 4251   7.675   2.882   3.653
 1437TIP3    H1 4252   7.704   2.969   3.625
 1437TIP3    H2 4253   7.686   2.827   3.576
 1438TIP3   OH2 4254   8.201   6.021   4.520
 1438TIP3    H1 4255   8.170   5.969   4.594
 1438TIP3    H2 4256   8.292   6.043   4.541
 1439TIP3   OH2 4257   0.292   3.102   2.651
 1439TIP3    H1 4258   0.247   3.118   2.734
 1439TIP3    H2 4259   0.368   3.160   2.653
 1440TIP3   OH2 4260   7.432   1.062   1.010
 1440TIP3    H1 4261   7.473   0.998   1.069
 1440TIP3    H2 4262   7.484   1.141   1.023
 1441TIP3   OH2 4263   7.247   2.709   5.007
 1441TIP3    H1 4264   7.317   2.697   4.942
 1441TIP3    H2 4265   7.258   2.799   5.037
 1442TIP3   OH2 4266   2.898   7.658   1.281
 1442TIP3    H1 4267   2.876   7.711   1.205
 1442TIP3    H2 4268   2.860   7.705   1.355
 1443TIP3   OH2 4269   6.650   0.921   5.670
 1443TIP3    H1 4270   6.730   0.888   5.630
 1443TIP3    H2 4271   6.627   0.998   5.618
 1444TIP3   OH2 4272   3.496   0.576   1.156
 1444TIP3    H1 4273   3.457   0.493   1.126
 1444TIP3    H2 4274   3.436   0.608   1.223
 1445TIP3   OH2 4275   2.548   4.287   0.396
 1445TIP3    H1 4276   2.466   4.252   0.361
 1445TIP3    H2 4277   2.532   4.298   0.490
 1446TIP3   OH2 4278   3.222   6.937   1.963
 1446TIP3    H1 4279   3.205   7.022   1.922
 1446TIP3    H2 4280   3.160   6.932   2.035
 1447TIP3   OH2 4281   0.781   6.448   2.921
 1447TIP3    H1 4282   0.803   6.486   3.006
 1447TIP3    H2 4283   0.811   6.357   2.927
 1448TIP3   OH2 4284   4.519   7.399   3.155
 1448TIP3    H1 4285   4.578   7.393   3.230
 1448TIP3    H2 4286   4.493   7.309   3.138
 1449TIP3   OH2 4287   4.736   7.374   5.384
 1449TIP3    H1 4288   4.771   7.370   5.295
 1449TIP3    H2 4289   4.793   7.436   5.430
 1450TIP3   OH2 4290   1.381   0.935   5.257
 1450TIP3    H1 4291   1.423   1.003   5.204
 1450TIP3    H2 4292   1.400   0.961   5.348
 1451TIP3   OH2 4293   5.118   2.516   3.240
 1451TIP3    H1 4294   5.100   2.471   3.158
 1451TIP3    H2 4295   5.039   2.502   3.292
 1452TIP3   OH2 4296   7.961   7.011   5.955
 1452TIP3    H1 4297   7.933   6.981   6.041
 1452TIP3    H2 4298   7.935   7.103   5.951
 1453TIP3   OH2 4299   7.229   2.191   5.072
 1453TIP3    H1 4300   7.223   2.281   5.104
 1453TIP3    H2 4301   7.320   2.166   5.087
 1454TIP3   OH2 4302   2.369   3.164   0.388
 1454TIP3    H1 4303   2.294   3.172   0.447
 1454TIP3    H2 4304   2.444   3.191   0.440
 1455TIP3   OH2 4305   1.567   3.853   5.093
 1455TIP3    H1 4306   1.643   3.804   5.124
 1455TIP3    H2 4307   1.494   3.792   5.102
 1456TIP3   OH2 4308   3.630   2.286   1.071
 1456TIP3    H1 4309   3.670   2.360   1.118
 1456TIP3    H2 4310   3.599   2.229   1.141
 1457TIP3   OH2 4311   7.400   6.224   4.489
 1457TIP3    H1 4312   7.438   6.293   4.433
 1457TIP3    H2 4313   7.334   6.269   4.541
 1458TIP3   OH2 4314   1.392   0.461   4.680
 1458TIP3    H1 4315   1.397   0.461   4.775
 1458TIP3    H2 4316   1.300   0.443   4.660
 1459TIP3   OH2 4317   7.061   6.480   2.813
 1459TIP3    H1 4318   6.982   6.438   2.848
 1459TIP3    H2 4319   7.132   6.449   2.869
 1460TIP3   OH2 4320   1.954   7.539   0.580
 1460TIP3    H1 4321   1.999   7.560   0.663
 1460TIP3    H2 4322   1.896   7.613   0.565
 1461TIP3   OH2 4323   5.722   4.981   2.215
 1461TIP3    H1 4324   5.629   4.999   2.225
 1461TIP3    H2 4325   5.741   5.003   2.124
 1462TIP3   OH2 4326   8.031   2.613   2.096
 1462TIP3    H1 4327   8.038   2.600   2.001
 1462TIP3    H2 4328   8.058   2.704   2.109
 1463TIP3   OH2 4329   2.436   5.336   6.146
 1463TIP3    H1 4330   2.412   5.309   6.235
 1463TIP3    H2 4331   2.353   5.358   6.104
 1464TIP3   OH2 4332   2.182   7.587   2.473
 1464TIP3    H1 4333   2.090   7.595   2.498
 1464TIP3    H2 4334   2.196   7.657   2.409
 1465TIP3   OH2 4335   0.063   5.922   5.534
 1465TIP3    H1 4336   0.036   6.011   5.512
 1465TIP3    H2 4337   0.159   5.923   5.528
 1466TIP3   OH2 4338   5.997   1.962   5.059
 1466TIP3    H1 4339   5.928   1.928   5.002
 1466TIP3    H2 4340   6.027   2.042   5.016
 1467TIP3   OH2 4341   2.459   5.910   0.699
 1467TIP3    H1 4342   2.516   5.852   0.749
 1467TIP3    H2 4343   2.428   5.974   0.764
 1468TIP3   OH2 4344   7.014   1.505   2.256
 1468TIP3    H1 4345   7.072   1.430   2.245
 1468TIP3    H2 4346   6.982   1.498   2.346
 1469TIP3   OH2 4347   5.285   1.585   5.703
 1469TIP3    H1 4348   5.354   1.552   5.760
 1469TIP3    H2 4349   5.307   1.552   5.616
 1470TIP3   OH2 4350   7.096   4.098   0.531
 1470TIP3    H1 4351   7.020   4.155   0.542
 1470TIP3    H2 4352   7.068   4.033   0.466
 1471TIP3   OH2 4353   3.854   2.921   5.044
 1471TIP3    H1 4354   3.935   2.894   4.999
 1471TIP3    H2 4355   3.882   2.994   5.100
 1472TIP3   OH2 4356   8.274   6.749   2.569
 1472TIP3    H1 4357   8.352   6.719   2.521
 1472TIP3    H2 4358   8.309   6.804   2.639
 1473TIP3   OH2 4359   6.366   1.736   0.051
 1473TIP3    H1 4360   6.377   1.641   0.043
 1473TIP3    H2 4361   6.275   1.752   0.026
 1474TIP3   OH2 4362   4.942   7.538   1.238
 1474TIP3    H1 4363   4.977   7.459   1.280
 1474TIP3    H2 4364   5.005   7.559   1.169
 1475TIP3   OH2 4365   6.048   0.102   0.946
 1475TIP3    H1 4366   6.058   0.143   0.860
 1475TIP3    H2 4367   6.092   0.161   1.006
 1476TIP3   OH2 4368   3.109   0.719   4.514
 1476TIP3    H1 4369   3.141   0.771   4.440
 1476TIP3    H2 4370   3.187   0.678   4.550
 1477TIP3   OH2 4371   7.285   5.127   3.986
 1477TIP3    H1 4372   7.351   5.153   3.923
 1477TIP3    H2 4373   7.293   5.191   4.057
 1478TIP3   OH2 4374   1.497   1.528   2.139
 1478TIP3    H1 4375   1.410   1.511   2.176
 1478TIP3    H2 4376   1.551   1.550   2.215
 1479TIP3   OH2 4377   4.648   2.709   2.945
 1479TIP3    H1 4378   4.625   2.717   2.852
 1479TIP3    H2 4379   4.671   2.617   2.957
 1480TIP3   OH2 4380   5.377   7.684   1.741
 1480TIP3    H1 4381   5.322   7.607   1.759
 1480TIP3    H2 4382   5.353   7.747   1.809
 1481TIP3   OH2 4383   1.770   2.519   5.648
 1481TIP3    H1 4384   1.799   2.505   5.559
 1481TIP3    H2 4385   1.745   2.611   5.651
 1482TIP3   OH2 4386   1.105   7.120   1.886
 1482TIP3    H1 4387   1.062   7.051   1.834
 1482TIP3    H2 4388   1.127   7.077   1.969
 1483TIP3   OH2 4389   5.969   3.370   3.944
 1483TIP3    H1 4390   5.977   3.397   3.852
 1483TIP3    H2 4391   6.044   3.411   3.987
 1484TIP3   OH2 4392   1.419   6.537   2.540
 1484TIP3    H1 4393   1.337   6.490   2.553
 1484TIP3    H2 4394   1.394   6.629   2.538
 1485TIP3   OH2 4395   1.863   6.531   0.375
 1485TIP3    H1 4396   1.900   6.443   0.376
 1485TIP3    H2 4397   1.772   6.519   0.401
 1486TIP3   OH2 4398   5.330   6.196   1.162
 1486TIP3    H1 4399   5.242   6.161   1.157
 1486TIP3    H2 4400   5.318   6.290   1.175
 1487TIP3   OH2 4401   2.980   4.561   0.543
 1487TIP3    H1 4402   2.916   4.591   0.478
 1487TIP3    H2 4403   2.996   4.469   0.520
 1488TIP3   OH2 4404   3.165   7.173   0.474
 1488TIP3    H1 4405   3.236   7.191   0.412
 1488TIP3    H2 4406   3.150   7.079   0.465
 1489TIP3   OH2 4407   6.954   1.583   6.418
 1489TIP3    H1 4408   6.975   1.617   6.331
 1489TIP3    H2 4409   6.990   1.647   6.479
 1490TIP3   OH2 4410   1.558   5.798   3.101
 1490TIP3    H1 4411   1.464   5.783   3.097
 1490TIP3    H2 4412   1.584   5.768   3.188
 1491TIP3   OH2 4413   6.455   0.962   6.309
 1491TIP3    H1 4414   6.416   0.891   6.259
 1491TIP3    H2 4415   6.387   0.987   6.372
 1492TIP3   OH2 4416   1.950   6.336   6.666
 1492TIP3    H1 4417   2.003   6.317   6.744
 1492TIP3    H2 4418   1.860   6.339   6.699
 1493TIP3   OH2 4419   2.603   3.851   1.039
 1493TIP3    H1 4420   2.574   3.824   0.952
 1493TIP3    H2 4421   2.522   3.878   1.083
 1494TIP3   OH2 4422   5.670   2.162   6.793
 1494TIP3    H1 4423   5.758   2.200   6.798
 1494TIP3    H2 4424   5.679   2.074   6.830
 1495TIP3   OH2 4425   3.559   2.746   5.469
 1495TIP3    H1 4426   3.489   2.807   5.448
 1495TIP3    H2 4427   3.578   2.702   5.385
 1496TIP3   OH2 4428   6.037   3.104   6.576
 1496TIP3    H1 4429   6.041   3.172   6.644
 1496TIP3    H2 4430   5.978   3.038   6.612
 1497TIP3   OH2 4431   1.354   2.565   1.919
 1497TIP3    H1 4432   1.377   2.566   1.826
 1497TIP3    H2 4433   1.418   2.624   1.960
 1498TIP3   OH2 4434   0.138   4.462   3.832
 1498TIP3    H1 4435   0.044   4.477   3.823
 1498TIP3    H2 4436   0.178   4.543   3.800
 1499TIP3   OH2 4437   2.603   7.840   2.874
 1499TIP3    H1 4438   2.590   7.840   2.779
 1499TIP3    H2 4439   2.530   7.892   2.908
 1500TIP3   OH2 4440   4.391   7.726   4.553
 1500TIP3    H1 4441   4.437   7.642   4.553
 1500TIP3    H2 4442   4.418   7.768   4.635
 1501TIP3   OH2 4443   7.573   3.011   5.111
 1501TIP3    H1 4444   7.552   2.950   5.040
 1501TIP3    H2 4445   7.636   2.963   5.165
 1502TIP3   OH2 4446   7.556   6.042   6.549
 1502TIP3    H1 4447   7.650   6.052   6.567
 1502TIP3    H2 4448   7.547   6.064   6.456
 1503TIP3   OH2 4449   5.523   2.269   5.196
 1503TIP3    H1 4450   5.611   2.252   5.229
 1503TIP3    H2 4451   5.484   2.182   5.188
 1504TIP3   OH2 4452   3.376   0.475   0.380
 1504TIP3    H1 4453   3.305   0.413   0.400
 1504TIP3    H2 4454   3.404   0.451   0.292
 1505TIP3   OH2 4455   2.049   4.884   3.662
 1505TIP3    H1 4456   2.138   4.867   3.630
 1505TIP3    H2 4457   1.992   4.855   3.591
 1506TIP3   OH2 4458   5.121   6.308   6.497
 1506TIP3    H1 4459   5.079   6.259   6.426
 1506TIP3    H2 4460   5.196   6.351   6.457
 1507TIP3   OH2 4461   6.560   4.218   4.188
 1507TIP3    H1 4462   6.572   4.138   4.136
 1507TIP3    H2 4463   6.465   4.232   4.189
 1508TIP3   OH2 4464   1.046   7.657   4.670
 1508TIP3    H1 4465   1.016   7.593   4.606
 1508TIP3    H2 4466   1.018   7.741   4.633
 1509TIP3   OH2 4467   5.363   0.249   3.587
 1509TIP3    H1 4468   5.445   0.296   3.607
 1509TIP3    H2 4469   5.356   0.254   3.492
 1510TIP3   OH2 4470   5.547   1.476   0.908
 1510TIP3    H1 4471   5.561   1.475   0.813
 1510TIP3    H2 4472   5.466   1.527   0.919
 1511TIP3   OH2 4473   6.065   2.596   4.466
 1511TIP3    H1 4474   5.991   2.550   4.506
 1511TIP3    H2 4475   6.026   2.675   4.427
 1512TIP3   OH2 4476   6.762   2.534   2.485
 1512TIP3    H1 4477   6.778   2.558   2.576
 1512TIP3    H2 4478   6.670   2.506   2.484
 1513TIP3   OH2 4479   4.636   4.028   2.482
 1513TIP3    H1 4480   4.557   4.005   2.433
 1513TIP3    H2 4481   4.642   3.962   2.551
 1514TIP3   OH2 4482   5.141   0.860   5.709
 1514TIP3    H1 4483   5.127   0.927   5.776
 1514TIP3    H2 4484   5.209   0.896   5.653
 1515TIP3   OH2 4485   4.749   3.639   1.085
 1515TIP3    H1 4486   4.752   3.683   1.001
 1515TIP3    H2 4487   4.717   3.705   1.146
 1516TIP3   OH2 4488   2.602   1.971   1.534
 1516TIP3    H1 4489   2.622   1.911   1.606
 1516TIP3    H2 4490   2.517   1.941   1.501
 1517TIP3   OH2 4491   8.008   5.980   3.347
 1517TIP3    H1 4492   7.916   5.952   3.339
 1517TIP3    H2 4493   8.014   6.059   3.295
 1518TIP3   OH2 4494   3.224   4.333   3.840
 1518TIP3    H1 4495   3.195   4.298   3.924
 1518TIP3    H2 4496   3.195   4.424   3.840
 1519TIP3   OH2 4497   0.350   5.334   4.068
 1519TIP3    H1 4498   0.368   5.426   4.053
 1519TIP3    H2 4499   0.290   5.310   3.997
 1520TIP3   OH2 4500   6.354   3.880   6.378
 1520TIP3    H1 4501   6.428   3.831   6.343
 1520TIP3    H2 4502   6.311   3.917   6.301
 1521TIP3   OH2 4503   5.340   1.700   5.188
 1521TIP3    H1 4504   5.402   1.728   5.255
 1521TIP3    H2 4505   5.365   1.610   5.167
 1522TIP3   OH2 4506   5.974   1.463   3.540
 1522TIP3    H1 4507   6.054   1.430   3.499
 1522TIP3    H2 4508   5.963   1.409   3.618
 1523TIP3   OH2 4509   7.029   0.609   6.707
 1523TIP3    H1 4510   6.967   0.681   6.718
 1523TIP3    H2 4511   6.990   0.537   6.757
 1524TIP3   OH2 4512   2.449   3.019   3.617
 1524TIP3    H1 4513   2.445   2.972   3.534
 1524TIP3    H2 4514   2.532   2.992   3.656
 1525TIP3   OH2 4515   6.677   2.799   0.777
 1525TIP3    H1 4516   6.612   2.857   0.816
 1525TIP3    H2 4517   6.717   2.852   0.707
 1526TIP3   OH2 4518   4.576   4.699   2.063
 1526TIP3    H1 4519   4.517   4.747   2.121
 1526TIP3    H2 4520   4.576   4.610   2.099
 1527TIP3   OH2 4521   4.557   4.085   0.763
 1527TIP3    H1 4522   4.637   4.040   0.738
 1527TIP3    H2 4523   4.549   4.157   0.700
 1528TIP3   OH2 4524   0.157   4.966   4.194
 1528TIP3    H1 4525   0.163   5.043   4.250
 1528TIP3    H2 4526   0.102   4.993   4.121
 1529TIP3   OH2 4527   3.385   4.192   1.957
 1529TIP3    H1 4528   3.298   4.212   1.924
 1529TIP3    H2 4529   3.378   4.203   2.052
 1530TIP3   OH2 4530   1.355   1.476   0.160
 1530TIP3    H1 4531   1.434   1.428   0.135
 1530TIP3    H2 4532   1.360   1.558   0.111
 1531TIP3   OH2 4533   4.509   1.106   4.514
 1531TIP3    H1 4534   4.588   1.078   4.559
 1531TIP3    H2 4535   4.507   1.201   4.525
 1532TIP3   OH2 4536   2.634   6.778   1.412
 1532TIP3    H1 4537   2.697   6.755   1.481
 1532TIP3    H2 4538   2.621   6.696   1.365
 1533TIP3   OH2 4539   2.625   7.313   1.832
 1533TIP3    H1 4540   2.720   7.322   1.820
 1533TIP3    H2 4541   2.603   7.377   1.900
 1534TIP3   OH2 4542   3.260   1.546   2.601
 1534TIP3    H1 4543   3.297   1.551   2.513
 1534TIP3    H2 4544   3.178   1.498   2.589
 1535TIP3   OH2 4545   2.740   1.516   4.432
 1535TIP3    H1 4546   2.668   1.492   4.490
 1535TIP3    H2 4547   2.789   1.435   4.420
 1536TIP3   OH2 4548   6.519   2.651   3.388
 1536TIP3    H1 4549   6.531   2.557   3.399
 1536TIP3    H2 4550   6.519   2.664   3.293
 1537TIP3   OH2 4551   0.383   7.227   3.612
 1537TIP3    H1 4552   0.410   7.138   3.635
 1537TIP3    H2 4553   0.455   7.283   3.644
 1538TIP3   OH2 4554   7.500   6.904   1.702
 1538TIP3    H1 4555   7.562   6.959   1.654
 1538TIP3    H2 4556   7.468   6.843   1.636
 1539TIP3   OH2 4557   1.086   7.624   5.383
 1539TIP3    H1 4558   1.084   7.719   5.370
 1539TIP3    H2 4559   0.993   7.600   5.392
 1540TIP3   OH2 4560   1.757   1.074   0.093
 1540TIP3    H1 4561   1.736   1.059   0.185
 1540TIP3    H2 4562   1.815   1.150   0.094
 1541TIP3   OH2 4563   6.527   1.552   2.077
 1541TIP3    H1 4564   6.519   1.500   1.997
 1541TIP3    H2 4565   6.543   1.642   2.046
 1542TIP3   OH2 4566   3.057   2.817   6.706
 1542TIP3    H1 4567   3.134   2.791   6.756
 1542TIP3    H2 4568   3.012   2.735   6.685
 1543TIP3   OH2 4569   6.904   1.535   2.510
 1543TIP3    H1 4570   6.898   1.579   2.595
 1543TIP3    H2 4571   6.837   1.577   2.456
 1544TIP3   OH2 4572   3.365   5.232   3.730
 1544TIP3    H1 4573   3.404   5.158   3.777
 1544TIP3    H2 4574   3.310   5.276   3.796
 1545TIP3   OH2 4575   5.076   2.689   4.985
 1545TIP3    H1 4576   5.066   2.655   5.074
 1545TIP3    H2 4577   5.161   2.734   4.986
 1546TIP3   OH2 4578   3.008   2.259   6.253
 1546TIP3    H1 4579   2.950   2.184   6.267
 1546TIP3    H2 4580   3.082   2.242   6.312
 1547TIP3   OH2 4581   5.968   2.213   2.483
 1547TIP3    H1 4582   5.902   2.147   2.465
 1547TIP3    H2 4583   5.918   2.290   2.510
 1548TIP3   OH2 4584   4.767   2.149   0.073
 1548TIP3    H1 4585   4.718   2.180   0.149
 1548TIP3    H2 4586   4.720   2.070   0.045
 1549TIP3   OH2 4587   5.658   4.140   6.608
 1549TIP3    H1 4588   5.631   4.068   6.551
 1549TIP3    H2 4589   5.670   4.100   6.694
 1550TIP3   OH2 4590   8.008   7.926   3.813
 1550TIP3    H1 4591   8.020   7.965   3.899
 1550TIP3    H2 4592   8.042   7.837   3.822
 1551TIP3   OH2 4593   4.778   1.986   2.833
 1551TIP3    H1 4594   4.682   1.988   2.823
 1551TIP3    H2 4595   4.804   1.903   2.793
 1552TIP3   OH2 4596   2.368   1.585   4.819
 1552TIP3    H1 4597   2.423   1.507   4.829
 1552TIP3    H2 4598   2.300   1.575   4.885
 1553TIP3   OH2 4599   4.532   4.110   4.042
 1553TIP3    H1 4600   4.520   4.132   3.950
 1553TIP3    H2 4601   4.595   4.038   4.041
 1554TIP3   OH2 4602   4.881   1.650   4.989
 1554TIP3    H1 4603   4.927   1.658   4.906
 1554TIP3    H2 4604   4.942   1.682   5.055
 1555TIP3   OH2 4605   5.752   3.921   0.261
 1555TIP3    H1 4606   5.671   3.894   0.305
 1555TIP3    H2 4607   5.808   3.844   0.264
 1556TIP3   OH2 4608   4.748   6.120   1.995
 1556TIP3    H1 4609   4.840   6.133   1.972
 1556TIP3    H2 4610   4.744   6.031   2.030
 1557TIP3   OH2 4611   3.742   7.143   4.029
 1557TIP3    H1 4612   3.717   7.071   3.971
 1557TIP3    H2 4613   3.688   7.216   4.000
 1558TIP3   OH2 4614   3.986   0.487   3.694
 1558TIP3    H1 4615   3.917   0.462   3.755
 1558TIP3    H2 4616   4.045   0.542   3.745
 1559TIP3   OH2 4617   1.357   1.800   4.013
 1559TIP3    H1 4618   1.396   1.739   3.950
 1559TIP3    H2 4619   1.430   1.855   4.042
 1560TIP3   OH2 4620   0.539   5.931   0.704
 1560TIP3    H1 4621   0.537   5.913   0.610
 1560TIP3    H2 4622   0.530   6.026   0.710
 1561TIP3   OH2 4623   1.944   4.419   4.955
 1561TIP3    H1 4624   1.867   4.365   4.939
 1561TIP3    H2 4625   1.917   4.508   4.933
 1562TIP3   OH2 4626   2.777   4.015   2.294
 1562TIP3    H1 4627   2.857   4.023   2.347
 1562TIP3    H2 4628   2.713   4.070   2.338
 1563TIP3   OH2 4629   2.405   5.524   5.431
 1563TIP3    H1 4630   2.335   5.564   5.378
 1563TIP3    H2 4631   2.424   5.589   5.499
 1564TIP3   OH2 4632   7.337   3.265   2.525
 1564TIP3    H1 4633   7.319   3.303   2.439
 1564TIP3    H2 4634   7.408   3.319   2.560
 1565TIP3   OH2 4635   7.208   6.834   3.140
 1565TIP3    H1 4636   7.138   6.873   3.088
 1565TIP3    H2 4637   7.168   6.815   3.224
 1566TIP3   OH2 4638   5.932   3.710   0.190
 1566TIP3    H1 4639   5.996   3.767   0.147
 1566TIP3    H2 4640   5.923   3.635   0.131
 1567TIP3   OH2 4641   4.650   4.769   1.438
 1567TIP3    H1 4642   4.632   4.687   1.484
 1567TIP3    H2 4643   4.568   4.818   1.445
 1568TIP3   OH2 4644   5.183   6.993   4.859
 1568TIP3    H1 4645   5.157   6.913   4.904
 1568TIP3    H2 4646   5.223   7.047   4.927
 1569TIP3   OH2 4647   6.599   0.938   4.220
 1569TIP3    H1 4648   6.606   0.941   4.315
 1569TIP3    H2 4649   6.554   0.856   4.201
 1570TIP3   OH2 4650   2.075   0.353   3.096
 1570TIP3    H1 4651   2.150   0.326   3.147
 1570TIP3    H2 4652   2.071   0.448   3.108
 1571TIP3   OH2 4653   1.499   0.320   6.297
 1571TIP3    H1 4654   1.474   0.229   6.308
 1571TIP3    H2 4655   1.505   0.332   6.202
 1572TIP3   OH2 4656   6.079   1.870   2.123
 1572TIP3    H1 4657   6.040   1.957   2.118
 1572TIP3    H2 4658   6.006   1.810   2.105
 1573TIP3   OH2 4659   2.328   7.506   1.879
 1573TIP3    H1 4660   2.402   7.555   1.915
 1573TIP3    H2 4661   2.254   7.565   1.886
 1574TIP3   OH2 4662   4.109   7.824   0.379
 1574TIP3    H1 4663   4.192   7.855   0.416
 1574TIP3    H2 4664   4.058   7.904   0.365
 1575TIP3   OH2 4665   4.045   5.836   4.460
 1575TIP3    H1 4666   4.096   5.901   4.411
 1575TIP3    H2 4667   4.063   5.857   4.552
 1576TIP3   OH2 4668   1.074   2.543   1.281
 1576TIP3    H1 4669   1.063   2.536   1.186
 1576TIP3    H2 4670   1.121   2.463   1.306
 1577TIP3   OH2 4671   6.978   1.248   0.794
 1577TIP3    H1 4672   7.049   1.247   0.858
 1577TIP3    H2 4673   7.021   1.235   0.709
 1578TIP3   OH2 4674   1.458   6.093   0.444
 1578TIP3    H1 4675   1.385   6.097   0.382
 1578TIP3    H2 4676   1.456   6.003   0.477
 1579TIP3   OH2 4677   6.377   5.125   6.336
 1579TIP3    H1 4678   6.351   5.034   6.352
 1579TIP3    H2 4679   6.297   5.168   6.305
 1580TIP3   OH2 4680   1.022   0.886   3.443
 1580TIP3    H1 4681   1.090   0.823   3.468
 1580TIP3    H2 4682   0.945   0.860   3.494
 1581TIP3   OH2 4683   8.118   3.364   6.364
 1581TIP3    H1 4684   8.044   3.416   6.331
 1581TIP3    H2 4685   8.180   3.362   6.292
 1582TIP3   OH2 4686   0.286   3.655   0.719
 1582TIP3    H1 4687   0.233   3.616   0.649
 1582TIP3    H2 4688   0.226   3.713   0.765
 1583TIP3   OH2 4689   2.186   4.104   5.626
 1583TIP3    H1 4690   2.248   4.034   5.648
 1583TIP3    H2 4691   2.218   4.180   5.674
 1584TIP3   OH2 4692   2.908   3.656   4.557
 1584TIP3    H1 4693   2.819   3.628   4.538
 1584TIP3    H2 4694   2.962   3.608   4.493
 1585TIP3   OH2 4695   0.329   6.773   1.425
 1585TIP3    H1 4696   0.278   6.752   1.347
 1585TIP3    H2 4697   0.338   6.689   1.470
 1586TIP3   OH2 4698   1.666   0.767   2.242
 1586TIP3    H1 4699   1.707   0.684   2.217
 1586TIP3    H2 4700   1.738   0.830   2.243
 1587TIP3   OH2 4701   1.363   3.316   1.691
 1587TIP3    H1 4702   1.345   3.404   1.659
 1587TIP3    H2 4703   1.326   3.258   1.624
 1588TIP3   OH2 4704   8.103   1.148   5.259
 1588TIP3    H1 4705   8.042   1.222   5.257
 1588TIP3    H2 4706   8.063   1.085   5.320
 1589TIP3   OH2 4707   3.484   6.064   4.820
 1589TIP3    H1 4708   3.553   6.089   4.881
 1589TIP3    H2 4709   3.481   5.969   4.824
 1590TIP3   OH2 4710   7.483   4.578   0.663
 1590TIP3    H1 4711   7.478   4.620   0.577
 1590TIP3    H2 4712   7.489   4.651   0.725
 1591TIP3   OH2 4713   0.189   7.608   2.426
 1591TIP3    H1 4714   0.275   7.573   2.405
 1591TIP3    H2 4715   0.129   7.533   2.416
 1592TIP3   OH2 4716   6.866   5.831   4.430
 1592TIP3    H1 4717   6.805   5.799   4.365
 1592TIP3    H2 4718   6.913   5.902   4.386
 1593TIP3   OH2 4719   2.710   2.375   0.650
 1593TIP3    H1 4720   2.622   2.338   0.645
 1593TIP3    H2 4721   2.705   2.440   0.721
 1594TIP3   OH2 4722   6.656   5.766   5.786
 1594TIP3    H1 4723   6.668   5.675   5.814
 1594TIP3    H2 4724   6.562   5.772   5.766
 1595TIP3   OH2 4725   6.651   1.997   6.500
 1595TIP3    H1 4726   6.596   1.921   6.484
 1595TIP3    H2 4727   6.609   2.041   6.574
 1596TIP3   OH2 4728   2.767   4.057   4.534
 1596TIP3    H1 4729   2.830   4.105   4.588
 1596TIP3    H2 4730   2.820   3.992   4.488
 1597TIP3   OH2 4731   4.710   3.338   0.443
 1597TIP3    H1 4732   4.792   3.298   0.413
 1597TIP3    H2 4733   4.641   3.289   0.398
 1598TIP3   OH2 4734   4.252   7.172   5.380
 1598TIP3    H1 4735   4.224   7.162   5.289
 1598TIP3    H2 4736   4.340   7.208   5.374
 1599TIP3   OH2 4737   6.656   4.047   6.787
 1599TIP3    H1 4738   6.580   4.074   6.840
 1599TIP3    H2 4739   6.619   4.023   6.703
 1600TIP3   OH2 4740   8.168   4.438   2.823
 1600TIP3    H1 4741   8.219   4.440   2.904
 1600TIP3    H2 4742   8.119   4.357   2.828
 1601TIP3   OH2 4743   5.389   3.453   4.061
 1601TIP3    H1 4744   5.376   3.415   4.148
 1601TIP3    H2 4745   5.304   3.443   4.017
 1602TIP3   OH2 4746   4.765   2.271   4.645
 1602TIP3    H1 4747   4.834   2.228   4.595
 1602TIP3    H2 4748   4.741   2.208   4.712
 1603TIP3   OH2 4749   6.337   0.153   0.298
 1603TIP3    H1 4750   6.336   0.120   0.209
 1603TIP3    H2 4751   6.315   0.246   0.290
 1604TIP3   OH2 4752   6.708   4.552   2.297
 1604TIP3    H1 4753   6.746   4.536   2.383
 1604TIP3    H2 4754   6.679   4.466   2.267
 1605TIP3   OH2 4755   4.680   6.973   5.226
 1605TIP3    H1 4756   4.754   6.916   5.250
 1605TIP3    H2 4757   4.680   6.974   5.131
 1606TIP3   OH2 4758   7.705   6.059   2.159
 1606TIP3    H1 4759   7.667   6.102   2.235
 1606TIP3    H2 4760   7.635   6.057   2.094
 1607TIP3   OH2 4761   4.155   7.301   3.445
 1607TIP3    H1 4762   4.184   7.331   3.531
 1607TIP3    H2 4763   4.233   7.258   3.409
 1608TIP3   OH2 4764   3.503   1.209   3.814
 1608TIP3    H1 4765   3.533   1.190   3.725
 1608TIP3    H2 4766   3.565   1.275   3.846
 1609TIP3   OH2 4767   2.485   3.016   4.391
 1609TIP3    H1 4768   2.458   2.942   4.337
 1609TIP3    H2 4769   2.505   3.086   4.328
 1610TIP3   OH2 4770   4.448   4.269   2.921
 1610TIP3    H1 4771   4.412   4.228   3.000
 1610TIP3    H2 4772   4.537   4.295   2.946
 1611TIP3   OH2 4773   4.297   0.566   5.743
 1611TIP3    H1 4774   4.202   0.560   5.748
 1611TIP3    H2 4775   4.314   0.632   5.676
 1612TIP3   OH2 4776   6.564   7.686   3.380
 1612TIP3    H1 4777   6.586   7.702   3.471
 1612TIP3    H2 4778   6.636   7.632   3.347
 1613TIP3   OH2 4779   6.976   6.666   4.352
 1613TIP3    H1 4780   6.951   6.615   4.275
 1613TIP3    H2 4781   7.028   6.739   4.317
 1614TIP3   OH2 4782   3.453   1.225   6.757
 1614TIP3    H1 4783   3.460   1.278   6.678
 1614TIP3    H2 4784   3.359   1.205   6.765
 1615TIP3   OH2 4785   5.018   6.151   2.251
 1615TIP3    H1 4786   5.078   6.148   2.325
 1615TIP3    H2 4787   5.032   6.238   2.213
 1616TIP3   OH2 4788   2.493   7.023   6.254
 1616TIP3    H1 4789   2.447   7.091   6.303
 1616TIP3    H2 4790   2.584   7.029   6.284
 1617TIP3   OH2 4791   7.682   3.621   3.123
 1617TIP3    H1 4792   7.753   3.600   3.183
 1617TIP3    H2 4793   7.671   3.716   3.129
 1618TIP3   OH2 4794   4.646   2.577   6.440
 1618TIP3    H1 4795   4.677   2.573   6.530
 1618TIP3    H2 4796   4.723   2.551   6.388
 1619TIP3   OH2 4797   6.947   2.557   4.731
 1619TIP3    H1 4798   6.961   2.462   4.723
 1619TIP3    H2 4799   7.013   2.596   4.675
 1620TIP3   OH2 4800   7.864   0.732   1.117
 1620TIP3    H1 4801   7.958   0.724   1.103
 1620TIP3    H2 4802   7.856   0.793   1.191
 1621TIP3   OH2 4803   7.739   7.696   0.123
 1621TIP3    H1 4804   7.765   7.779   0.165
 1621TIP3    H2 4805   7.807   7.634   0.151
 1622TIP3   OH2 4806   5.653   5.712   2.166
 1622TIP3    H1 4807   5.596   5.642   2.133
 1622TIP3    H2 4808   5.692   5.676   2.245
 1623TIP3   OH2 4809   7.350   1.452   0.783
 1623TIP3    H1 4810   7.291   1.381   0.809
 1623TIP3    H2 4811   7.434   1.429   0.821
 1624TIP3   OH2 4812   6.567   7.344   4.767
 1624TIP3    H1 4813   6.483   7.358   4.725
 1624TIP3    H2 4814   6.603   7.267   4.723
 1625TIP3   OH2 4815   5.932   7.345   3.621
 1625TIP3    H1 4816   5.858   7.325   3.563
 1625TIP3    H2 4817   6.006   7.300   3.580
 1626TIP3   OH2 4818   6.248   2.503   6.151
 1626TIP3    H1 4819   6.301   2.529   6.226
 1626TIP3    H2 4820   6.188   2.577   6.138
 1627TIP3   OH2 4821   1.536   1.688   4.702
 1627TIP3    H1 4822   1.614   1.634   4.693
 1627TIP3    H2 4823   1.548   1.735   4.785
 1628TIP3   OH2 4824   0.767  -0.030   5.650
 1628TIP3    H1 4825   0.729   0.004   5.731
 1628TIP3    H2 4826   0.698  -0.020   5.584
 1629TIP3   OH2 4827   5.761   7.562   5.884
 1629TIP3    H1 4828   5.777   7.645   5.838
 1629TIP3    H2 4829   5.668   7.565   5.905
 1630TIP3   OH2 4830   3.845   5.439   3.908
 1630TIP3    H1 4831   3.808   5.464   3.993
 1630TIP3    H2 4832   3.905   5.367   3.929
 1631TIP3   OH2 4833   2.967   4.270   0.154
 1631TIP3    H1 4834   3.051   4.310   0.178
 1631TIP3    H2 4835   2.945   4.214   0.228
 1632TIP3   OH2 4836   3.298   4.212   1.383
 1632TIP3    H1 4837   3.233   4.212   1.453
 1632TIP3    H2 4838   3.275   4.137   1.329
 1633TIP3   OH2 4839   0.820   2.527   1.375
 1633TIP3    H1 4840   0.795   2.612   1.411
 1633TIP3    H2 4841   0.907   2.541   1.338
 1634TIP3   OH2 4842   6.588   6.754   1.015
 1634TIP3    H1 4843   6.682   6.741   1.029
 1634TIP3    H2 4844   6.557   6.670   0.981
 1635TIP3   OH2 4845   4.982   4.263   3.291
 1635TIP3    H1 4846   4.927   4.262   3.370
 1635TIP3    H2 4847   5.049   4.329   3.310
 1636TIP3   OH2 4848   4.456   1.198   0.192
 1636TIP3    H1 4849   4.511   1.120   0.196
 1636TIP3    H2 4850   4.515   1.267   0.162
 1637TIP3   OH2 4851   5.384   7.678   4.466
 1637TIP3    H1 4852   5.426   7.759   4.438
 1637TIP3    H2 4853   5.313   7.665   4.404
 1638TIP3   OH2 4854   5.605   2.874   2.666
 1638TIP3    H1 4855   5.553   2.948   2.633
 1638TIP3    H2 4856   5.550   2.834   2.733
 1639TIP3   OH2 4857   1.416   6.724   3.516
 1639TIP3    H1 4858   1.487   6.764   3.565
 1639TIP3    H2 4859   1.361   6.682   3.583
 1640TIP3   OH2 4860   4.938   5.351   3.069
 1640TIP3    H1 4861   4.971   5.273   3.024
 1640TIP3    H2 4862   4.952   5.422   3.006
 1641TIP3   OH2 4863   0.507   3.803   0.553
 1641TIP3    H1 4864   0.485   3.879   0.499
 1641TIP3    H2 4865   0.466   3.821   0.638
 1642TIP3   OH2 4866   2.127   1.803   0.081
 1642TIP3    H1 4867   2.041   1.783   0.117
 1642TIP3    H2 4868   2.147   1.728   0.025
 1643TIP3   OH2 4869   1.586   2.622   0.516
 1643TIP3    H1 4870   1.532   2.568   0.459
 1643TIP3    H2 4871   1.667   2.636   0.467
 1644TIP3   OH2 4872   4.372   5.000   5.117
 1644TIP3    H1 4873   4.369   5.081   5.167
 1644TIP3    H2 4874   4.283   4.988   5.085
 1645TIP3   OH2 4875   7.918   4.003   0.931
 1645TIP3    H1 4876   7.835   3.995   0.978
 1645TIP3    H2 4877   7.896   4.050   0.850
 1646TIP3   OH2 4878   2.566   3.649   4.584
 1646TIP3    H1 4879   2.497   3.621   4.644
 1646TIP3    H2 4880   2.603   3.727   4.626
 1647TIP3   OH2 4881   7.232   1.278   0.994
 1647TIP3    H1 4882   7.307   1.222   1.012
 1647TIP3    H2 4883   7.224   1.334   1.072
 1648TIP3   OH2 4884   6.932   2.305   6.034
 1648TIP3    H1 4885   6.912   2.379   6.090
 1648TIP3    H2 4886   7.028   2.306   6.026
 1649TIP3   OH2 4887   1.819   4.189   1.510
 1649TIP3    H1 4888   1.732   4.218   1.483
 1649TIP3    H2 4889   1.872   4.195   1.430
 1650TIP3   OH2 4890   4.469   3.266   6.493
 1650TIP3    H1 4891   4.564   3.267   6.481
 1650TIP3    H2 4892   4.437   3.214   6.419
 1651TIP3   OH2 4893   5.107   0.548   1.890
 1651TIP3    H1 4894   5.097   0.463   1.933
 1651TIP3    H2 4895   5.173   0.534   1.823
 1652TIP3   OH2 4896   1.730   4.595   0.217
 1652TIP3    H1 4897   1.817   4.583   0.253
 1652TIP3    H2 4898   1.677   4.626   0.290
 1653TIP3   OH2 4899   5.884   4.650   5.622
 1653TIP3    H1 4900   5.931   4.596   5.686
 1653TIP3    H2 4901   5.952   4.704   5.582
 1654TIP3   OH2 4902   8.015   5.197   0.033
 1654TIP3    H1 4903   8.013   5.101   0.036
 1654TIP3    H2 4904   8.103   5.219   0.065
 1655TIP3   OH2 4905   3.954   0.029   4.913
 1655TIP3    H1 4906   3.862   0.029   4.886
 1655TIP3    H2 4907   3.960   0.099   4.978
 1656TIP3   OH2 4908   2.769   3.741   3.282
 1656TIP3    H1 4909   2.792   3.800   3.354
 1656TIP3    H2 4910   2.825   3.664   3.295
 1657TIP3   OH2 4911   3.592   7.041   2.795
 1657TIP3    H1 4912   3.540   7.104   2.847
 1657TIP3    H2 4913   3.601   7.083   2.710
 1658TIP3   OH2 4914   6.239   1.824   1.710
 1658TIP3    H1 4915   6.228   1.779   1.793
 1658TIP3    H2 4916   6.234   1.917   1.732
 1659TIP3   OH2 4917   5.343   4.126   6.224
 1659TIP3    H1 4918   5.438   4.122   6.223
 1659TIP3    H2 4919   5.315   4.036   6.240
 1660TIP3   OH2 4920   1.228   2.713   2.586
 1660TIP3    H1 4921   1.294   2.684   2.650
 1660TIP3    H2 4922   1.220   2.640   2.525
 1661TIP3   OH2 4923   2.820   5.128   4.713
 1661TIP3    H1 4924   2.887   5.082   4.764
 1661TIP3    H2 4925   2.811   5.076   4.633
 1662TIP3   OH2 4926   7.849   7.094   2.393
 1662TIP3    H1 4927   7.868   7.089   2.487
 1662TIP3    H2 4928   7.828   7.004   2.368
 1663TIP3   OH2 4929   3.498   6.906   2.508
 1663TIP3    H1 4930   3.563   6.850   2.468
 1663TIP3    H2 4931   3.548   6.972   2.556
 1664TIP3   OH2 4932   5.776   1.977   5.566
 1664TIP3    H1 4933   5.858   1.976   5.616
 1664TIP3    H2 4934   5.725   1.904   5.600
 1665TIP3   OH2 4935   4.258   4.151   5.740
 1665TIP3    H1 4936   4.174   4.110   5.758
 1665TIP3    H2 4937   4.266   4.148   5.644
 1666TIP3   OH2 4938   7.043   1.939   2.396
 1666TIP3    H1 4939   7.053   2.020   2.446
 1666TIP3    H2 4940   7.041   1.968   2.304
 1667TIP3   OH2 4941   2.706   7.316   6.174
 1667TIP3    H1 4942   2.647   7.305   6.099
 1667TIP3    H2 4943   2.755   7.234   6.178
 1668TIP3   OH2 4944   7.927   2.536   0.025
 1668TIP3    H1 4945   7.908   2.481   0.101
 1668TIP3    H2 4946   8.023   2.542   0.024
 1669TIP3   OH2 4947   2.881   2.148   4.717
 1669TIP3    H1 4948   2.873   2.165   4.811
 1669TIP3    H2 4949   2.830   2.218   4.676
 1670TIP3   OH2 4950   6.537   2.579   5.656
 1670TIP3    H1 4951   6.576   2.644   5.715
 1670TIP3    H2 4952   6.587   2.499   5.672
 1671TIP3   OH2 4953   2.606   2.540   3.627
 1671TIP3    H1 4954   2.617   2.489   3.546
 1671TIP3    H2 4955   2.678   2.603   3.625
 1672TIP3   OH2 4956   4.304   1.560   5.799
 1672TIP3    H1 4957   4.260   1.483   5.763
 1672TIP3    H2 4958   4.238   1.602   5.854
 1673TIP3   OH2 4959   0.693   2.475   0.526
 1673TIP3    H1 4960   0.783   2.508   0.519
 1673TIP3    H2 4961   0.672   2.482   0.619
 1674TIP3   OH2 4962   8.081   1.996   4.989
 1674TIP3    H1 4963   8.056   1.917   5.036
 1674TIP3    H2 4964   7.998   2.029   4.953
 1675TIP3   OH2 4965   4.042   2.183   1.179
 1675TIP3    H1 4966   4.129   2.173   1.140
 1675TIP3    H2 4967   4.007   2.261   1.137
 1676TIP3   OH2 4968   6.079   1.537   5.051
 1676TIP3    H1 4969   6.137   1.537   4.974
 1676TIP3    H2 4970   5.995   1.505   5.018
 1677TIP3   OH2 4971   7.929   1.289   2.098
 1677TIP3    H1 4972   7.966   1.213   2.054
 1677TIP3    H2 4973   7.842   1.261   2.126
 1678TIP3   OH2 4974   7.497   6.652   3.634
 1678TIP3    H1 4975   7.424   6.626   3.691
 1678TIP3    H2 4976   7.501   6.747   3.643
 1679TIP3   OH2 4977   2.110   6.746   2.917
 1679TIP3    H1 4978   2.175   6.692   2.872
 1679TIP3    H2 4979   2.111   6.829   2.870
 1680TIP3   OH2 4980   4.615   1.658   3.745
 1680TIP3    H1 4981   4.682   1.725   3.755
 1680TIP3    H2 4982   4.658   1.589   3.694
 1681TIP3   OH2 4983   7.301   7.562   0.692
 1681TIP3    H1 4984   7.212   7.536   0.715
 1681TIP3    H2 4985   7.309   7.542   0.599
 1682TIP3   OH2 4986   3.273   1.802   4.903
 1682TIP3    H1 4987   3.330   1.789   4.979
 1682TIP3    H2 4988   3.232   1.716   4.889
 1683TIP3   OH2 4989   1.970   6.963   1.676
 1683TIP3    H1 4990   1.958   7.005   1.591
 1683TIP3    H2 4991   2.065   6.950   1.683
 1684TIP3   OH2 4992   5.453   2.408   1.343
 1684TIP3    H1 4993   5.478   2.318   1.364
 1684TIP3    H2 4994   5.360   2.412   1.364
 1685TIP3   OH2 4995   4.564   3.419   1.408
 1685TIP3    H1 4996   4.539   3.334   1.443
 1685TIP3    H2 4997   4.512   3.482   1.459
 1686TIP3   OH2 4998   3.731   0.626   4.133
 1686TIP3    H1 4999   3.674   0.685   4.182
 1686TIP3    H2 5000   3.710   0.642   4.041
 1687TIP3   OH2 5001   1.385   3.882   6.526
 1687TIP3    H1 5002   1.443   3.838   6.465
 1687TIP3    H2 5003   1.297   3.862   6.494
 1688TIP3   OH2 5004   4.438   1.175   2.451
 1688TIP3    H1 5005   4.419   1.256   2.500
 1688TIP3    H2 5006   4.355   1.155   2.407
 1689TIP3   OH2 5007   3.108   4.840   4.303
 1689TIP3    H1 5008   3.069   4.800   4.380
 1689TIP3    H2 5009   3.114   4.769   4.239
 1690TIP3   OH2 5010   1.867   3.162   6.474
 1690TIP3    H1 5011   1.826   3.240   6.513
 1690TIP3    H2 5012   1.944   3.146   6.527
 1691TIP3   OH2 5013   4.435   2.951   2.282
 1691TIP3    H1 5014   4.506   2.894   2.251
 1691TIP3    H2 5015   4.419   3.011   2.209
 1692TIP3   OH2 5016   3.580   6.780   4.961
 1692TIP3    H1 5017   3.671   6.767   4.934
 1692TIP3    H2 5018   3.553   6.695   4.996
 1693TIP3   OH2 5019   1.510   4.627   4.212
 1693TIP3    H1 5020   1.453   4.566   4.164
 1693TIP3    H2 5021   1.449   4.682   4.261
 1694TIP3   OH2 5022   6.958   7.193   0.941
 1694TIP3    H1 5023   7.053   7.193   0.930
 1694TIP3    H2 5024   6.931   7.281   0.915
 1695TIP3   OH2 5025   1.354   2.572   4.712
 1695TIP3    H1 5026   1.437   2.525   4.709
 1695TIP3    H2 5027   1.317   2.562   4.624
 1696TIP3   OH2 5028   0.638   7.057   2.217
 1696TIP3    H1 5029   0.563   7.051   2.276
 1696TIP3    H2 5030   0.599   7.079   2.132
 1697TIP3   OH2 5031   6.397   5.716   2.910
 1697TIP3    H1 5032   6.357   5.710   2.997
 1697TIP3    H2 5033   6.390   5.808   2.887
 1698TIP3   OH2 5034   5.241   4.161   0.091
 1698TIP3    H1 5035   5.172   4.202   0.143
 1698TIP3    H2 5036   5.304   4.128   0.155
 1699TIP3   OH2 5037   4.094   5.104   5.901
 1699TIP3    H1 5038   4.038   5.167   5.855
 1699TIP3    H2 5039   4.080   5.123   5.994
 1700TIP3   OH2 5040   3.452   1.043   4.421
 1700TIP3    H1 5041   3.450   1.045   4.517
 1700TIP3    H2 5042   3.467   1.134   4.396
 1701TIP3   OH2 5043   4.451   4.229   0.311
 1701TIP3    H1 5044   4.533   4.186   0.288
 1701TIP3    H2 5045   4.411   4.171   0.376
 1702TIP3   OH2 5046   2.767   4.979   4.464
 1702TIP3    H1 5047   2.787   5.047   4.400
 1702TIP3    H2 5048   2.687   4.938   4.432
 1703TIP3   OH2 5049   6.689   1.541   2.311
 1703TIP3    H1 5050   6.665   1.546   2.218
 1703TIP3    H2 5051   6.612   1.575   2.357
 1704TIP3   OH2 5052   0.930   7.543   2.169
 1704TIP3    H1 5053   0.857   7.562   2.228
 1704TIP3    H2 5054   0.898   7.473   2.112
 1705TIP3   OH2 5055   1.574   7.366   6.107
 1705TIP3    H1 5056   1.608   7.285   6.144
 1705TIP3    H2 5057   1.582   7.430   6.177
 1706TIP3   OH2 5058   5.074   5.609   4.848
 1706TIP3    H1 5059   5.015   5.684   4.855
 1706TIP3    H2 5060   5.057   5.557   4.926
 1707TIP3   OH2 5061   2.997   5.372   0.009
 1707TIP3    H1 5062   2.978   5.290   0.055
 1707TIP3    H2 5063   3.075   5.406   0.052
 1708TIP3   OH2 5064   5.561   6.486   1.511
 1708TIP3    H1 5065   5.599   6.561   1.558
 1708TIP3    H2 5066   5.468   6.490   1.531
 1709TIP3   OH2 5067   5.978   7.905   5.112
 1709TIP3    H1 5068   5.883   7.918   5.105
 1709TIP3    H2 5069   5.989   7.840   5.181
 1710TIP3   OH2 5070   1.198   7.476   0.024
 1710TIP3    H1 5071   1.244   7.524   0.094
 1710TIP3    H2 5072   1.257   7.404   0.001
 1711TIP3   OH2 5073   7.650   6.297   3.258
 1711TIP3    H1 5074   7.732   6.345   3.240
 1711TIP3    H2 5075   7.617   6.337   3.339
 1712TIP3   OH2 5076   7.390   6.282   0.179
 1712TIP3    H1 5077   7.350   6.360   0.142
 1712TIP3    H2 5078   7.425   6.310   0.263
 1713TIP3   OH2 5079   6.387   3.516   6.360
 1713TIP3    H1 5080   6.427   3.593   6.319
 1713TIP3    H2 5081   6.455   3.484   6.419
 1714TIP3   OH2 5082   2.672   2.757   4.177
 1714TIP3    H1 5083   2.633   2.814   4.111
 1714TIP3    H2 5084   2.755   2.798   4.200
 1715TIP3   OH2 5085   5.627   2.818   0.320
 1715TIP3    H1 5086   5.679   2.739   0.304
 1715TIP3    H2 5087   5.687   2.890   0.300
 1716TIP3   OH2 5088   6.104   0.840   4.711
 1716TIP3    H1 5089   6.146   0.923   4.733
 1716TIP3    H2 5090   6.043   0.824   4.783
 1717TIP3   OH2 5091   4.722   2.285   0.329
 1717TIP3    H1 5092   4.756   2.337   0.402
 1717TIP3    H2 5093   4.662   2.223   0.370
 1718TIP3   OH2 5094   6.764   6.053   1.130
 1718TIP3    H1 5095   6.693   6.088   1.076
 1718TIP3    H2 5096   6.831   6.026   1.067
 1719TIP3   OH2 5097   6.881   5.030   5.126
 1719TIP3    H1 5098   6.962   5.058   5.084
 1719TIP3    H2 5099   6.898   5.040   5.220
 1720TIP3   OH2 5100   2.934   4.816   3.161
 1720TIP3    H1 5101   2.961   4.839   3.250
 1720TIP3    H2 5102   3.007   4.764   3.127
 1721TIP3   OH2 5103   5.105   7.388   0.572
 1721TIP3    H1 5104   5.136   7.452   0.635
 1721TIP3    H2 5105   5.167   7.393   0.499
 1722TIP3   OH2 5106   5.633   5.861   2.579
 1722TIP3    H1 5107   5.636   5.807   2.658
 1722TIP3    H2 5108   5.671   5.804   2.511
 1723TIP3   OH2 5109   6.065   6.425   1.842
 1723TIP3    H1 5110   6.006   6.351   1.826
 1723TIP3    H2 5111   6.131   6.419   1.774
 1724TIP3   OH2 5112   5.392   1.049   4.986
 1724TIP3    H1 5113   5.354   1.123   4.938
 1724TIP3    H2 5114   5.335   0.976   4.965
 1725TIP3   OH2 5115   4.540   7.603   2.171
 1725TIP3    H1 5116   4.565   7.512   2.152
 1725TIP3    H2 5117   4.619   7.641   2.210
 1726TIP3   OH2 5118   2.242   1.541   1.495
 1726TIP3    H1 5119   2.193   1.462   1.472
 1726TIP3    H2 5120   2.322   1.509   1.537
 1727TIP3   OH2 5121   6.813   5.163   3.283
 1727TIP3    H1 5122   6.840   5.160   3.191
 1727TIP3    H2 5123   6.811   5.071   3.310
 1728TIP3   OH2 5124   7.577   2.221   4.697
 1728TIP3    H1 5125   7.581   2.234   4.792
 1728TIP3    H2 5126   7.615   2.301   4.660
 1729TIP3   OH2 5127   2.342   4.507   2.513
 1729TIP3    H1 5128   2.395   4.464   2.445
 1729TIP3    H2 5129   2.252   4.484   2.492
 1730TIP3   OH2 5130   1.416   2.572   3.442
 1730TIP3    H1 5131   1.486   2.587   3.506
 1730TIP3    H2 5132   1.448   2.501   3.387
 1731TIP3   OH2 5133   7.829   3.722   6.742
 1731TIP3    H1 5134   7.814   3.787   6.811
 1731TIP3    H2 5135   7.918   3.690   6.759
 1732TIP3   OH2 5136   0.222   6.781   2.436
 1732TIP3    H1 5137   0.185   6.697   2.411
 1732TIP3    H2 5138   0.295   6.794   2.375
 1733TIP3   OH2 5139   6.563   0.707   3.869
 1733TIP3    H1 5140   6.488   0.765   3.858
 1733TIP3    H2 5141   6.639   0.764   3.863
 1734TIP3   OH2 5142   0.902   5.699   4.592
 1734TIP3    H1 5143   0.903   5.771   4.655
 1734TIP3    H2 5144   0.992   5.691   4.562
 1735TIP3   OH2 5145   4.239   5.674   5.655
 1735TIP3    H1 5146   4.169   5.616   5.685
 1735TIP3    H2 5147   4.262   5.726   5.733
 1736TIP3   OH2 5148   6.840   0.505   5.816
 1736TIP3    H1 5149   6.802   0.448   5.883
 1736TIP3    H2 5150   6.806   0.592   5.836
 1737TIP3   OH2 5151   2.831   2.385   0.373
 1737TIP3    H1 5152   2.809   2.404   0.464
 1737TIP3    H2 5153   2.804   2.294   0.360
 1738TIP3   OH2 5154   4.183   2.499   0.899
 1738TIP3    H1 5155   4.105   2.482   0.951
 1738TIP3    H2 5156   4.149   2.524   0.813
 1739TIP3   OH2 5157   1.791   3.549   1.312
 1739TIP3    H1 5158   1.816   3.642   1.311
 1739TIP3    H2 5159   1.702   3.549   1.346
 1740TIP3   OH2 5160   4.258   6.266   2.694
 1740TIP3    H1 5161   4.319   6.218   2.638
 1740TIP3    H2 5162   4.185   6.289   2.636
 1741TIP3   OH2 5163   3.703   1.110   6.747
 1741TIP3    H1 5164   3.613   1.137   6.761
 1741TIP3    H2 5165   3.710   1.098   6.652
 1742TIP3   OH2 5166   6.987   2.060   0.635
 1742TIP3    H1 5167   6.909   2.099   0.674
 1742TIP3    H2 5168   6.986   2.091   0.545
 1743TIP3   OH2 5169   2.658   7.855   1.034
 1743TIP3    H1 5170   2.749   7.858   1.002
 1743TIP3    H2 5171   2.613   7.921   0.981
 1744TIP3   OH2 5172   7.899   7.210   0.745
 1744TIP3    H1 5173   7.890   7.304   0.758
 1744TIP3    H2 5174   7.839   7.171   0.808
 1745TIP3   OH2 5175   6.895   5.861   5.858
 1745TIP3    H1 5176   6.872   5.867   5.951
 1745TIP3    H2 5177   6.812   5.847   5.814
 1746TIP3   OH2 5178   3.705   3.525   0.110
 1746TIP3    H1 5179   3.615   3.547   0.086
 1746TIP3    H2 5180   3.739   3.604   0.152
 1747TIP3   OH2 5181   1.815   5.082   4.268
 1747TIP3    H1 5182   1.835   5.013   4.204
 1747TIP3    H2 5183   1.722   5.099   4.258
 1748TIP3   OH2 5184   1.105   6.683   2.318
 1748TIP3    H1 5185   1.127   6.590   2.316
 1748TIP3    H2 5186   1.167   6.721   2.380
 1749TIP3   OH2 5187   6.679   2.059   0.694
 1749TIP3    H1 5188   6.666   1.996   0.623
 1749TIP3    H2 5189   6.591   2.076   0.727
 1750TIP3   OH2 5190   5.783   5.726   3.324
 1750TIP3    H1 5191   5.877   5.734   3.337
 1750TIP3    H2 5192   5.751   5.686   3.405
 1751TIP3   OH2 5193   6.412   5.259   5.806
 1751TIP3    H1 5194   6.492   5.255   5.860
 1751TIP3    H2 5195   6.419   5.342   5.760
 1752TIP3   OH2 5196   5.294   7.222   3.551
 1752TIP3    H1 5197   5.204   7.229   3.581
 1752TIP3    H2 5198   5.346   7.261   3.622
 1753TIP3   OH2 5199   2.808   3.275   4.093
 1753TIP3    H1 5200   2.867   3.332   4.044
 1753TIP3    H2 5201   2.774   3.331   4.163
 1754TIP3   OH2 5202   1.150   4.306   3.939
 1754TIP3    H1 5203   1.161   4.295   4.033
 1754TIP3    H2 5204   1.202   4.235   3.900
 1755TIP3   OH2 5205   6.017   6.855   3.428
 1755TIP3    H1 5206   6.064   6.807   3.360
 1755TIP3    H2 5207   5.928   6.819   3.425
 1756TIP3   OH2 5208   5.805   6.899   0.204
 1756TIP3    H1 5209   5.880   6.907   0.145
 1756TIP3    H2 5210   5.728   6.900   0.147
 1757TIP3   OH2 5211   7.343   0.701   1.333
 1757TIP3    H1 5212   7.399   0.776   1.351
 1757TIP3    H2 5213   7.292   0.726   1.256
 1758TIP3   OH2 5214   4.993   7.070   2.391
 1758TIP3    H1 5215   4.969   6.979   2.370
 1758TIP3    H2 5216   4.964   7.083   2.481
 1759TIP3   OH2 5217   7.434   0.703   5.362
 1759TIP3    H1 5218   7.451   0.725   5.270
 1759TIP3    H2 5219   7.463   0.780   5.411
 1760TIP3   OH2 5220   2.552   2.195   3.699
 1760TIP3    H1 5221   2.595   2.259   3.754
 1760TIP3    H2 5222   2.459   2.216   3.705
 1761TIP3   OH2 5223   0.934   2.509   4.272
 1761TIP3    H1 5224   0.907   2.592   4.232
 1761TIP3    H2 5225   0.969   2.458   4.198
 1762TIP3   OH2 5226   6.252   7.037   5.381
 1762TIP3    H1 5227   6.281   6.994   5.301
 1762TIP3    H2 5228   6.164   7.070   5.360
 1763TIP3   OH2 5229   1.076   1.648   0.301
 1763TIP3    H1 5230   1.166   1.679   0.306
 1763TIP3    H2 5231   1.082   1.559   0.268
 1764TIP3   OH2 5232   7.270   4.887   2.465
 1764TIP3    H1 5233   7.284   4.796   2.492
 1764TIP3    H2 5234   7.334   4.937   2.515
 1765TIP3   OH2 5235   6.432   7.028   5.138
 1765TIP3    H1 5236   6.497   7.092   5.166
 1765TIP3    H2 5237   6.476   6.979   5.068
 1766TIP3   OH2 5238   0.949   4.413   1.280
 1766TIP3    H1 5239   0.914   4.344   1.225
 1766TIP3    H2 5240   0.873   4.466   1.304
 1767TIP3   OH2 5241   4.738   7.008   1.142
 1767TIP3    H1 5242   4.751   7.082   1.201
 1767TIP3    H2 5243   4.755   6.931   1.196
 1768TIP3   OH2 5244   6.340   4.634   4.640
 1768TIP3    H1 5245   6.401   4.648   4.713
 1768TIP3    H2 5246   6.257   4.672   4.671
 1769TIP3   OH2 5247   4.402   7.011   5.611
 1769TIP3    H1 5248   4.338   7.039   5.676
 1769TIP3    H2 5249   4.417   7.088   5.557
 1770TIP3   OH2 5250   3.356   7.617   5.585
 1770TIP3    H1 5251   3.372   7.697   5.635
 1770TIP3    H2 5252   3.298   7.643   5.515
 1771TIP3   OH2 5253   2.793   4.972   2.079
 1771TIP3    H1 5254   2.739   5.017   2.014
 1771TIP3    H2 5255   2.776   5.019   2.161
 1772TIP3   OH2 5256   1.328   2.758   6.098
 1772TIP3    H1 5257   1.387   2.781   6.169
 1772TIP3    H2 5258   1.248   2.807   6.115
 1773TIP3   OH2 5259   3.080   7.386   0.962
 1773TIP3    H1 5260   3.149   7.453   0.962
 1773TIP3    H2 5261   3.119   7.311   0.919
 1774TIP3   OH2 5262   4.738   3.946   3.776
 1774TIP3    H1 5263   4.675   4.019   3.782
 1774TIP3    H2 5264   4.801   3.974   3.711
 1775TIP3   OH2 5265   8.150   7.530   1.302
 1775TIP3    H1 5266   8.160   7.592   1.230
 1775TIP3    H2 5267   8.177   7.446   1.264
 1776TIP3   OH2 5268   3.459   1.897   3.440
 1776TIP3    H1 5269   3.502   1.879   3.524
 1776TIP3    H2 5270   3.414   1.816   3.418
 1777TIP3   OH2 5271   2.853   0.630   5.198
 1777TIP3    H1 5272   2.888   0.569   5.262
 1777TIP3    H2 5273   2.906   0.709   5.208
 1778TIP3   OH2 5274   0.307   3.940   6.116
 1778TIP3    H1 5275   0.292   4.010   6.053
 1778TIP3    H2 5276   0.259   3.966   6.194
 1779TIP3   OH2 5277   3.221   6.409   3.160
 1779TIP3    H1 5278   3.141   6.459   3.176
 1779TIP3    H2 5279   3.208   6.327   3.208
 1780TIP3   OH2 5280   4.683   3.496   2.521
 1780TIP3    H1 5281   4.740   3.480   2.446
 1780TIP3    H2 5282   4.663   3.408   2.554
 1781TIP3   OH2 5283   3.375   7.228   4.446
 1781TIP3    H1 5284   3.442   7.174   4.488
 1781TIP3    H2 5285   3.293   7.198   4.483
 1782TIP3   OH2 5286   5.251   0.126   2.974
 1782TIP3    H1 5287   5.194   0.086   2.908
 1782TIP3    H2 5288   5.205   0.205   3.001
 1783TIP3   OH2 5289   8.268   5.362   1.142
 1783TIP3    H1 5290   8.174   5.380   1.135
 1783TIP3    H2 5291   8.287   5.303   1.069
 1784TIP3   OH2 5292   4.484   6.230   3.105
 1784TIP3    H1 5293   4.433   6.301   3.067
 1784TIP3    H2 5294   4.419   6.170   3.142
 1785TIP3   OH2 5295   8.149   2.787   2.957
 1785TIP3    H1 5296   8.095   2.859   2.989
 1785TIP3    H2 5297   8.201   2.826   2.886
 1786TIP3   OH2 5298   2.805   0.865   4.060
 1786TIP3    H1 5299   2.894   0.886   4.033
 1786TIP3    H2 5300   2.814   0.808   4.135
 1787TIP3   OH2 5301   7.834   1.336   2.762
 1787TIP3    H1 5302   7.837   1.352   2.856
 1787TIP3    H2 5303   7.888   1.405   2.724
 1788TIP3   OH2 5304   0.465   1.247   0.107
 1788TIP3    H1 5305   0.405   1.272   0.177
 1788TIP3    H2 5306   0.552   1.251   0.147
 1789TIP3   OH2 5307   7.926   1.543   6.460
 1789TIP3    H1 5308   7.974   1.460   6.460
 1789TIP3    H2 5309   7.923   1.569   6.368
 1790TIP3   OH2 5310   1.370   5.216   2.904
 1790TIP3    H1 5311   1.369   5.121   2.915
 1790TIP3    H2 5312   1.284   5.236   2.866
 1791TIP3   OH2 5313   2.034   2.304   0.976
 1791TIP3    H1 5314   2.106   2.366   0.968
 1791TIP3    H2 5315   2.016   2.276   0.886
 1792TIP3   OH2 5316   2.564   0.792   3.720
 1792TIP3    H1 5317   2.550   0.886   3.705
 1792TIP3    H2 5318   2.660   0.782   3.720
 1793TIP3   OH2 5319   5.567   3.155   5.001
 1793TIP3    H1 5320   5.593   3.103   5.076
 1793TIP3    H2 5321   5.609   3.113   4.926
 1794TIP3   OH2 5322   2.146   3.050   1.044
 1794TIP3    H1 5323   2.229   3.083   1.078
 1794TIP3    H2 5324   2.169   2.972   0.993
 1795TIP3   OH2 5325   1.393   2.847   0.218
 1795TIP3    H1 5326   1.379   2.841   0.312
 1795TIP3    H2 5327   1.337   2.779   0.181
 1796TIP3   OH2 5328   3.695   1.060   1.784
 1796TIP3    H1 5329   3.609   1.021   1.801
 1796TIP3    H2 5330   3.704   1.127   1.851
 1797TIP3   OH2 5331   6.100   6.086   6.320
 1797TIP3    H1 5332   6.183   6.133   6.310
 1797TIP3    H2 5333   6.039   6.134   6.265
 1798TIP3   OH2 5334   3.451   1.738   1.507
 1798TIP3    H1 5335   3.455   1.706   1.597
 1798TIP3    H2 5336   3.376   1.797   1.506
 1799TIP3   OH2 5337   3.332   2.701   0.914
 1799TIP3    H1 5338   3.409   2.644   0.913
 1799TIP3    H2 5339   3.365   2.786   0.887
 1800TIP3   OH2 5340   6.974   6.168   2.950
 1800TIP3    H1 5341   6.927   6.103   3.003
 1800TIP3    H2 5342   6.988   6.242   3.009
 1801TIP3   OH2 5343   1.311   0.932   6.023
 1801TIP3    H1 5344   1.268   0.847   6.014
 1801TIP3    H2 5345   1.285   0.981   5.945
 1802TIP3   OH2 5346   4.933   3.204   0.806
 1802TIP3    H1 5347   4.911   3.132   0.747
 1802TIP3    H2 5348   4.879   3.277   0.776
 1803TIP3   OH2 5349   0.728   6.891   1.188
 1803TIP3    H1 5350   0.659   6.851   1.135
 1803TIP3    H2 5351   0.810   6.859   1.150
 1804TIP3   OH2 5352   7.585   5.311   0.310
 1804TIP3    H1 5353   7.506   5.319   0.257
 1804TIP3    H2 5354   7.654   5.291   0.247
 1805TIP3   OH2 5355   3.607   5.018   4.624
 1805TIP3    H1 5356   3.615   5.013   4.529
 1805TIP3    H2 5357   3.534   4.960   4.646
 1806TIP3   OH2 5358   4.300   4.576   4.613
 1806TIP3    H1 5359   4.379   4.604   4.658
 1806TIP3    H2 5360   4.312   4.604   4.523
 1807TIP3   OH2 5361   3.657   5.177   6.395
 1807TIP3    H1 5362   3.690   5.156   6.307
 1807TIP3    H2 5363   3.578   5.125   6.404
 1808TIP3   OH2 5364   0.805   4.288   5.267
 1808TIP3    H1 5365   0.804   4.250   5.355
 1808TIP3    H2 5366   0.898   4.295   5.245
 1809TIP3   OH2 5367   6.704   5.054   4.159
 1809TIP3    H1 5368   6.733   5.116   4.225
 1809TIP3    H2 5369   6.733   4.969   4.192
 1810TIP3   OH2 5370   1.230   3.434   0.695
 1810TIP3    H1 5371   1.221   3.347   0.656
 1810TIP3    H2 5372   1.197   3.424   0.784
 1811TIP3   OH2 5373   6.553   5.259   3.411
 1811TIP3    H1 5374   6.502   5.247   3.331
 1811TIP3    H2 5375   6.644   5.262   3.382
 1812TIP3   OH2 5376   2.738   5.287   5.120
 1812TIP3    H1 5377   2.664   5.283   5.180
 1812TIP3    H2 5378   2.741   5.200   5.081
 1813TIP3   OH2 5379   0.342   2.171   1.214
 1813TIP3    H1 5380   0.418   2.118   1.190
 1813TIP3    H2 5381   0.344   2.175   1.309
 1814TIP3   OH2 5382   5.794   0.711   0.729
 1814TIP3    H1 5383   5.794   0.793   0.679
 1814TIP3    H2 5384   5.855   0.654   0.682
 1815TIP3   OH2 5385   6.235   1.585   6.504
 1815TIP3    H1 5386   6.146   1.560   6.482
 1815TIP3    H2 5387   6.234   1.598   6.599
 1816TIP3   OH2 5388   0.963   2.166   0.178
 1816TIP3    H1 5389   0.954   2.079   0.139
 1816TIP3    H2 5390   0.873   2.189   0.204
 1817TIP3   OH2 5391   6.701   1.007   0.566
 1817TIP3    H1 5392   6.713   1.071   0.636
 1817TIP3    H2 5393   6.768   1.029   0.501
 1818TIP3   OH2 5394   7.087   2.868   5.520
 1818TIP3    H1 5395   7.139   2.948   5.514
 1818TIP3    H2 5396   7.147   2.802   5.554
 1819TIP3   OH2 5397   5.678   7.885   0.992
 1819TIP3    H1 5398   5.583   7.892   0.984
 1819TIP3    H2 5399   5.691   7.812   1.053
 1820TIP3   OH2 5400   0.173   6.132   3.946
 1820TIP3    H1 5401   0.249   6.163   3.896
 1820TIP3    H2 5402   0.187   6.168   4.034
 1821TIP3   OH2 5403   1.507   5.229   4.150
 1821TIP3    H1 5404   1.568   5.194   4.086
 1821TIP3    H2 5405   1.430   5.173   4.145
 1822TIP3   OH2 5406   4.765   2.112   6.927
 1822TIP3    H1 5407   4.768   2.199   6.887
 1822TIP3    H2 5408   4.767   2.052   6.852
 1823TIP3   OH2 5409   0.657   5.662   2.158
 1823TIP3    H1 5410   0.587   5.621   2.209
 1823TIP3    H2 5411   0.632   5.645   2.067
 1824TIP3   OH2 5412   2.961   7.202   4.165
 1824TIP3    H1 5413   2.901   7.135   4.131
 1824TIP3    H2 5414   3.046   7.157   4.170
 1825TIP3   OH2 5415   6.926   6.989   4.669
 1825TIP3    H1 5416   6.929   7.048   4.744
 1825TIP3    H2 5417   7.010   7.002   4.625
 1826TIP3   OH2 5418   2.140   3.139   4.268
 1826TIP3    H1 5419   2.085   3.107   4.339
 1826TIP3    H2 5420   2.079   3.166   4.200
 1827TIP3   OH2 5421   7.288   4.896   3.259
 1827TIP3    H1 5422   7.257   4.823   3.312
 1827TIP3    H2 5423   7.312   4.963   3.322
 1828TIP3   OH2 5424   2.881   0.849   1.318
 1828TIP3    H1 5425   2.858   0.806   1.400
 1828TIP3    H2 5426   2.816   0.918   1.308
 1829TIP3   OH2 5427   1.056   4.853   5.665
 1829TIP3    H1 5428   1.103   4.834   5.747
 1829TIP3    H2 5429   0.966   4.824   5.682
 1830TIP3   OH2 5430   1.297   5.968   1.221
 1830TIP3    H1 5431   1.382   5.927   1.240
 1830TIP3    H2 5432   1.320   6.056   1.189
 1831TIP3   OH2 5433   4.300   5.956   0.661
 1831TIP3    H1 5434   4.380   5.934   0.709
 1831TIP3    H2 5435   4.330   5.987   0.576
 1832TIP3   OH2 5436   0.593   0.068   5.453
 1832TIP3    H1 5437   0.597   0.156   5.415
 1832TIP3    H2 5438   0.504   0.061   5.489
 1833TIP3   OH2 5439   6.884   3.490   4.044
 1833TIP3    H1 5440   6.918   3.508   4.132
 1833TIP3    H2 5441   6.861   3.398   4.046
 1834TIP3   OH2 5442   2.449   5.729   5.952
 1834TIP3    H1 5443   2.463   5.821   5.975
 1834TIP3    H2 5444   2.470   5.681   6.032
 1835TIP3   OH2 5445   2.319   0.462   4.366
 1835TIP3    H1 5446   2.284   0.452   4.454
 1835TIP3    H2 5447   2.256   0.417   4.310
 1836TIP3   OH2 5448   1.784   6.977   0.635
 1836TIP3    H1 5449   1.725   7.003   0.706
 1836TIP3    H2 5450   1.739   6.904   0.593
 1837TIP3   OH2 5451   4.247   3.321   2.303
 1837TIP3    H1 5452   4.257   3.305   2.209
 1837TIP3    H2 5453   4.180   3.389   2.309
 1838TIP3   OH2 5454   5.944   4.565   4.168
 1838TIP3    H1 5455   5.868   4.603   4.125
 1838TIP3    H2 5456   6.013   4.565   4.101
 1839TIP3   OH2 5457   4.260   4.128   4.837
 1839TIP3    H1 5458   4.355   4.134   4.849
 1839TIP3    H2 5459   4.238   4.204   4.783
 1840TIP3   OH2 5460   1.327   4.984   0.843
 1840TIP3    H1 5461   1.233   4.971   0.833
 1840TIP3    H2 5462   1.366   4.931   0.773
 1841TIP3   OH2 5463   7.219   4.059   6.464
 1841TIP3    H1 5464   7.220   4.122   6.536
 1841TIP3    H2 5465   7.311   4.043   6.444
 1842TIP3   OH2 5466   3.780   3.306   1.735
 1842TIP3    H1 5467   3.804   3.222   1.697
 1842TIP3    H2 5468   3.705   3.336   1.682
 1843TIP3   OH2 5469   0.446   7.409   3.278
 1843TIP3    H1 5470   0.436   7.478   3.343
 1843TIP3    H2 5471   0.538   7.382   3.286
 1844TIP3   OH2 5472   0.121   5.781   6.228
 1844TIP3    H1 5473   0.212   5.806   6.212
 1844TIP3    H2 5474   0.113   5.695   6.187
 1845TIP3   OH2 5475   2.865   4.512   1.774
 1845TIP3    H1 5476   2.803   4.529   1.702
 1845TIP3    H2 5477   2.809   4.495   1.850
 1846TIP3   OH2 5478   6.111   2.539   0.804
 1846TIP3    H1 5479   6.064   2.465   0.843
 1846TIP3    H2 5480   6.044   2.606   0.791
 1847TIP3   OH2 5481   1.887   5.182   3.766
 1847TIP3    H1 5482   1.876   5.124   3.840
 1847TIP3    H2 5483   1.904   5.268   3.805
 1848TIP3   OH2 5484   2.320   1.688   3.731
 1848TIP3    H1 5485   2.406   1.698   3.690
 1848TIP3    H2 5486   2.317   1.596   3.758
 1849TIP3   OH2 5487  -0.019   2.830   1.714
 1849TIP3    H1 5488   0.012   2.900   1.771
 1849TIP3    H2 5489   0.041   2.830   1.640
 1850TIP3   OH2 5490   6.404   2.352   2.835
 1850TIP3    H1 5491   6.343   2.280   2.851
 1850TIP3    H2 5492   6.382   2.384   2.748
 1851TIP3   OH2 5493   2.456   6.346   3.491
 1851TIP3    H1 5494   2.522   6.374   3.555
 1851TIP3    H2 5495   2.472   6.401   3.414
 1852TIP3   OH2 5496   7.784   6.553  -0.001
 1852TIP3    H1 5497   7.792   6.471  -0.050
 1852TIP3    H2 5498   7.744   6.527   0.082
 1853TIP3   OH2 5499   5.126   5.229   2.497
 1853TIP3    H1 5500   5.031   5.218   2.495
 1853TIP3    H2 5501   5.146   5.278   2.417
 1854TIP3   OH2 5502   2.753   6.624   6.759
 1854TIP3    H1 5503   2.741   6.613   6.665
 1854TIP3    H2 5504   2.845   6.605   6.775
 1855TIP3   OH2 5505   4.534   2.769   4.708
 1855TIP3    H1 5506   4.571   2.837   4.765
 1855TIP3    H2 5507   4.578   2.688   4.736
 1856TIP3   OH2 5508   3.930   2.801   1.738
 1856TIP3    H1 5509   4.012   2.803   1.788
 1856TIP3    H2 5510   3.869   2.852   1.791
 1857TIP3   OH2 5511   7.381   4.701   3.628
 1857TIP3    H1 5512   7.335   4.676   3.548
 1857TIP3    H2 5513   7.463   4.741   3.598
 1858TIP3   OH2 5514   0.243   6.486   2.880
 1858TIP3    H1 5515   0.167   6.440   2.917
 1858TIP3    H2 5516   0.298   6.505   2.956
 1859TIP3   OH2 5517   5.762   4.788   4.963
 1859TIP3    H1 5518   5.720   4.856   5.015
 1859TIP3    H2 5519   5.699   4.768   4.894
 1860TIP3   OH2 5520   8.163   3.586   4.258
 1860TIP3    H1 5521   8.206   3.671   4.260
 1860TIP3    H2 5522   8.216   3.533   4.200
 1861TIP3   OH2 5523   3.298   1.110   0.981
 1861TIP3    H1 5524   3.232   1.044   1.000
 1861TIP3    H2 5525   3.288   1.127   0.887
 1862TIP3   OH2 5526   2.039   4.842   5.131
 1862TIP3    H1 5527   2.129   4.875   5.127
 1862TIP3    H2 5528   1.987   4.912   5.093
 1863TIP3   OH2 5529   3.887   7.555   6.576
 1863TIP3    H1 5530   3.824   7.492   6.540
 1863TIP3    H2 5531   3.905   7.523   6.665
 1864TIP3   OH2 5532   7.417   1.266   0.478
 1864TIP3    H1 5533   7.508   1.297   0.477
 1864TIP3    H2 5534   7.387   1.276   0.388
 1865TIP3   OH2 5535   3.563   4.783   2.284
 1865TIP3    H1 5536   3.515   4.829   2.215
 1865TIP3    H2 5537   3.649   4.767   2.246
 1866TIP3   OH2 5538   4.786   5.947   0.852
 1866TIP3    H1 5539   4.830   5.865   0.826
 1866TIP3    H2 5540   4.774   5.995   0.770
 1867TIP3   OH2 5541   8.330   2.777   0.594
 1867TIP3    H1 5542   8.237   2.762   0.575
 1867TIP3    H2 5543   8.364   2.691   0.616
 1868TIP3   OH2 5544   2.875   6.159   6.102
 1868TIP3    H1 5545   2.938   6.119   6.042
 1868TIP3    H2 5546   2.928   6.200   6.170
 1869TIP3   OH2 5547   2.394   7.021   3.559
 1869TIP3    H1 5548   2.486   7.017   3.585
 1869TIP3    H2 5549   2.346   7.001   3.639
 1870TIP3   OH2 5550   0.964   0.894   6.785
 1870TIP3    H1 5551   1.041   0.877   6.839
 1870TIP3    H2 5552   0.918   0.810   6.781
 1871TIP3   OH2 5553   1.657   0.946   0.348
 1871TIP3    H1 5554   1.748   0.959   0.373
 1871TIP3    H2 5555   1.621   0.889   0.416
 1872TIP3   OH2 5556   8.192   1.715   3.333
 1872TIP3    H1 5557   8.213   1.644   3.273
 1872TIP3    H2 5558   8.101   1.738   3.312
 1873TIP3   OH2 5559   1.803   2.374   1.123
 1873TIP3    H1 5560   1.845   2.411   1.201
 1873TIP3    H2 5561   1.876   2.351   1.065
 1874TIP3   OH2 5562   4.264   1.523   3.401
 1874TIP3    H1 5563   4.240   1.546   3.491
 1874TIP3    H2 5564   4.257   1.428   3.398
 1875TIP3   OH2 5565   3.260   4.421   4.433
 1875TIP3    H1 5566   3.339   4.370   4.420
 1875TIP3    H2 5567   3.188   4.358   4.425
 1876TIP3   OH2 5568   4.797   5.591   1.814
 1876TIP3    H1 5569   4.722   5.633   1.856
 1876TIP3    H2 5570   4.761   5.510   1.778
 1877TIP3   OH2 5571   6.582   3.744   6.431
 1877TIP3    H1 5572   6.633   3.689   6.491
 1877TIP3    H2 5573   6.641   3.759   6.357
 1878TIP3   OH2 5574   7.464   1.036   4.627
 1878TIP3    H1 5575   7.487   0.974   4.696
 1878TIP3    H2 5576   7.495   1.121   4.660
 1879TIP3   OH2 5577   7.225   2.203   2.333
 1879TIP3    H1 5578   7.204   2.123   2.284
 1879TIP3    H2 5579   7.285   2.174   2.401
 1880TIP3   OH2 5580   2.456   1.727   1.214
 1880TIP3    H1 5581   2.519   1.742   1.144
 1880TIP3    H2 5582   2.371   1.730   1.172
 1881TIP3   OH2 5583   1.501   5.642   5.719
 1881TIP3    H1 5584   1.563   5.714   5.710
 1881TIP3    H2 5585   1.468   5.650   5.809
 1882TIP3   OH2 5586   1.903   2.375   1.933
 1882TIP3    H1 5587   1.846   2.403   2.004
 1882TIP3    H2 5588   1.928   2.456   1.889
 1883TIP3   OH2 5589   5.278   3.755   2.978
 1883TIP3    H1 5590   5.313   3.795   3.058
 1883TIP3    H2 5591   5.321   3.802   2.907
 1884TIP3   OH2 5592   3.535   6.486   1.448
 1884TIP3    H1 5593   3.540   6.525   1.535
 1884TIP3    H2 5594   3.558   6.557   1.388
 1885TIP3   OH2 5595   0.029   2.054   3.367
 1885TIP3    H1 5596   0.029   1.998   3.289
 1885TIP3    H2 5597   0.042   1.993   3.440
 1886TIP3   OH2 5598   8.364   6.481   4.100
 1886TIP3    H1 5599   8.381   6.569   4.133
 1886TIP3    H2 5600   8.355   6.492   4.005
 1887TIP3   OH2 5601   4.625   6.465   5.256
 1887TIP3    H1 5602   4.674   6.407   5.196
 1887TIP3    H2 5603   4.608   6.543   5.204
 1888TIP3   OH2 5604   0.119   3.380   3.406
 1888TIP3    H1 5605   0.128   3.296   3.362
 1888TIP3    H2 5606   0.130   3.445   3.337
 1889TIP3   OH2 5607   2.246   6.936   0.042
 1889TIP3    H1 5608   2.191   6.898  -0.027
 1889TIP3    H2 5609   2.188   6.945   0.117
 1890TIP3   OH2 5610   2.261   1.293   6.844
 1890TIP3    H1 5611   2.202   1.317   6.914
 1890TIP3    H2 5612   2.207   1.294   6.765
 1891TIP3   OH2 5613   4.388   3.882   1.653
 1891TIP3    H1 5614   4.318   3.823   1.683
 1891TIP3    H2 5615   4.342   3.954   1.611
 1892TIP3   OH2 5616   5.244   3.933   1.303
 1892TIP3    H1 5617   5.249   3.976   1.217
 1892TIP3    H2 5618   5.171   3.871   1.295
 1893TIP3   OH2 5619   7.099   6.868   6.601
 1893TIP3    H1 5620   7.039   6.810   6.555
 1893TIP3    H2 5621   7.172   6.811   6.627
 1894TIP3   OH2 5622   1.311   1.971   3.064
 1894TIP3    H1 5623   1.374   1.931   3.005
 1894TIP3    H2 5624   1.230   1.976   3.013
 1895TIP3   OH2 5625   4.742   0.461   4.713
 1895TIP3    H1 5626   4.671   0.493   4.769
 1895TIP3    H2 5627   4.698   0.403   4.651
 1896TIP3   OH2 5628   0.819   3.746   3.084
 1896TIP3    H1 5629   0.818   3.654   3.059
 1896TIP3    H2 5630   0.728   3.764   3.110
 1897TIP3   OH2 5631   6.098   1.621   2.515
 1897TIP3    H1 5632   6.091   1.526   2.521
 1897TIP3    H2 5633   6.171   1.644   2.573
 1898TIP3   OH2 5634   2.016   2.489   4.525
 1898TIP3    H1 5635   2.048   2.433   4.596
 1898TIP3    H2 5636   1.926   2.461   4.511
 1899TIP3   OH2 5637   7.370   0.460   5.296
 1899TIP3    H1 5638   7.388   0.549   5.325
 1899TIP3    H2 5639   7.454   0.415   5.302
 1900TIP3   OH2 5640   0.205   1.368   0.937
 1900TIP3    H1 5641   0.150   1.369   1.015
 1900TIP3    H2 5642   0.259   1.447   0.944
 1901TIP3   OH2 5643   5.893   3.270   2.739
 1901TIP3    H1 5644   5.888   3.278   2.834
 1901TIP3    H2 5645   5.821   3.325   2.707
 1902TIP3   OH2 5646   1.405   6.852   4.400
 1902TIP3    H1 5647   1.499   6.859   4.379
 1902TIP3    H2 5648   1.382   6.763   4.372
 1903TIP3   OH2 5649   5.785   7.646   4.532
 1903TIP3    H1 5650   5.774   7.584   4.460
 1903TIP3    H2 5651   5.807   7.729   4.489
 1904TIP3   OH2 5652   7.581   3.646   3.716
 1904TIP3    H1 5653   7.588   3.670   3.809
 1904TIP3    H2 5654   7.486   3.642   3.700
 1905TIP3   OH2 5655   1.454   4.257   2.116
 1905TIP3    H1 5656   1.532   4.277   2.169
 1905TIP3    H2 5657   1.404   4.339   2.116
 1906TIP3   OH2 5658   5.156   7.600   3.917
 1906TIP3    H1 5659   5.210   7.597   3.838
 1906TIP3    H2 5660   5.176   7.519   3.964
 1907TIP3   OH2 5661   6.413   3.395   1.175
 1907TIP3    H1 5662   6.328   3.410   1.135
 1907TIP3    H2 5663   6.425   3.300   1.170
 1908TIP3   OH2 5664   7.815   2.790   2.563
 1908TIP3    H1 5665   7.845   2.724   2.500
 1908TIP3    H2 5666   7.755   2.845   2.513
 1909TIP3   OH2 5667   4.641   2.845   3.439
 1909TIP3    H1 5668   4.668   2.908   3.507
 1909TIP3    H2 5669   4.570   2.796   3.479
 1910TIP3   OH2 5670   7.166   5.805   4.962
 1910TIP3    H1 5671   7.144   5.765   4.877
 1910TIP3    H2 5672   7.083   5.840   4.994
 1911TIP3   OH2 5673   6.567   4.449   0.194
 1911TIP3    H1 5674   6.591   4.506   0.267
 1911TIP3    H2 5675   6.643   4.392   0.182
 1912TIP3   OH2 5676   3.447   4.358   0.010
 1912TIP3    H1 5677   3.405   4.373  -0.075
 1912TIP3    H2 5678   3.476   4.267   0.005
 1913TIP3   OH2 5679   1.113   0.407   0.117
 1913TIP3    H1 5680   1.044   0.352   0.081
 1913TIP3    H2 5681   1.190   0.386   0.064
 1914TIP3   OH2 5682   6.667   1.771   4.691
 1914TIP3    H1 5683   6.728   1.721   4.746
 1914TIP3    H2 5684   6.691   1.746   4.601
 1915TIP3   OH2 5685   4.522   4.339   4.577
 1915TIP3    H1 5686   4.474   4.391   4.641
 1915TIP3    H2 5687   4.554   4.263   4.626
 1916TIP3   OH2 5688   0.302   6.445   0.108
 1916TIP3    H1 5689   0.273   6.358   0.080
 1916TIP3    H2 5690   0.227   6.482   0.154
 1917TIP3   OH2 5691   3.699   2.066   2.219
 1917TIP3    H1 5692   3.657   2.147   2.189
 1917TIP3    H2 5693   3.699   2.009   2.142
 1918TIP3   OH2 5694   8.355   7.703   3.521
 1918TIP3    H1 5695   8.348   7.689   3.426
 1918TIP3    H2 5696   8.270   7.675   3.555
 1919TIP3   OH2 5697   0.607   5.843   1.004
 1919TIP3    H1 5698   0.557   5.867   1.082
 1919TIP3    H2 5699   0.555   5.875   0.931
 1920TIP3   OH2 5700   1.817   6.423   3.451
 1920TIP3    H1 5701   1.769   6.365   3.392
 1920TIP3    H2 5702   1.768   6.418   3.533
 1921TIP3   OH2 5703   1.607   7.475   3.204
 1921TIP3    H1 5704   1.639   7.515   3.123
 1921TIP3    H2 5705   1.579   7.549   3.258
 1922TIP3   OH2 5706   1.913   4.114   5.157
 1922TIP3    H1 5707   1.868   4.060   5.222
 1922TIP3    H2 5708   1.989   4.149   5.204
 1923TIP3   OH2 5709   5.309   5.286   5.571
 1923TIP3    H1 5710   5.259   5.217   5.615
 1923TIP3    H2 5711   5.260   5.303   5.490
 1924TIP3   OH2 5712   7.493   3.537   4.533
 1924TIP3    H1 5713   7.437   3.464   4.507
 1924TIP3    H2 5714   7.582   3.504   4.524
 1925TIP3   OH2 5715   7.363   6.251   6.601
 1925TIP3    H1 5716   7.423   6.177   6.594
 1925TIP3    H2 5717   7.324   6.259   6.514
 1926TIP3   OH2 5718   6.633   3.881   6.179
 1926TIP3    H1 5719   6.728   3.897   6.177
 1926TIP3    H2 5720   6.594   3.967   6.192
 1927TIP3   OH2 5721  -0.006   4.450   5.077
 1927TIP3    H1 5722   0.006   4.403   5.160
 1927TIP3    H2 5723   0.061   4.518   5.078
 1928TIP3   OH2 5724   4.287   1.077   3.959
 1928TIP3    H1 5725   4.219   1.143   3.972
 1928TIP3    H2 5726   4.263   1.005   4.018
 1929TIP3   OH2 5727   7.126   0.436   2.805
 1929TIP3    H1 5728   7.161   0.482   2.729
 1929TIP3    H2 5729   7.093   0.353   2.771
 1930TIP3   OH2 5730   3.164   2.164   0.465
 1930TIP3    H1 5731   3.069   2.179   0.457
 1930TIP3    H2 5732   3.197   2.174   0.376
 1931TIP3   OH2 5733   7.895   0.191   4.136
 1931TIP3    H1 5734   7.971   0.199   4.079
 1931TIP3    H2 5735   7.862   0.102   4.120
 1932TIP3   OH2 5736   1.710   5.704   3.615
 1932TIP3    H1 5737   1.652   5.628   3.617
 1932TIP3    H2 5738   1.797   5.669   3.634
 1933TIP3   OH2 5739   4.141   4.778   3.717
 1933TIP3    H1 5740   4.214   4.716   3.723
 1933TIP3    H2 5741   4.180   4.856   3.678
 1934TIP3   OH2 5742   6.524   3.752   3.317
 1934TIP3    H1 5743   6.500   3.788   3.403
 1934TIP3    H2 5744   6.453   3.780   3.259
 1935TIP3   OH2 5745   5.909   0.134   5.434
 1935TIP3    H1 5746   5.931   0.204   5.374
 1935TIP3    H2 5747   5.815   0.142   5.447
 1936TIP3   OH2 5748   6.575   2.172   0.445
 1936TIP3    H1 5749   6.484   2.186   0.471
 1936TIP3    H2 5750   6.614   2.127   0.520
 1937TIP3   OH2 5751   7.532   6.465   2.957
 1937TIP3    H1 5752   7.484   6.421   2.887
 1937TIP3    H2 5753   7.589   6.398   2.993
 1938TIP3   OH2 5754   7.038   3.810   4.125
 1938TIP3    H1 5755   7.116   3.842   4.171
 1938TIP3    H2 5756   6.993   3.889   4.097
 1939TIP3   OH2 5757   3.870   1.627   2.106
 1939TIP3    H1 5758   3.944   1.566   2.102
 1939TIP3    H2 5759   3.855   1.651   2.014
 1940TIP3   OH2 5760   0.066   6.594   1.023
 1940TIP3    H1 5761   0.049   6.674   1.074
 1940TIP3    H2 5762   0.137   6.550   1.070
 1941TIP3   OH2 5763   2.190   3.852   1.958
 1941TIP3    H1 5764   2.154   3.795   2.026
 1941TIP3    H2 5765   2.118   3.910   1.934
 1942TIP3   OH2 5766   2.832   1.733   3.202
 1942TIP3    H1 5767   2.896   1.710   3.135
 1942TIP3    H2 5768   2.774   1.797   3.159
 1943TIP3   OH2 5769   7.695   1.349   1.821
 1943TIP3    H1 5770   7.788   1.331   1.840
 1943TIP3    H2 5771   7.693   1.443   1.802
 1944TIP3   OH2 5772   8.090   3.551   6.902
 1944TIP3    H1 5773   8.107   3.480   6.840
 1944TIP3    H2 5774   8.130   3.628   6.862
 1945TIP3   OH2 5775   0.537   6.221   0.712
 1945TIP3    H1 5776   0.608   6.248   0.654
 1945TIP3    H2 5777   0.547   6.276   0.789
 1946TIP3   OH2 5778   2.430   0.058   5.829
 1946TIP3    H1 5779   2.494   0.129   5.820
 1946TIP3    H2 5780   2.464   0.004   5.900
 1947TIP3   OH2 5781   0.937   5.882   2.460
 1947TIP3    H1 5782   0.861   5.826   2.445
 1947TIP3    H2 5783   0.908   5.969   2.435
 1948TIP3   OH2 5784   5.876   1.820   2.662
 1948TIP3    H1 5785   5.922   1.743   2.628
 1948TIP3    H2 5786   5.839   1.790   2.745
 1949TIP3   OH2 5787   3.693   2.159   5.639
 1949TIP3    H1 5788   3.777   2.203   5.651
 1949TIP3    H2 5789   3.633   2.229   5.611
 1950TIP3   OH2 5790   0.975   6.346   5.521
 1950TIP3    H1 5791   0.970   6.418   5.458
 1950TIP3    H2 5792   0.984   6.389   5.606
 1951TIP3   OH2 5793   1.414   5.315   1.576
 1951TIP3    H1 5794   1.319   5.308   1.566
 1951TIP3    H2 5795   1.446   5.339   1.489
 1952TIP3   OH2 5796   5.552   3.860   1.253
 1952TIP3    H1 5797   5.468   3.819   1.274
 1952TIP3    H2 5798   5.601   3.858   1.335
 1953TIP3   OH2 5799   3.028   3.861   6.582
 1953TIP3    H1 5800   2.948   3.813   6.605
 1953TIP3    H2 5801   3.098   3.796   6.591
 1954TIP3   OH2 5802   7.691   5.469   4.114
 1954TIP3    H1 5803   7.646   5.499   4.193
 1954TIP3    H2 5804   7.745   5.395   4.143
 1955TIP3   OH2 5805   1.705   2.602   6.401
 1955TIP3    H1 5806   1.666   2.680   6.361
 1955TIP3    H2 5807   1.666   2.596   6.487
 1956TIP3   OH2 5808   5.231   0.442   1.428
 1956TIP3    H1 5809   5.282   0.391   1.365
 1956TIP3    H2 5810   5.147   0.397   1.433
 1957TIP3   OH2 5811   1.631   7.665   5.646
 1957TIP3    H1 5812   1.686   7.617   5.584
 1957TIP3    H2 5813   1.550   7.615   5.650
 1958TIP3   OH2 5814   5.144   1.271   1.992
 1958TIP3    H1 5815   5.176   1.353   1.954
 1958TIP3    H2 5816   5.076   1.298   2.054
 1959TIP3   OH2 5817   3.843   0.205   1.698
 1959TIP3    H1 5818   3.848   0.154   1.778
 1959TIP3    H2 5819   3.764   0.173   1.654
 1960TIP3   OH2 5820   0.487   1.636   5.900
 1960TIP3    H1 5821   0.522   1.592   5.822
 1960TIP3    H2 5822   0.487   1.729   5.877
 1961TIP3   OH2 5823   8.120   1.685   3.611
 1961TIP3    H1 5824   8.065   1.608   3.620
 1961TIP3    H2 5825   8.136   1.693   3.517
 1962TIP3   OH2 5826   3.278   4.016   6.111
 1962TIP3    H1 5827   3.291   4.049   6.200
 1962TIP3    H2 5828   3.204   4.066   6.078
 1963TIP3   OH2 5829   1.150   7.761   1.552
 1963TIP3    H1 5830   1.197   7.844   1.544
 1963TIP3    H2 5831   1.215   7.694   1.531
 1964TIP3   OH2 5832   0.267   2.324   1.738
 1964TIP3    H1 5833   0.176   2.301   1.719
 1964TIP3    H2 5834   0.288   2.276   1.818
 1965TIP3   OH2 5835   4.889   7.002   3.388
 1965TIP3    H1 5836   4.818   7.045   3.436
 1965TIP3    H2 5837   4.845   6.949   3.322
 1966TIP3   OH2 5838   5.669   7.472   6.704
 1966TIP3    H1 5839   5.595   7.415   6.725
 1966TIP3    H2 5840   5.634   7.531   6.636
 1967TIP3   OH2 5841   5.738   2.773   2.428
 1967TIP3    H1 5842   5.698   2.703   2.480
 1967TIP3    H2 5843   5.699   2.854   2.462
 1968TIP3   OH2 5844   0.844   4.768   1.594
 1968TIP3    H1 5845   0.786   4.823   1.646
 1968TIP3    H2 5846   0.849   4.685   1.643
 1969TIP3   OH2 5847   6.187   4.482   5.547
 1969TIP3    H1 5848   6.182   4.388   5.530
 1969TIP3    H2 5849   6.172   4.523   5.462
 1970TIP3   OH2 5850   8.382   3.298   2.707
 1970TIP3    H1 5851   8.378   3.266   2.616
 1970TIP3    H2 5852   8.475   3.293   2.730
 1971TIP3   OH2 5853   5.875   5.149   5.660
 1971TIP3    H1 5854   5.828   5.196   5.591
 1971TIP3    H2 5855   5.961   5.190   5.663
 1972TIP3   OH2 5856   6.212   1.794   0.988
 1972TIP3    H1 5857   6.253   1.731   0.929
 1972TIP3    H2 5858   6.267   1.872   0.982
 1973TIP3   OH2 5859   6.529   6.039   0.047
 1973TIP3    H1 5860   6.574   6.028   0.131
 1973TIP3    H2 5861   6.495   6.128   0.051
 1974TIP3   OH2 5862   5.162   1.340   3.927
 1974TIP3    H1 5863   5.236   1.400   3.932
 1974TIP3    H2 5864   5.128   1.350   3.839
 1975TIP3   OH2 5865   2.984   1.124   1.179
 1975TIP3    H1 5866   2.961   1.209   1.217
 1975TIP3    H2 5867   3.034   1.080   1.248
 1976TIP3   OH2 5868   4.598   2.888   0.950
 1976TIP3    H1 5869   4.676   2.894   1.004
 1976TIP3    H2 5870   4.626   2.841   0.872
 1977TIP3   OH2 5871   0.992   4.677   4.860
 1977TIP3    H1 5872   0.903   4.699   4.888
 1977TIP3    H2 5873   1.026   4.623   4.932
 1978TIP3   OH2 5874   5.897   5.475   0.198
 1978TIP3    H1 5875   5.814   5.514   0.170
 1978TIP3    H2 5876   5.907   5.398   0.144
 1979TIP3   OH2 5877   1.557   6.082   1.639
 1979TIP3    H1 5878   1.512   6.024   1.578
 1979TIP3    H2 5879   1.599   6.148   1.583
 1980TIP3   OH2 5880   4.159   7.391   0.867
 1980TIP3    H1 5881   4.230   7.399   0.930
 1980TIP3    H2 5882   4.200   7.359   0.787
 1981TIP3   OH2 5883   7.314   5.378   4.809
 1981TIP3    H1 5884   7.252   5.323   4.762
 1981TIP3    H2 5885   7.262   5.421   4.877
 1982TIP3   OH2 5886   0.885   0.064   2.290
 1982TIP3    H1 5887   0.816   0.107   2.340
 1982TIP3    H2 5888   0.949   0.133   2.273
 1983TIP3   OH2 5889   2.309   4.161   2.132
 1983TIP3    H1 5890   2.272   4.076   2.156
 1983TIP3    H2 5891   2.366   4.142   2.057
 1984TIP3   OH2 5892   8.162   3.150   4.304
 1984TIP3    H1 5893   8.070   3.179   4.306
 1984TIP3    H2 5894   8.183   3.131   4.395
 1985TIP3   OH2 5895   0.833   7.792   1.963
 1985TIP3    H1 5896   0.777   7.851   1.913
 1985TIP3    H2 5897   0.773   7.728   2.001
 1986TIP3   OH2 5898   7.719   0.286   0.474
 1986TIP3    H1 5899   7.762   0.338   0.541
 1986TIP3    H2 5900   7.754   0.198   0.484
 1987TIP3   OH2 5901   3.220   0.565   0.729
 1987TIP3    H1 5902   3.199   0.598   0.816
 1987TIP3    H2 5903   3.315   0.562   0.726
 1988TIP3   OH2 5904   3.316   7.882   4.311
 1988TIP3    H1 5905   3.380   7.915   4.375
 1988TIP3    H2 5906   3.231   7.903   4.348
 1989TIP3   OH2 5907   1.621   5.161   2.715
 1989TIP3    H1 5908   1.572   5.212   2.780
 1989TIP3    H2 5909   1.683   5.224   2.677
 1990TIP3   OH2 5910   7.941   5.597   6.260
 1990TIP3    H1 5911   7.849   5.572   6.254
 1990TIP3    H2 5912   7.966   5.580   6.351
 1991TIP3   OH2 5913   1.210   3.692   0.932
 1991TIP3    H1 5914   1.230   3.670   0.841
 1991TIP3    H2 5915   1.219   3.609   0.979
 1992TIP3   OH2 5916   7.547   4.383   5.610
 1992TIP3    H1 5917   7.630   4.348   5.579
 1992TIP3    H2 5918   7.569   4.431   5.690
 1993TIP3   OH2 5919   7.469   1.698   3.455
 1993TIP3    H1 5920   7.447   1.742   3.373
 1993TIP3    H2 5921   7.545   1.644   3.434
 1994TIP3   OH2 5922   0.368   7.195   5.315
 1994TIP3    H1 5923   0.427   7.122   5.297
 1994TIP3    H2 5924   0.389   7.261   5.249
 1995TIP3   OH2 5925   2.541   0.410   1.223
 1995TIP3    H1 5926   2.445   0.416   1.221
 1995TIP3    H2 5927   2.564   0.414   1.315
 1996TIP3   OH2 5928   4.818   3.989   0.011
 1996TIP3    H1 5929   4.832   3.931   0.086
 1996TIP3    H2 5930   4.734   3.961  -0.025
 1997TIP3   OH2 5931   7.201   6.023   3.294
 1997TIP3    H1 5932   7.170   5.990   3.378
 1997TIP3    H2 5933   7.242   5.947   3.252
 1998TIP3   OH2 5934   4.437   2.037   6.202
 1998TIP3    H1 5935   4.520   2.074   6.233
 1998TIP3    H2 5936   4.373   2.062   6.268
 1999TIP3   OH2 5937   7.429   3.828   1.704
 1999TIP3    H1 5938   7.445   3.876   1.623
 1999TIP3    H2 5939   7.407   3.739   1.675
 2000TIP3   OH2 5940   4.925   3.645   0.711
 2000TIP3    H1 5941   4.990   3.653   0.780
 2000TIP3    H2 5942   4.858   3.710   0.733
 2001TIP3   OH2 5943   6.987   0.216   2.734
 2001TIP3    H1 5944   6.893   0.204   2.748
 2001TIP3    H2 5945   7.025   0.129   2.749
 2002TIP3   OH2 5946   3.331   0.834   2.823
 2002TIP3    H1 5947   3.285   0.913   2.850
 2002TIP3    H2 5948   3.309   0.823   2.730
 2003TIP3   OH2 5949   5.401   7.897   2.576
 2003TIP3    H1 5950   5.459   7.900   2.500
 2003TIP3    H2 5951   5.457   7.865   2.647
 2004TIP3   OH2 5952   6.454   2.945   5.756
 2004TIP3    H1 5953   6.536   2.898   5.745
 2004TIP3    H2 5954   6.479   3.032   5.786
 2005TIP3   OH2 5955   0.959   5.217   0.882
 2005TIP3    H1 5956   1.030   5.247   0.939
 2005TIP3    H2 5957   0.886   5.202   0.941
 2006TIP3   OH2 5958   2.518   1.491   2.780
 2006TIP3    H1 5959   2.566   1.436   2.842
 2006TIP3    H2 5960   2.536   1.581   2.810
 2007TIP3   OH2 5961   3.974   1.392   6.514
 2007TIP3    H1 5962   4.010   1.467   6.466
 2007TIP3    H2 5963   3.895   1.369   6.465
 2008TIP3   OH2 5964   1.800   7.398   0.305
 2008TIP3    H1 5965   1.882   7.430   0.342
 2008TIP3    H2 5966   1.775   7.326   0.364
 2009TIP3   OH2 5967   4.378   1.679   2.398
 2009TIP3    H1 5968   4.470   1.665   2.373
 2009TIP3    H2 5969   4.337   1.709   2.317
 2010TIP3   OH2 5970   3.262   2.070   2.419
 2010TIP3    H1 5971   3.258   2.060   2.324
 2010TIP3    H2 5972   3.238   2.161   2.435
 2011TIP3   OH2 5973   5.998   0.596   2.258
 2011TIP3    H1 5974   5.926   0.587   2.195
 2011TIP3    H2 5975   5.959   0.644   2.331
 2012TIP3   OH2 5976   1.940   2.849   6.543
 2012TIP3    H1 5977   2.034   2.867   6.545
 2012TIP3    H2 5978   1.914   2.869   6.453
 2013TIP3   OH2 5979   2.491   5.426   3.037
 2013TIP3    H1 5980   2.435   5.492   3.077
 2013TIP3    H2 5981   2.469   5.429   2.944
 2014TIP3   OH2 5982   5.312   0.124   6.285
 2014TIP3    H1 5983   5.263   0.079   6.354
 2014TIP3    H2 5984   5.249   0.134   6.213
 2015TIP3   OH2 5985   5.141   5.275   4.463
 2015TIP3    H1 5986   5.060   5.308   4.424
 2015TIP3    H2 5987   5.156   5.334   4.538
 2016TIP3   OH2 5988   3.038   3.493   0.641
 2016TIP3    H1 5989   2.960   3.538   0.607
 2016TIP3    H2 5990   3.094   3.482   0.565
 2017TIP3   OH2 5991   4.146   7.767   2.017
 2017TIP3    H1 5992   4.107   7.767   2.104
 2017TIP3    H2 5993   4.177   7.677   2.005
 2018TIP3   OH2 5994   2.088   2.705   0.782
 2018TIP3    H1 5995   2.082   2.620   0.738
 2018TIP3    H2 5996   2.067   2.769   0.713
 2019TIP3   OH2 5997   2.922   7.304   5.477
 2019TIP3    H1 5998   2.920   7.371   5.409
 2019TIP3    H2 5999   2.961   7.348   5.553
 2020TIP3   OH2 6000   3.928   0.797   5.745
 2020TIP3    H1 6001   3.999   0.737   5.723
 2020TIP3    H2 6002   3.866   0.744   5.795
 2021TIP3   OH2 6003   6.228   6.468   5.009
 2021TIP3    H1 6004   6.257   6.540   5.065
 2021TIP3    H2 6005   6.144   6.442   5.045
 2022TIP3   OH2 6006   0.058   3.175   4.626
 2022TIP3    H1 6007   0.006   3.105   4.586
 2022TIP3    H2 6008  -0.007   3.241   4.651
 2023TIP3   OH2 6009   2.067   1.890   3.261
 2023TIP3    H1 6010   2.023   1.969   3.294
 2023TIP3    H2 6011   2.082   1.837   3.339
 2024TIP3   OH2 6012   1.361   3.937   0.969
 2024TIP3    H1 6013   1.297   3.867   0.954
 2024TIP3    H2 6014   1.308   4.016   0.981
 2025TIP3   OH2 6015   4.132   3.225   6.794
 2025TIP3    H1 6016   4.222   3.235   6.825
 2025TIP3    H2 6017   4.136   3.248   6.701
 2026TIP3   OH2 6018   1.974   7.927   1.874
 2026TIP3    H1 6019   1.925   7.998   1.832
 2026TIP3    H2 6020   2.013   7.879   1.801
 2027TIP3   OH2 6021   2.716   6.826   4.705
 2027TIP3    H1 6022   2.644   6.804   4.646
 2027TIP3    H2 6023   2.774   6.750   4.701
 2028TIP3   OH2 6024   7.332   1.141   2.587
 2028TIP3    H1 6025   7.361   1.229   2.612
 2028TIP3    H2 6026   7.381   1.082   2.644
 2029TIP3   OH2 6027   0.390   7.598   1.662
 2029TIP3    H1 6028   0.378   7.690   1.639
 2029TIP3    H2 6029   0.410   7.555   1.579
 2030TIP3   OH2 6030   4.912   1.443   0.520
 2030TIP3    H1 6031   4.971   1.426   0.593
 2030TIP3    H2 6032   4.948   1.522   0.478
 2031TIP3   OH2 6033   1.295   3.385   3.329
 2031TIP3    H1 6034   1.306   3.413   3.238
 2031TIP3    H2 6035   1.371   3.329   3.346
 2032TIP3   OH2 6036   4.572   6.264   3.376
 2032TIP3    H1 6037   4.630   6.309   3.315
 2032TIP3    H2 6038   4.534   6.192   3.325
 2033TIP3   OH2 6039   3.859   3.271   4.598
 2033TIP3    H1 6040   3.806   3.196   4.572
 2033TIP3    H2 6041   3.845   3.279   4.693
 2034TIP3   OH2 6042   5.266   0.245   3.320
 2034TIP3    H1 6043   5.330   0.271   3.254
 2034TIP3    H2 6044   5.266   0.150   3.317
 2035TIP3   OH2 6045   6.325   1.147   1.071
 2035TIP3    H1 6046   6.360   1.230   1.103
 2035TIP3    H2 6047   6.350   1.144   0.978
 2036TIP3   OH2 6048   0.553   0.659   5.233
 2036TIP3    H1 6049   0.469   0.645   5.277
 2036TIP3    H2 6050   0.552   0.598   5.160
 2037TIP3   OH2 6051   4.248   2.081   2.462
 2037TIP3    H1 6052   4.212   2.108   2.546
 2037TIP3    H2 6053   4.180   2.102   2.398
 2038TIP3   OH2 6054   7.445   6.793   5.365
 2038TIP3    H1 6055   7.486   6.797   5.278
 2038TIP3    H2 6056   7.396   6.712   5.365
 2039TIP3   OH2 6057   2.570   7.739   2.496
 2039TIP3    H1 6058   2.517   7.721   2.574
 2039TIP3    H2 6059   2.656   7.764   2.530
 2040TIP3   OH2 6060   0.458   4.568   2.434
 2040TIP3    H1 6061   0.502   4.641   2.478
 2040TIP3    H2 6062   0.366   4.592   2.433
 2041TIP3   OH2 6063   3.196   7.026   3.941
 2041TIP3    H1 6064   3.217   6.975   4.019
 2041TIP3    H2 6065   3.269   7.009   3.881
 2042TIP3   OH2 6066   0.586   4.693   0.977
 2042TIP3    H1 6067   0.615   4.611   1.016
 2042TIP3    H2 6068   0.561   4.747   1.052
 2043TIP3   OH2 6069   6.030   1.541   4.300
 2043TIP3    H1 6070   6.037   1.636   4.299
 2043TIP3    H2 6071   5.987   1.521   4.383
 2044TIP3   OH2 6072   4.758   4.753   6.653
 2044TIP3    H1 6073   4.689   4.686   6.652
 2044TIP3    H2 6074   4.821   4.723   6.588
 2045TIP3   OH2 6075   2.729   3.074   1.334
 2045TIP3    H1 6076   2.779   3.063   1.253
 2045TIP3    H2 6077   2.638   3.083   1.304
 2046TIP3   OH2 6078   6.752   4.690   4.500
 2046TIP3    H1 6079   6.708   4.611   4.469
 2046TIP3    H2 6080   6.737   4.691   4.594
 2047TIP3   OH2 6081   6.630   6.712   1.969
 2047TIP3    H1 6082   6.622   6.715   2.064
 2047TIP3    H2 6083   6.657   6.622   1.950
 2048TIP3   OH2 6084   0.075   3.380   5.203
 2048TIP3    H1 6085   0.158   3.378   5.250
 2048TIP3    H2 6086   0.045   3.471   5.212
 2049TIP3   OH2 6087   4.058   5.419   0.337
 2049TIP3    H1 6088   3.994   5.463   0.282
 2049TIP3    H2 6089   4.133   5.479   0.340
 2050TIP3   OH2 6090   2.199   2.190   5.730
 2050TIP3    H1 6091   2.187   2.111   5.782
 2050TIP3    H2 6092   2.153   2.258   5.779
 2051TIP3   OH2 6093   0.276   7.610   2.917
 2051TIP3    H1 6094   0.217   7.669   2.869
 2051TIP3    H2 6095   0.336   7.577   2.851
 2052TIP3   OH2 6096   4.678   0.907   2.149
 2052TIP3    H1 6097   4.730   0.977   2.110
 2052TIP3    H2 6098   4.730   0.828   2.135
 2053TIP3   OH2 6099   1.697   2.323   5.361
 2053TIP3    H1 6100   1.729   2.234   5.374
 2053TIP3    H2 6101   1.602   2.315   5.365
 2054TIP3   OH2 6102   7.265   1.370   5.741
 2054TIP3    H1 6103   7.354   1.404   5.743
 2054TIP3    H2 6104   7.211   1.445   5.716
 2055TIP3   OH2 6105   2.219   2.563   0.424
 2055TIP3    H1 6106   2.194   2.655   0.430
 2055TIP3    H2 6107   2.157   2.517   0.481
 2056TIP3   OH2 6108   6.513   6.370   5.912
 2056TIP3    H1 6109   6.437   6.379   5.856
 2056TIP3    H2 6110   6.497   6.429   5.985
 2057TIP3   OH2 6111   4.100   6.742   5.402
 2057TIP3    H1 6112   4.083   6.817   5.459
 2057TIP3    H2 6113   4.189   6.715   5.424
 2058TIP3   OH2 6114   8.267   4.036   2.681
 2058TIP3    H1 6115   8.350   4.071   2.713
 2058TIP3    H2 6116   8.253   3.956   2.732
 2059TIP3   OH2 6117   0.596   4.846   0.448
 2059TIP3    H1 6118   0.564   4.863   0.537
 2059TIP3    H2 6119   0.548   4.767   0.420
 2060TIP3   OH2 6120   7.991   3.639   2.734
 2060TIP3    H1 6121   8.078   3.598   2.736
 2060TIP3    H2 6122   7.944   3.592   2.665
 2061TIP3   OH2 6123   4.205   0.998   6.294
 2061TIP3    H1 6124   4.127   0.942   6.296
 2061TIP3    H2 6125   4.183   1.070   6.353
 2062TIP3   OH2 6126   3.962   4.735   6.491
 2062TIP3    H1 6127   3.939   4.675   6.420
 2062TIP3    H2 6128   3.958   4.682   6.570
 2063TIP3   OH2 6129   6.230   0.176   3.116
 2063TIP3    H1 6130   6.239   0.094   3.165
 2063TIP3    H2 6131   6.144   0.170   3.074
 2064TIP3   OH2 6132   6.331   2.817   1.980
 2064TIP3    H1 6133   6.300   2.787   2.066
 2064TIP3    H2 6134   6.370   2.903   1.997
 2065TIP3   OH2 6135   5.012   4.971   1.645
 2065TIP3    H1 6136   5.041   4.997   1.558
 2065TIP3    H2 6137   4.941   4.908   1.629
 2066TIP3   OH2 6138   0.368   4.974   1.763
 2066TIP3    H1 6139   0.327   5.014   1.687
 2066TIP3    H2 6140   0.399   5.048   1.816
 2067TIP3   OH2 6141   2.883   1.715   2.044
 2067TIP3    H1 6142   2.930   1.752   2.119
 2067TIP3    H2 6143   2.794   1.747   2.052
 2068TIP3   OH2 6144   1.309   4.370   5.817
 2068TIP3    H1 6145   1.266   4.286   5.803
 2068TIP3    H2 6146   1.389   4.365   5.764
 2069TIP3   OH2 6147   4.589   3.290   1.780
 2069TIP3    H1 6148   4.621   3.367   1.826
 2069TIP3    H2 6149   4.601   3.218   1.842
 2070TIP3   OH2 6150   5.976   5.686   3.838
 2070TIP3    H1 6151   5.977   5.736   3.919
 2070TIP3    H2 6152   5.889   5.645   3.835
 2071TIP3   OH2 6153   2.818   1.440   3.382
 2071TIP3    H1 6154   2.841   1.352   3.353
 2071TIP3    H2 6155   2.861   1.450   3.467
 2072TIP3   OH2 6156   5.222   7.283   1.568
 2072TIP3    H1 6157   5.222   7.339   1.645
 2072TIP3    H2 6158   5.266   7.335   1.501
 2073TIP3   OH2 6159   3.348   2.214   5.845
 2073TIP3    H1 6160   3.273   2.253   5.888
 2073TIP3    H2 6161   3.418   2.219   5.910
 2074TIP3   OH2 6162   0.060   0.956   0.869
 2074TIP3    H1 6163   0.037   0.928   0.780
 2074TIP3    H2 6164  -0.018   0.938   0.920
 2075TIP3   OH2 6165   7.714   1.714   0.197
 2075TIP3    H1 6166   7.638   1.695   0.252
 2075TIP3    H2 6167   7.679   1.712   0.108
 2076TIP3   OH2 6168   2.707   5.253   5.588
 2076TIP3    H1 6169   2.683   5.297   5.506
 2076TIP3    H2 6170   2.768   5.184   5.561
 2077TIP3   OH2 6171   4.508   0.905   3.216
 2077TIP3    H1 6172   4.516   0.886   3.309
 2077TIP3    H2 6173   4.478   0.823   3.177
 2078TIP3   OH2 6174   7.622   4.130   0.895
 2078TIP3    H1 6175   7.666   4.155   0.977
 2078TIP3    H2 6176   7.661   4.187   0.829
 2079TIP3   OH2 6177   7.161   6.036   5.439
 2079TIP3    H1 6178   7.227   6.038   5.508
 2079TIP3    H2 6179   7.105   5.963   5.463
 2080TIP3   OH2 6180   4.612   0.198   4.073
 2080TIP3    H1 6181   4.566   0.275   4.041
 2080TIP3    H2 6182   4.704   0.214   4.054
 2081TIP3   OH2 6183   6.647   7.851   4.605
 2081TIP3    H1 6184   6.605   7.772   4.639
 2081TIP3    H2 6185   6.632   7.847   4.510
 2082TIP3   OH2 6186   1.026   3.880   0.890
 2082TIP3    H1 6187   1.019   3.931   0.971
 2082TIP3    H2 6188   1.089   3.811   0.911
 2083TIP3   OH2 6189   4.538   5.727   1.843
 2083TIP3    H1 6190   4.521   5.807   1.793
 2083TIP3    H2 6191   4.518   5.656   1.781
 2084TIP3   OH2 6192   0.599   4.392   5.527
 2084TIP3    H1 6193   0.580   4.433   5.443
 2084TIP3    H2 6194   0.598   4.298   5.508
 2085TIP3   OH2 6195   0.834   4.170   2.341
 2085TIP3    H1 6196   0.896   4.175   2.414
 2085TIP3    H2 6197   0.780   4.248   2.350
 2086TIP3   OH2 6198   1.712   4.970   0.957
 2086TIP3    H1 6199   1.651   4.990   1.028
 2086TIP3    H2 6200   1.677   5.016   0.881
 2087TIP3   OH2 6201   1.103   3.174   3.131
 2087TIP3    H1 6202   1.100   3.167   3.035
 2087TIP3    H2 6203   1.196   3.187   3.151
 2088TIP3   OH2 6204   2.387   5.086   2.354
 2088TIP3    H1 6205   2.381   5.000   2.397
 2088TIP3    H2 6206   2.456   5.075   2.288
 2089TIP3   OH2 6207   2.617   7.735   2.192
 2089TIP3    H1 6208   2.710   7.736   2.168
 2089TIP3    H2 6209   2.618   7.734   2.287
 2090TIP3   OH2 6210   7.016   5.510   6.499
 2090TIP3    H1 6211   6.962   5.433   6.515
 2090TIP3    H2 6212   6.962   5.567   6.444
 2091TIP3   OH2 6213   1.948   2.074   1.114
 2091TIP3    H1 6214   1.929   2.092   1.206
 2091TIP3    H2 6215   1.984   2.156   1.080
 2092TIP3   OH2 6216   2.962   0.789   4.757
 2092TIP3    H1 6217   3.025   0.754   4.694
 2092TIP3    H2 6218   2.972   0.734   4.835
 2093TIP3   OH2 6219   3.178   3.988   2.795
 2093TIP3    H1 6220   3.167   3.972   2.889
 2093TIP3    H2 6221   3.188   4.083   2.788
 2094TIP3   OH2 6222   4.090   7.133   2.717
 2094TIP3    H1 6223   4.005   7.107   2.753
 2094TIP3    H2 6224   4.091   7.229   2.723
 2095TIP3   OH2 6225   7.721   1.614   1.745
 2095TIP3    H1 6226   7.794   1.676   1.750
 2095TIP3    H2 6227   7.700   1.609   1.652
 2096TIP3   OH2 6228   8.221   5.434   2.036
 2096TIP3    H1 6229   8.155   5.470   1.976
 2096TIP3    H2 6230   8.172   5.372   2.090
 2097TIP3   OH2 6231   8.257   2.282   6.206
 2097TIP3    H1 6232   8.291   2.304   6.293
 2097TIP3    H2 6233   8.332   2.293   6.147
 2098TIP3   OH2 6234   6.941   1.181   0.394
 2098TIP3    H1 6235   7.028   1.183   0.433
 2098TIP3    H2 6236   6.925   1.088   0.377
 2099TIP3   OH2 6237   4.833   4.364   0.861
 2099TIP3    H1 6238   4.774   4.439   0.870
 2099TIP3    H2 6239   4.881   4.361   0.944
 2100TIP3   OH2 6240   4.363   1.718   6.210
 2100TIP3    H1 6241   4.312   1.731   6.291
 2100TIP3    H2 6242   4.429   1.653   6.234
 2101TIP3   OH2 6243   1.623   1.042   4.624
 2101TIP3    H1 6244   1.704   1.039   4.674
 2101TIP3    H2 6245   1.583   0.957   4.637
 2102TIP3   OH2 6246   1.952   3.839   2.892
 2102TIP3    H1 6247   1.929   3.787   2.814
 2102TIP3    H2 6248   1.868   3.856   2.934
 2103TIP3   OH2 6249   2.496   4.809   1.105
 2103TIP3    H1 6250   2.565   4.773   1.160
 2103TIP3    H2 6251   2.425   4.745   1.110
 2104TIP3   OH2 6252   2.740   2.903   1.968
 2104TIP3    H1 6253   2.815   2.846   1.986
 2104TIP3    H2 6254   2.671   2.844   1.938
 2105TIP3   OH2 6255   7.218   3.513   0.417
 2105TIP3    H1 6256   7.190   3.544   0.503
 2105TIP3    H2 6257   7.235   3.592   0.367
 2106TIP3   OH2 6258   1.806   3.456   1.033
 2106TIP3    H1 6259   1.711   3.446   1.036
 2106TIP3    H2 6260   1.828   3.502   1.114
 2107TIP3   OH2 6261   5.937   6.349   5.439
 2107TIP3    H1 6262   5.915   6.395   5.520
 2107TIP3    H2 6263   6.022   6.385   5.413
 2108TIP3   OH2 6264   3.514   4.089   5.193
 2108TIP3    H1 6265   3.578   4.019   5.203
 2108TIP3    H2 6266   3.429   4.045   5.194
 2109TIP3   OH2 6267   5.614   0.711   5.992
 2109TIP3    H1 6268   5.679   0.726   5.923
 2109TIP3    H2 6269   5.645   0.631   6.037
 2110TIP3   OH2 6270   2.069   4.047   5.926
 2110TIP3    H1 6271   2.031   4.124   5.968
 2110TIP3    H2 6272   2.162   4.067   5.919
 2111TIP3   OH2 6273   4.489   6.500   4.465
 2111TIP3    H1 6274   4.485   6.433   4.534
 2111TIP3    H2 6275   4.496   6.583   4.512
 2112TIP3   OH2 6276   5.419   6.797   0.532
 2112TIP3    H1 6277   5.330   6.771   0.508
 2112TIP3    H2 6278   5.468   6.797   0.450
 2113TIP3   OH2 6279   1.084   4.651  -0.010
 2113TIP3    H1 6280   1.055   4.564  -0.039
 2113TIP3    H2 6281   1.134   4.685  -0.085
 2114TIP3   OH2 6282   1.239   5.110   0.543
 2114TIP3    H1 6283   1.144   5.096   0.541
 2114TIP3    H2 6284   1.251   5.184   0.601
 2115TIP3   OH2 6285   8.268   2.358   5.363
 2115TIP3    H1 6286   8.190   2.313   5.395
 2115TIP3    H2 6287   8.235   2.431   5.311
 2116TIP3   OH2 6288   0.436   0.603   4.855
 2116TIP3    H1 6289   0.528   0.610   4.829
 2116TIP3    H2 6290   0.404   0.693   4.854
 2117TIP3   OH2 6291   7.406   3.579   2.778
 2117TIP3    H1 6292   7.436   3.666   2.805
 2117TIP3    H2 6293   7.377   3.538   2.859
 2118TIP3   OH2 6294   2.508   2.845   3.279
 2118TIP3    H1 6295   2.462   2.906   3.222
 2118TIP3    H2 6296   2.550   2.783   3.219
 2119TIP3   OH2 6297   5.399   4.441  -0.001
 2119TIP3    H1 6298   5.474   4.439   0.058
 2119TIP3    H2 6299   5.323   4.452   0.057
 2120TIP3   OH2 6300   5.746   6.731   4.637
 2120TIP3    H1 6301   5.809   6.750   4.567
 2120TIP3    H2 6302   5.721   6.640   4.622
 2121TIP3   OH2 6303   1.146   3.276   6.624
 2121TIP3    H1 6304   1.104   3.299   6.541
 2121TIP3    H2 6305   1.229   3.237   6.598
 2122TIP3   OH2 6306   5.022   3.315   0.490
 2122TIP3    H1 6307   5.037   3.223   0.511
 2122TIP3    H2 6308   5.104   3.358   0.513
 2123TIP3   OH2 6309   5.809   6.650   6.509
 2123TIP3    H1 6310   5.873   6.709   6.548
 2123TIP3    H2 6311   5.757   6.617   6.582
 2124TIP3   OH2 6312   1.686   7.642   3.983
 2124TIP3    H1 6313   1.781   7.651   3.995
 2124TIP3    H2 6314   1.662   7.716   3.927
 2125TIP3   OH2 6315   3.681   1.671   0.908
 2125TIP3    H1 6316   3.745   1.650   0.977
 2125TIP3    H2 6317   3.649   1.758   0.931
 2126TIP3   OH2 6318   2.912   5.114   0.745
 2126TIP3    H1 6319   2.985   5.109   0.807
 2126TIP3    H2 6320   2.921   5.036   0.691
 2127TIP3   OH2 6321  -0.016   3.838   4.325
 2127TIP3    H1 6322   0.064   3.873   4.284
 2127TIP3    H2 6323  -0.017   3.877   4.412
 2128TIP3   OH2 6324   3.512   7.349   2.365
 2128TIP3    H1 6325   3.476   7.417   2.421
 2128TIP3    H2 6326   3.445   7.280   2.365
 2129TIP3   OH2 6327   2.965   4.825   0.951
 2129TIP3    H1 6328   3.023   4.770   1.003
 2129TIP3    H2 6329   3.020   4.898   0.923
 2130TIP3   OH2 6330   2.479   4.119   1.932
 2130TIP3    H1 6331   2.461   4.091   1.842
 2130TIP3    H2 6332   2.514   4.041   1.975
 2131TIP3   OH2 6333   6.273   2.812   2.682
 2131TIP3    H1 6334   6.206   2.879   2.696
 2131TIP3    H2 6335   6.304   2.791   2.770
 2132TIP3   OH2 6336   0.272   1.245   6.666
 2132TIP3    H1 6337   0.341   1.209   6.721
 2132TIP3    H2 6338   0.226   1.308   6.722
 2133TIP3   OH2 6339   6.193   0.471   3.616
 2133TIP3    H1 6340   6.113   0.420   3.615
 2133TIP3    H2 6341   6.167   0.556   3.652
 2134TIP3   OH2 6342   0.202   3.140   2.398
 2134TIP3    H1 6343   0.248   3.116   2.478
 2134TIP3    H2 6344   0.194   3.235   2.403
 2135TIP3   OH2 6345   2.710   0.037   5.551
 2135TIP3    H1 6346   2.702  -0.051   5.588
 2135TIP3    H2 6347   2.723   0.094   5.627
 2136TIP3   OH2 6348   3.963   2.681   4.597
 2136TIP3    H1 6349   3.927   2.694   4.684
 2136TIP3    H2 6350   4.050   2.720   4.600
 2137TIP3   OH2 6351   3.866   6.284   1.676
 2137TIP3    H1 6352   3.827   6.213   1.624
 2137TIP3    H2 6353   3.931   6.323   1.618
 2138TIP3   OH2 6354   4.233   5.567   2.086
 2138TIP3    H1 6355   4.187   5.484   2.093
 2138TIP3    H2 6356   4.227   5.605   2.174
 2139TIP3   OH2 6357   7.485   6.160   5.981
 2139TIP3    H1 6358   7.515   6.071   6.002
 2139TIP3    H2 6359   7.566   6.209   5.966
 2140TIP3   OH2 6360   1.981   4.376   5.809
 2140TIP3    H1 6361   1.972   4.445   5.743
 2140TIP3    H2 6362   2.062   4.330   5.785
 2141TIP3   OH2 6363   1.352   0.449   4.959
 2141TIP3    H1 6364   1.287   0.379   4.968
 2141TIP3    H2 6365   1.434   0.410   4.991
 2142TIP3   OH2 6366   7.808   5.199   3.016
 2142TIP3    H1 6367   7.901   5.188   3.035
 2142TIP3    H2 6368   7.805   5.255   2.939
 2143TIP3   OH2 6369   7.902   4.313   1.939
 2143TIP3    H1 6370   7.893   4.390   1.995
 2143TIP3    H2 6371   7.875   4.240   1.995
 2144TIP3   OH2 6372   3.647   5.281   0.448
 2144TIP3    H1 6373   3.603   5.337   0.512
 2144TIP3    H2 6374   3.737   5.276   0.479
 2145TIP3   OH2 6375   4.211   0.800   3.401
 2145TIP3    H1 6376   4.297   0.799   3.443
 2145TIP3    H2 6377   4.214   0.728   3.337
 2146TIP3   OH2 6378   6.859   0.480   2.580
 2146TIP3    H1 6379   6.860   0.510   2.671
 2146TIP3    H2 6380   6.859   0.560   2.528
 2147TIP3   OH2 6381   5.329   0.690   3.818
 2147TIP3    H1 6382   5.336   0.768   3.762
 2147TIP3    H2 6383   5.259   0.711   3.880
 2148TIP3   OH2 6384   7.223   2.765   4.338
 2148TIP3    H1 6385   7.232   2.854   4.303
 2148TIP3    H2 6386   7.246   2.709   4.264
 2149TIP3   OH2 6387   8.338   7.608   3.265
 2149TIP3    H1 6388   8.293   7.663   3.202
 2149TIP3    H2 6389   8.358   7.528   3.217
 2150TIP3   OH2 6390   5.177   4.276   6.604
 2150TIP3    H1 6391   5.261   4.268   6.649
 2150TIP3    H2 6392   5.145   4.363   6.630
 2151TIP3   OH2 6393   0.852   5.089   1.130
 2151TIP3    H1 6394   0.864   5.143   1.209
 2151TIP3    H2 6395   0.822   5.005   1.163
 2152TIP3   OH2 6396   4.233   1.037   2.128
 2152TIP3    H1 6397   4.255   0.980   2.202
 2152TIP3    H2 6398   4.312   1.038   2.075
 2153TIP3   OH2 6399   3.331   2.418   3.928
 2153TIP3    H1 6400   3.391   2.463   3.869
 2153TIP3    H2 6401   3.371   2.333   3.943
 2154TIP3   OH2 6402   0.169   4.724   6.225
 2154TIP3    H1 6403   0.159   4.814   6.257
 2154TIP3    H2 6404   0.100   4.675   6.269
 2155TIP3   OH2 6405   5.379   0.662   5.798
 2155TIP3    H1 6406   5.333   0.622   5.872
 2155TIP3    H2 6407   5.310   0.678   5.733
 2156TIP3   OH2 6408   7.881   5.794   1.662
 2156TIP3    H1 6409   7.849   5.883   1.645
 2156TIP3    H2 6410   7.958   5.786   1.605
 2157TIP3   OH2 6411   5.785   1.973   0.190
 2157TIP3    H1 6412   5.785   2.045   0.126
 2157TIP3    H2 6413   5.871   1.979   0.232
 2158TIP3   OH2 6414   1.724   1.519   5.886
 2158TIP3    H1 6415   1.702   1.609   5.906
 2158TIP3    H2 6416   1.818   1.519   5.870
 2159TIP3   OH2 6417   6.948   4.013   3.481
 2159TIP3    H1 6418   6.888   4.040   3.551
 2159TIP3    H2 6419   6.893   3.966   3.419
 2160TIP3   OH2 6420   2.123   6.199   6.490
 2160TIP3    H1 6421   2.060   6.249   6.542
 2160TIP3    H2 6422   2.127   6.114   6.534
 2161TIP3   OH2 6423   7.286   2.463   4.150
 2161TIP3    H1 6424   7.330   2.408   4.085
 2161TIP3    H2 6425   7.349   2.471   4.221
 2162TIP3   OH2 6426   5.159   0.674   6.192
 2162TIP3    H1 6427   5.159   0.769   6.206
 2162TIP3    H2 6428   5.088   0.642   6.247
 2163TIP3   OH2 6429   0.508   6.930   6.100
 2163TIP3    H1 6430   0.520   6.844   6.140
 2163TIP3    H2 6431   0.450   6.914   6.025
 2164TIP3   OH2 6432   7.096   4.392   3.677
 2164TIP3    H1 6433   7.191   4.399   3.692
 2164TIP3    H2 6434   7.089   4.333   3.601
 2165TIP3   OH2 6435   4.857   7.706   6.022
 2165TIP3    H1 6436   4.839   7.795   6.054
 2165TIP3    H2 6437   4.905   7.665   6.094
 2166TIP3   OH2 6438   3.998   7.288   3.765
 2166TIP3    H1 6439   4.004   7.372   3.719
 2166TIP3    H2 6440   4.060   7.297   3.838
 2167TIP3   OH2 6441   8.315   1.937   4.840
 2167TIP3    H1 6442   8.240   1.961   4.894
 2167TIP3    H2 6443   8.279   1.878   4.773
 2168TIP3   OH2 6444   6.851   0.835   3.295
 2168TIP3    H1 6445   6.933   0.803   3.331
 2168TIP3    H2 6446   6.876   0.892   3.223
 2169TIP3   OH2 6447   6.744   7.450   5.420
 2169TIP3    H1 6448   6.657   7.442   5.458
 2169TIP3    H2 6449   6.795   7.496   5.487
 2170TIP3   OH2 6450   7.308   2.961   0.491
 2170TIP3    H1 6451   7.298   3.020   0.416
 2170TIP3    H2 6452   7.372   3.006   0.548
 2171TIP3   OH2 6453   1.316   7.232   6.572
 2171TIP3    H1 6454   1.330   7.213   6.479
 2171TIP3    H2 6455   1.224   7.258   6.577
 2172TIP3   OH2 6456   3.606   3.565   2.495
 2172TIP3    H1 6457   3.600   3.553   2.590
 2172TIP3    H2 6458   3.603   3.660   2.483
 2173TIP3   OH2 6459   7.021   5.296   1.958
 2173TIP3    H1 6460   6.937   5.334   1.984
 2173TIP3    H2 6461   7.003   5.202   1.950
 2174TIP3   OH2 6462   7.521   0.479   3.240
 2174TIP3    H1 6463   7.494   0.426   3.315
 2174TIP3    H2 6464   7.459   0.552   3.239
 2175TIP3   OH2 6465   6.700   3.674   0.627
 2175TIP3    H1 6466   6.672   3.637   0.711
 2175TIP3    H2 6467   6.793   3.653   0.621
 2176TIP3   OH2 6468   1.167   1.888   6.415
 2176TIP3    H1 6469   1.185   1.819   6.479
 2176TIP3    H2 6470   1.084   1.863   6.375
 2177TIP3   OH2 6471   3.791   1.961   4.896
 2177TIP3    H1 6472   3.869   1.983   4.947
 2177TIP3    H2 6473   3.718   1.996   4.947
 2178TIP3   OH2 6474   6.983   0.226   5.400
 2178TIP3    H1 6475   7.070   0.261   5.379
 2178TIP3    H2 6476   6.990   0.132   5.383
 2179TIP3   OH2 6477   4.283   2.740   0.988
 2179TIP3    H1 6478   4.334   2.706   0.915
 2179TIP3    H2 6479   4.233   2.665   1.020
 2180TIP3   OH2 6480   0.614   5.037   2.244
 2180TIP3    H1 6481   0.669   5.012   2.171
 2180TIP3    H2 6482   0.652   5.119   2.276
 2181TIP3   OH2 6483   5.250   5.534   0.598
 2181TIP3    H1 6484   5.314   5.529   0.527
 2181TIP3    H2 6485   5.229   5.442   0.617
 2182TIP3   OH2 6486   0.292   0.760   1.554
 2182TIP3    H1 6487   0.221   0.766   1.618
 2182TIP3    H2 6488   0.259   0.699   1.488
 2183TIP3   OH2 6489   7.885   4.404   1.448
 2183TIP3    H1 6490   7.949   4.338   1.422
 2183TIP3    H2 6491   7.871   4.387   1.542
 2184TIP3   OH2 6492   0.705   3.546   2.160
 2184TIP3    H1 6493   0.645   3.537   2.233
 2184TIP3    H2 6494   0.790   3.564   2.200
 2185TIP3   OH2 6495   5.748   7.246   2.145
 2185TIP3    H1 6496   5.788   7.161   2.159
 2185TIP3    H2 6497   5.808   7.292   2.087
 2186TIP3   OH2 6498   4.581   1.610   0.803
 2186TIP3    H1 6499   4.510   1.642   0.746
 2186TIP3    H2 6500   4.634   1.687   0.820
 2187TIP3   OH2 6501   2.775   4.312   3.866
 2187TIP3    H1 6502   2.756   4.272   3.781
 2187TIP3    H2 6503   2.757   4.243   3.930
 2188TIP3   OH2 6504   2.203   1.247   5.791
 2188TIP3    H1 6505   2.231   1.229   5.881
 2188TIP3    H2 6506   2.194   1.160   5.751
 2189TIP3   OH2 6507   4.138   1.774   2.807
 2189TIP3    H1 6508   4.169   1.683   2.804
 2189TIP3    H2 6509   4.097   1.788   2.721
 2190TIP3   OH2 6510   1.881   4.453   3.881
 2190TIP3    H1 6511   1.844   4.464   3.793
 2190TIP3    H2 6512   1.809   4.417   3.933
 2191TIP3   OH2 6513   0.921   5.713   2.141
 2191TIP3    H1 6514   0.943   5.687   2.052
 2191TIP3    H2 6515   0.837   5.671   2.159
 2192TIP3   OH2 6516   4.537   0.788   3.470
 2192TIP3    H1 6517   4.626   0.825   3.470
 2192TIP3    H2 6518   4.539   0.719   3.536
 2193TIP3   OH2 6519   4.578   4.620   5.929
 2193TIP3    H1 6520   4.621   4.675   5.995
 2193TIP3    H2 6521   4.500   4.587   5.973
 2194TIP3   OH2 6522   6.860   1.878   5.364
 2194TIP3    H1 6523   6.804   1.805   5.387
 2194TIP3    H2 6524   6.909   1.848   5.287
 2195TIP3   OH2 6525   4.044   5.475   1.087
 2195TIP3    H1 6526   4.043   5.538   1.159
 2195TIP3    H2 6527   4.130   5.434   1.092
 2196TIP3   OH2 6528   4.431   2.195   4.578
 2196TIP3    H1 6529   4.418   2.101   4.588
 2196TIP3    H2 6530   4.496   2.218   4.645
 2197TIP3   OH2 6531   3.332   0.961   1.240
 2197TIP3    H1 6532   3.372   0.971   1.154
 2197TIP3    H2 6533   3.345   1.046   1.283
 2198TIP3   OH2 6534   4.120   3.061   1.583
 2198TIP3    H1 6535   4.158   3.106   1.659
 2198TIP3    H2 6536   4.196   3.026   1.536
 2199TIP3   OH2 6537   7.076   0.695   5.061
 2199TIP3    H1 6538   6.992   0.674   5.020
 2199TIP3    H2 6539   7.064   0.673   5.154
 2200TIP3   OH2 6540   3.076   6.626   4.803
 2200TIP3    H1 6541   3.101   6.676   4.726
 2200TIP3    H2 6542   3.031   6.689   4.859
 2201TIP3   OH2 6543   7.092   0.169   1.478
 2201TIP3    H1 6544   7.071   0.230   1.407
 2201TIP3    H2 6545   7.139   0.222   1.543
 2202TIP3   OH2 6546   7.864   5.580   2.231
 2202TIP3    H1 6547   7.770   5.597   2.234
 2202TIP3    H2 6548   7.900   5.654   2.181
 2203TIP3   OH2 6549   5.729   5.736   0.408
 2203TIP3    H1 6550   5.647   5.707   0.368
 2203TIP3    H2 6551   5.774   5.783   0.338
 2204TIP3   OH2 6552   6.598   6.786   6.241
 2204TIP3    H1 6553   6.605   6.765   6.334
 2204TIP3    H2 6554   6.617   6.880   6.236
 2205TIP3   OH2 6555   5.857   4.213   0.394
 2205TIP3    H1 6556   5.788   4.275   0.417
 2205TIP3    H2 6557   5.814   4.127   0.399
 2206TIP3   OH2 6558   5.785   7.083   2.675
 2206TIP3    H1 6559   5.798   7.001   2.721
 2206TIP3    H2 6560   5.764   7.057   2.585
 2207TIP3   OH2 6561   1.715   0.121   0.715
 2207TIP3    H1 6562   1.688   0.039   0.757
 2207TIP3    H2 6563   1.686   0.189   0.777
 2208TIP3   OH2 6564   0.020   3.527   4.477
 2208TIP3    H1 6565   0.089   3.589   4.450
 2208TIP3    H2 6566   0.006   3.472   4.400
 2209TIP3   OH2 6567   5.827   4.447   4.390
 2209TIP3    H1 6568   5.858   4.492   4.312
 2209TIP3    H2 6569   5.896   4.459   4.455
 2210TIP3   OH2 6570   7.737   1.022   6.372
 2210TIP3    H1 6571   7.767   0.946   6.322
 2210TIP3    H2 6572   7.643   1.008   6.384
 2211TIP3   OH2 6573   1.087   4.497   6.439
 2211TIP3    H1 6574   1.023   4.510   6.370
 2211TIP3    H2 6575   1.168   4.474   6.393
 2212TIP3   OH2 6576   3.338   2.937   5.481
 2212TIP3    H1 6577   3.265   2.894   5.435
 2212TIP3    H2 6578   3.303   3.022   5.507
 2213TIP3   OH2 6579   6.095   6.233   0.039
 2213TIP3    H1 6580   6.026   6.299   0.048
 2213TIP3    H2 6581   6.157   6.272  -0.023
 2214TIP3   OH2 6582   1.780   5.541   5.283
 2214TIP3    H1 6583   1.841   5.491   5.337
 2214TIP3    H2 6584   1.795   5.632   5.307
 2215TIP3   OH2 6585   0.474   5.529   4.333
 2215TIP3    H1 6586   0.466   5.437   4.358
 2215TIP3    H2 6587   0.568   5.547   4.337
 2216TIP3   OH2 6588   4.263   3.258   1.249
 2216TIP3    H1 6589   4.227   3.337   1.291
 2216TIP3    H2 6590   4.230   3.261   1.159
 2217TIP3   OH2 6591   5.357   7.390   1.979
 2217TIP3    H1 6592   5.402   7.306   1.970
 2217TIP3    H2 6593   5.427   7.455   1.982
 2218TIP3   OH2 6594   3.080   4.860   6.385
 2218TIP3    H1 6595   2.994   4.857   6.342
 2218TIP3    H2 6596   3.072   4.798   6.458
 2219TIP3   OH2 6597   0.989   4.348   0.922
 2219TIP3    H1 6598   1.084   4.343   0.925
 2219TIP3    H2 6599   0.968   4.355   0.829
 2220TIP3   OH2 6600   7.686   7.224   3.828
 2220TIP3    H1 6601   7.676   7.231   3.734
 2220TIP3    H2 6602   7.776   7.192   3.840
 2221TIP3   OH2 6603   5.359   4.910   3.129
 2221TIP3    H1 6604   5.417   4.945   3.196
 2221TIP3    H2 6605   5.279   4.887   3.175
 2222TIP3   OH2 6606   1.060   6.340   3.672
 2222TIP3    H1 6607   1.009   6.262   3.649
 2222TIP3    H2 6608   1.124   6.348   3.601
 2223TIP3   OH2 6609   1.055   6.967   5.696
 2223TIP3    H1 6610   1.011   7.001   5.618
 2223TIP3    H2 6611   1.096   6.886   5.667
 2224TIP3   OH2 6612   0.776   6.013   0.467
 2224TIP3    H1 6613   0.686   5.988   0.445
 2224TIP3    H2 6614   0.769   6.106   0.493
 2225TIP3   OH2 6615   7.425   4.092   3.812
 2225TIP3    H1 6616   7.456   4.167   3.863
 2225TIP3    H2 6617   7.400   4.027   3.877
 2226TIP3   OH2 6618   0.517   7.062   3.013
 2226TIP3    H1 6619   0.572   6.997   2.970
 2226TIP3    H2 6620   0.445   7.011   3.052
 2227TIP3   OH2 6621   2.213   5.638   0.611
 2227TIP3    H1 6622   2.221   5.713   0.670
 2227TIP3    H2 6623   2.245   5.671   0.527
 2228TIP3   OH2 6624   5.384   2.035   0.463
 2228TIP3    H1 6625   5.379   2.101   0.393
 2228TIP3    H2 6626   5.292   2.016   0.484
 2229TIP3   OH2 6627   4.243   2.540   2.753
 2229TIP3    H1 6628   4.216   2.629   2.775
 2229TIP3    H2 6629   4.334   2.548   2.725
 2230TIP3   OH2 6630   7.749   5.896   5.683
 2230TIP3    H1 6631   7.706   5.837   5.744
 2230TIP3    H2 6632   7.841   5.871   5.687
 2231TIP3   OH2 6633   7.549   3.187   0.303
 2231TIP3    H1 6634   7.458   3.216   0.301
 2231TIP3    H2 6635   7.573   3.180   0.210
 2232TIP3   OH2 6636   6.346   1.696   1.491
 2232TIP3    H1 6637   6.301   1.745   1.560
 2232TIP3    H2 6638   6.308   1.608   1.497
 2233TIP3   OH2 6639   6.682   1.733   5.130
 2233TIP3    H1 6640   6.718   1.647   5.107
 2233TIP3    H2 6641   6.754   1.794   5.114
 2234TIP3   OH2 6642   7.385   3.230   0.622
 2234TIP3    H1 6643   7.333   3.240   0.542
 2234TIP3    H2 6644   7.476   3.222   0.591
 2235TIP3   OH2 6645   1.839   7.765   6.454
 2235TIP3    H1 6646   1.787   7.779   6.374
 2235TIP3    H2 6647   1.906   7.702   6.429
 2236TIP3   OH2 6648   2.687   6.924   2.638
 2236TIP3    H1 6649   2.692   6.892   2.728
 2236TIP3    H2 6650   2.607   6.886   2.604
 2237TIP3   OH2 6651   4.413   5.035   2.079
 2237TIP3    H1 6652   4.494   5.084   2.064
 2237TIP3    H2 6653   4.432   4.981   2.156
 2238TIP3   OH2 6654   6.491   4.275   3.076
 2238TIP3    H1 6655   6.545   4.219   3.020
 2238TIP3    H2 6656   6.503   4.240   3.164
 2239TIP3   OH2 6657   6.663   6.410   0.795
 2239TIP3    H1 6658   6.584   6.433   0.844
 2239TIP3    H2 6659   6.734   6.417   0.859
 2240TIP3   OH2 6660   2.640   3.598   4.064
 2240TIP3    H1 6661   2.621   3.569   4.153
 2240TIP3    H2 6662   2.735   3.586   4.055
 2241TIP3   OH2 6663   6.395   5.491   0.952
 2241TIP3    H1 6664   6.486   5.499   0.980
 2241TIP3    H2 6665   6.345   5.484   1.034
 2242TIP3   OH2 6666   8.249   2.558   0.345
 2242TIP3    H1 6667   8.323   2.570   0.405
 2242TIP3    H2 6668   8.171   2.570   0.400
 2243TIP3   OH2 6669   6.209   2.289   2.170
 2243TIP3    H1 6670   6.251   2.340   2.100
 2243TIP3    H2 6671   6.280   2.264   2.228
 2244TIP3   OH2 6672   1.176   2.108   3.778
 2244TIP3    H1 6673   1.153   2.201   3.775
 2244TIP3    H2 6674   1.176   2.081   3.686
 2245TIP3   OH2 6675   5.365   4.363   0.592
 2245TIP3    H1 6676   5.344   4.456   0.599
 2245TIP3    H2 6677   5.334   4.324   0.673
 2246TIP3   OH2 6678   5.278   0.603   3.128
 2246TIP3    H1 6679   5.351   0.546   3.105
 2246TIP3    H2 6680   5.276   0.668   3.058
 2247TIP3   OH2 6681   6.513   3.406   4.612
 2247TIP3    H1 6682   6.607   3.424   4.614
 2247TIP3    H2 6683   6.486   3.431   4.524
 2248TIP3   OH2 6684   6.688   0.130   2.726
 2248TIP3    H1 6685   6.677   0.165   2.637
 2248TIP3    H2 6686   6.622   0.175   2.778
 2249TIP3   OH2 6687   5.018   1.259   4.641
 2249TIP3    H1 6688   5.101   1.243   4.595
 2249TIP3    H2 6689   4.956   1.200   4.599
 2250TIP3   OH2 6690   5.298   5.898   6.650
 2250TIP3    H1 6691   5.338   5.904   6.737
 2250TIP3    H2 6692   5.339   5.967   6.599
 2251TIP3   OH2 6693   2.304   0.661   1.823
 2251TIP3    H1 6694   2.294   0.733   1.885
 2251TIP3    H2 6695   2.343   0.590   1.874
 2252TIP3   OH2 6696   1.688   2.373   0.171
 2252TIP3    H1 6697   1.707   2.280   0.166
 2252TIP3    H2 6698   1.767   2.413   0.205
 2253TIP3   OH2 6699   2.816   0.728   2.881
 2253TIP3    H1 6700   2.720   0.723   2.875
 2253TIP3    H2 6701   2.833   0.813   2.920
 2254TIP3   OH2 6702   5.679   7.857   0.173
 2254TIP3    H1 6703   5.657   7.914   0.099
 2254TIP3    H2 6704   5.694   7.771   0.132
 2255TIP3   OH2 6705   2.450   6.306   6.057
 2255TIP3    H1 6706   2.373   6.329   6.108
 2255TIP3    H2 6707   2.495   6.389   6.041
 2256TIP3   OH2 6708   0.414   0.610   2.764
 2256TIP3    H1 6709   0.378   0.699   2.760
 2256TIP3    H2 6710   0.506   0.623   2.789
 2257TIP3   OH2 6711   4.517   0.075   3.508
 2257TIP3    H1 6712   4.577   0.094   3.580
 2257TIP3    H2 6713   4.528   0.149   3.448
 2258TIP3   OH2 6714   0.940   1.361   6.038
 2258TIP3    H1 6715   0.916   1.362   6.130
 2258TIP3    H2 6716   0.924   1.451   6.008
 2259TIP3   OH2 6717   7.765   2.376   3.037
 2259TIP3    H1 6718   7.818   2.364   3.117
 2259TIP3    H2 6719   7.675   2.361   3.066
 2260TIP3   OH2 6720   7.385   6.894   1.337
 2260TIP3    H1 6721   7.302   6.935   1.313
 2260TIP3    H2 6722   7.444   6.968   1.353
 2261TIP3   OH2 6723   6.737   3.047   2.522
 2261TIP3    H1 6724   6.815   3.041   2.578
 2261TIP3    H2 6725   6.678   2.980   2.556
 2262TIP3   OH2 6726   4.792   5.271   4.794
 2262TIP3    H1 6727   4.807   5.347   4.737
 2262TIP3    H2 6728   4.697   5.266   4.802
 2263TIP3   OH2 6729   7.469   7.214   3.243
 2263TIP3    H1 6730   7.436   7.206   3.153
 2263TIP3    H2 6731   7.516   7.297   3.244
 2264TIP3   OH2 6732   5.952   2.002   6.174
 2264TIP3    H1 6733   5.959   2.061   6.099
 2264TIP3    H2 6734   6.034   2.014   6.222
 2265TIP3   OH2 6735   2.113   7.451   3.165
 2265TIP3    H1 6736   2.042   7.424   3.107
 2265TIP3    H2 6737   2.097   7.404   3.246
 2266TIP3   OH2 6738   8.255   5.034   4.396
 2266TIP3    H1 6739   8.295   5.012   4.480
 2266TIP3    H2 6740   8.266   4.955   4.343
 2267TIP3   OH2 6741   6.457   1.125   3.784
 2267TIP3    H1 6742   6.421   1.041   3.754
 2267TIP3    H2 6743   6.503   1.104   3.865
 2268TIP3   OH2 6744   6.933   6.874   2.049
 2268TIP3    H1 6745   6.899   6.785   2.043
 2268TIP3    H2 6746   7.028   6.863   2.057
 2269TIP3   OH2 6747   3.777   2.840   3.630
 2269TIP3    H1 6748   3.763   2.746   3.643
 2269TIP3    H2 6749   3.826   2.845   3.548
 2270TIP3   OH2 6750   0.834   5.857   3.030
 2270TIP3    H1 6751   0.759   5.904   3.069
 2270TIP3    H2 6752   0.797   5.810   2.956
 2271TIP3   OH2 6753   3.362   0.721   0.478
 2271TIP3    H1 6754   3.330   0.735   0.389
 2271TIP3    H2 6755   3.376   0.627   0.485
 2272TIP3   OH2 6756   7.786   5.705   1.911
 2272TIP3    H1 6757   7.715   5.766   1.927
 2272TIP3    H2 6758   7.811   5.720   1.820
 2273TIP3   OH2 6759   3.645   7.804   5.058
 2273TIP3    H1 6760   3.563   7.809   5.009
 2273TIP3    H2 6761   3.711   7.789   4.991
 2274TIP3   OH2 6762   6.590   6.361   2.261
 2274TIP3    H1 6763   6.528   6.315   2.204
 2274TIP3    H2 6764   6.581   6.453   2.236
 2275TIP3   OH2 6765   5.335   4.160   4.095
 2275TIP3    H1 6766   5.305   4.217   4.024
 2275TIP3    H2 6767   5.297   4.075   4.075
 2276TIP3   OH2 6768   3.860   6.190   3.221
 2276TIP3    H1 6769   3.919   6.136   3.169
 2276TIP3    H2 6770   3.772   6.157   3.201
 2277TIP3   OH2 6771   5.684   5.085   4.115
 2277TIP3    H1 6772   5.689   5.035   4.034
 2277TIP3    H2 6773   5.599   5.129   4.111
 2278TIP3   OH2 6774   4.053   3.450   5.655
 2278TIP3    H1 6775   3.962   3.461   5.686
 2278TIP3    H2 6776   4.074   3.534   5.614
 2279TIP3   OH2 6777   3.924   5.506   3.404
 2279TIP3    H1 6778   3.832   5.531   3.419
 2279TIP3    H2 6779   3.919   5.414   3.377
 2280TIP3   OH2 6780   5.118   2.331   3.533
 2280TIP3    H1 6781   5.178   2.274   3.485
 2280TIP3    H2 6782   5.032   2.292   3.520
 2281TIP3   OH2 6783   1.137   1.330   0.841
 2281TIP3    H1 6784   1.132   1.416   0.800
 2281TIP3    H2 6785   1.101   1.342   0.928
 2282TIP3   OH2 6786   0.431   0.534   3.063
 2282TIP3    H1 6787   0.496   0.551   2.995
 2282TIP3    H2 6788   0.438   0.609   3.122
 2283TIP3   OH2 6789   4.037   4.466   0.039
 2283TIP3    H1 6790   3.964   4.524   0.019
 2283TIP3    H2 6791   3.996   4.383   0.064
 2284TIP3   OH2 6792   6.437   1.928   2.284
 2284TIP3    H1 6793   6.431   1.961   2.194
 2284TIP3    H2 6794   6.367   1.974   2.331
 2285TIP3   OH2 6795   6.394   0.396   3.210
 2285TIP3    H1 6796   6.316   0.450   3.225
 2285TIP3    H2 6797   6.362   0.320   3.162
 2286TIP3   OH2 6798   0.566   2.037   6.059
 2286TIP3    H1 6799   0.479   2.071   6.075
 2286TIP3    H2 6800   0.557   1.987   5.977
 2287TIP3   OH2 6801   5.521  -0.053   4.414
 2287TIP3    H1 6802   5.527   0.017   4.349
 2287TIP3    H2 6803   5.448  -0.028   4.470
 2288TIP3   OH2 6804   1.916   7.751   3.253
 2288TIP3    H1 6805   1.937   7.841   3.231
 2288TIP3    H2 6806   1.870   7.717   3.176
 2289TIP3   OH2 6807   4.844   2.028   6.108
 2289TIP3    H1 6808   4.863   1.988   6.193
 2289TIP3    H2 6809   4.917   2.002   6.052
 2290TIP3   OH2 6810   2.523   3.220   4.213
 2290TIP3    H1 6811   2.557   3.306   4.238
 2290TIP3    H2 6812   2.573   3.197   4.134
 2291TIP3   OH2 6813   5.137   3.074   3.305
 2291TIP3    H1 6814   5.048   3.072   3.272
 2291TIP3    H2 6815   5.187   3.023   3.241
 2292TIP3   OH2 6816   0.392   1.119   5.934
 2292TIP3    H1 6817   0.325   1.086   5.993
 2292TIP3    H2 6818   0.379   1.069   5.853
 2293TIP3   OH2 6819   6.430   3.931   5.428
 2293TIP3    H1 6820   6.386   3.913   5.345
 2293TIP3    H2 6821   6.524   3.924   5.408
 2294TIP3   OH2 6822   6.879   3.312   3.404
 2294TIP3    H1 6823   6.936   3.303   3.327
 2294TIP3    H2 6824   6.840   3.225   3.416
 2295TIP3   OH2 6825   4.741   5.409   2.568
 2295TIP3    H1 6826   4.769   5.459   2.491
 2295TIP3    H2 6827   4.810   5.425   2.633
 2296TIP3   OH2 6828   7.151   1.755   1.195
 2296TIP3    H1 6829   7.060   1.748   1.226
 2296TIP3    H2 6830   7.147   1.732   1.103
 2297TIP3   OH2 6831   4.316   0.417   6.180
 2297TIP3    H1 6832   4.392   0.364   6.205
 2297TIP3    H2 6833   4.303   0.476   6.255
 2298TIP3   OH2 6834   8.006   7.451   5.062
 2298TIP3    H1 6835   7.989   7.484   5.150
 2298TIP3    H2 6836   8.034   7.528   5.012
 2299TIP3   OH2 6837   4.721   0.991   4.646
 2299TIP3    H1 6838   4.649   0.944   4.688
 2299TIP3    H2 6839   4.798   0.971   4.698
 2300TIP3   OH2 6840   4.771   5.028   1.095
 2300TIP3    H1 6841   4.840   4.973   1.058
 2300TIP3    H2 6842   4.738   5.079   1.021
 2301TIP3   OH2 6843   4.345   4.715   0.401
 2301TIP3    H1 6844   4.329   4.620   0.402
 2301TIP3    H2 6845   4.273   4.752   0.453
 2302TIP3   OH2 6846   1.753   7.841   5.815
 2302TIP3    H1 6847   1.681   7.792   5.775
 2302TIP3    H2 6848   1.812   7.861   5.742
 2303TIP3   OH2 6849   0.744   7.815   0.829
 2303TIP3    H1 6850   0.713   7.827   0.739
 2303TIP3    H2 6851   0.686   7.871   0.882
 2304TIP3   OH2 6852   4.846   5.993   3.972
 2304TIP3    H1 6853   4.825   6.084   3.950
 2304TIP3    H2 6854   4.769   5.961   4.019
 2305TIP3   OH2 6855   2.510   5.061   0.538
 2305TIP3    H1 6856   2.422   5.048   0.502
 2305TIP3    H2 6857   2.563   5.085   0.462
 2306TIP3   OH2 6858   6.640   3.847   5.759
 2306TIP3    H1 6859   6.705   3.793   5.714
 2306TIP3    H2 6860   6.605   3.791   5.828
 2307TIP3   OH2 6861   8.288   6.848   1.332
 2307TIP3    H1 6862   8.356   6.899   1.376
 2307TIP3    H2 6863   8.313   6.849   1.239
 2308TIP3   OH2 6864   2.671   0.802   1.502
 2308TIP3    H1 6865   2.633   0.722   1.465
 2308TIP3    H2 6866   2.678   0.784   1.595
 2309TIP3   OH2 6867   5.622   7.462   2.461
 2309TIP3    H1 6868   5.656   7.551   2.449
 2309TIP3    H2 6869   5.699   7.406   2.449
 2310TIP3   OH2 6870   4.876   2.360   1.274
 2310TIP3    H1 6871   4.956   2.313   1.251
 2310TIP3    H2 6872   4.875   2.436   1.215
 2311TIP3   OH2 6873   5.888   3.059   5.411
 2311TIP3    H1 6874   5.960   3.021   5.360
 2311TIP3    H2 6875   5.815   2.999   5.396
 2312TIP3   OH2 6876   7.282   7.581   4.424
 2312TIP3    H1 6877   7.243   7.647   4.367
 2312TIP3    H2 6878   7.226   7.504   4.413
 2313TIP3   OH2 6879   3.606   5.903   0.207
 2313TIP3    H1 6880   3.514   5.920   0.225
 2313TIP3    H2 6881   3.620   5.812   0.232
 2314TIP3   OH2 6882   5.958   5.629   1.646
 2314TIP3    H1 6883   5.975   5.679   1.566
 2314TIP3    H2 6884   5.926   5.695   1.709
 2315TIP3   OH2 6885   1.309   4.301   3.535
 2315TIP3    H1 6886   1.224   4.303   3.578
 2315TIP3    H2 6887   1.303   4.230   3.472
 2316TIP3   OH2 6888   6.085   1.534   2.992
 2316TIP3    H1 6889   6.154   1.470   3.005
 2316TIP3    H2 6890   6.004   1.483   2.990
 2317TIP3   OH2 6891   2.698   4.607   6.095
 2317TIP3    H1 6892   2.664   4.614   6.006
 2317TIP3    H2 6893   2.622   4.584   6.148
 2318TIP3   OH2 6894   7.277   4.527   1.006
 2318TIP3    H1 6895   7.332   4.461   0.964
 2318TIP3    H2 6896   7.213   4.476   1.055
 2319TIP3   OH2 6897   5.665   3.600   0.805
 2319TIP3    H1 6898   5.760   3.607   0.818
 2319TIP3    H2 6899   5.629   3.674   0.854
 2320TIP3   OH2 6900   0.681   5.346   2.348
 2320TIP3    H1 6901   0.738   5.418   2.375
 2320TIP3    H2 6902   0.661   5.365   2.256
 2321TIP3   OH2 6903   0.340   1.117   1.315
 2321TIP3    H1 6904   0.371   1.181   1.251
 2321TIP3    H2 6905   0.415   1.103   1.373
 2322TIP3   OH2 6906   4.965   2.318   6.206
 2322TIP3    H1 6907   5.040   2.262   6.186
 2322TIP3    H2 6908   4.917   2.325   6.124
 2323TIP3   OH2 6909  -0.016   6.996   3.496
 2323TIP3    H1 6910   0.017   6.972   3.410
 2323TIP3    H2 6911   0.004   7.090   3.504
 2324TIP3   OH2 6912   3.010   6.591   3.153
 2324TIP3    H1 6913   2.917   6.582   3.133
 2324TIP3    H2 6914   3.030   6.682   3.131
 2325TIP3   OH2 6915   2.232   0.839   0.355
 2325TIP3    H1 6916   2.163   0.887   0.310
 2325TIP3    H2 6917   2.263   0.774   0.292
 2326TIP3   OH2 6918   1.246   5.452   5.619
 2326TIP3    H1 6919   1.193   5.527   5.647
 2326TIP3    H2 6920   1.274   5.410   5.700
 2327TIP3   OH2 6921   6.579   3.202   3.995
 2327TIP3    H1 6922   6.549   3.223   3.907
 2327TIP3    H2 6923   6.545   3.114   4.012
 2328TIP3   OH2 6924   7.730   2.337   6.353
 2328TIP3    H1 6925   7.784   2.263   6.326
 2328TIP3    H2 6926   7.778   2.414   6.322
 2329TIP3   OH2 6927   4.508   5.050   5.393
 2329TIP3    H1 6928   4.467   4.989   5.332
 2329TIP3    H2 6929   4.514   5.001   5.475
 2330TIP3   OH2 6930   7.828   2.853   4.840
 2330TIP3    H1 6931   7.838   2.900   4.757
 2330TIP3    H2 6932   7.840   2.920   4.908
 2331TIP3   OH2 6933   1.882   4.133   0.054
 2331TIP3    H1 6934   1.896   4.051   0.007
 2331TIP3    H2 6935   1.887   4.200  -0.014
 2332TIP3   OH2 6936   7.321   3.850   2.443
 2332TIP3    H1 6937   7.239   3.837   2.396
 2332TIP3    H2 6938   7.330   3.945   2.451
 2333TIP3   OH2 6939   5.868   6.158   0.577
 2333TIP3    H1 6940   5.869   6.081   0.520
 2333TIP3    H2 6941   5.778   6.192   0.569
 2334TIP3   OH2 6942   6.314   1.744   3.625
 2334TIP3    H1 6943   6.308   1.649   3.611
 2334TIP3    H2 6944   6.223   1.773   3.624
 2335TIP3   OH2 6945   4.893   3.655   3.909
 2335TIP3    H1 6946   4.872   3.595   3.837
 2335TIP3    H2 6947   4.818   3.649   3.968
 2336TIP3   OH2 6948   5.157   6.827   4.218
 2336TIP3    H1 6949   5.115   6.742   4.206
 2336TIP3    H2 6950   5.240   6.820   4.171
 2337TIP3   OH2 6951   5.078   7.511   3.539
 2337TIP3    H1 6952   5.127   7.489   3.459
 2337TIP3    H2 6953   4.995   7.464   3.530
 2338TIP3   OH2 6954   7.472   0.459   4.877
 2338TIP3    H1 6955   7.406   0.524   4.900
 2338TIP3    H2 6956   7.481   0.405   4.956
 2339TIP3   OH2 6957   1.398   6.880   1.650
 2339TIP3    H1 6958   1.476   6.833   1.680
 2339TIP3    H2 6959   1.430   6.942   1.585
 2340TIP3   OH2 6960   1.735   4.577   0.789
 2340TIP3    H1 6961   1.827   4.574   0.813
 2340TIP3    H2 6962   1.713   4.670   0.787
 2341TIP3   OH2 6963   6.916   6.578   0.164
 2341TIP3    H1 6964   6.982   6.527   0.211
 2341TIP3    H2 6965   6.912   6.661   0.211
 2342TIP3   OH2 6966   3.825   2.684   5.601
 2342TIP3    H1 6967   3.820   2.745   5.675
 2342TIP3    H2 6968   3.770   2.724   5.533
 2343TIP3   OH2 6969   8.028  -0.029   1.892
 2343TIP3    H1 6970   8.085  -0.023   1.968
 2343TIP3    H2 6971   7.958   0.033   1.910
 2344TIP3   OH2 6972   2.421   5.376   4.966
 2344TIP3    H1 6973   2.365   5.298   4.964
 2344TIP3    H2 6974   2.501   5.347   5.011
 2345TIP3   OH2 6975   7.183   6.507   6.408
 2345TIP3    H1 6976   7.141   6.430   6.448
 2345TIP3    H2 6977   7.124   6.531   6.337
 2346TIP3   OH2 6978   3.779   0.645   5.930
 2346TIP3    H1 6979   3.803   0.678   6.017
 2346TIP3    H2 6980   3.683   0.642   5.932
 2347TIP3   OH2 6981   6.844   0.492   4.623
 2347TIP3    H1 6982   6.792   0.566   4.656
 2347TIP3    H2 6983   6.877   0.448   4.701
 2348TIP3   OH2 6984   4.901   6.235   4.653
 2348TIP3    H1 6985   4.817   6.205   4.618
 2348TIP3    H2 6986   4.952   6.155   4.664
 2349TIP3   OH2 6987   1.472   0.822   2.466
 2349TIP3    H1 6988   1.532   0.807   2.539
 2349TIP3    H2 6989   1.523   0.803   2.388
 2350TIP3   OH2 6990   7.732   0.658   4.079
 2350TIP3    H1 6991   7.762   0.567   4.082
 2350TIP3    H2 6992   7.750   0.687   3.990
 2351TIP3   OH2 6993   2.439   2.075   1.188
 2351TIP3    H1 6994   2.514   2.071   1.129
 2351TIP3    H2 6995   2.461   2.015   1.259
 2352TIP3   OH2 6996   4.013   5.091   0.707
 2352TIP3    H1 6997   4.040   5.134   0.788
 2352TIP3    H2 6998   4.071   5.127   0.640
 2353TIP3   OH2 6999   5.799   5.221   1.339
 2353TIP3    H1 7000   5.868   5.284   1.319
 2353TIP3    H2 7001   5.750   5.261   1.411
 2354TIP3   OH2 7002   5.320   1.314   2.929
 2354TIP3    H1 7003   5.369   1.235   2.952
 2354TIP3    H2 7004   5.277   1.340   3.010
 2355TIP3   OH2 7005   2.680   1.988   5.694
 2355TIP3    H1 7006   2.609   2.047   5.719
 2355TIP3    H2 7007   2.759   2.030   5.727
 2356TIP3   OH2 7008   3.320   1.418   1.535
 2356TIP3    H1 7009   3.281   1.478   1.471
 2356TIP3    H2 7010   3.406   1.398   1.499
 2357TIP3   OH2 7011   0.710   2.934   5.886
 2357TIP3    H1 7012   0.623   2.973   5.876
 2357TIP3    H2 7013   0.704   2.850   5.840
 2358TIP3   OH2 7014   3.348   7.090   5.375
 2358TIP3    H1 7015   3.409   7.050   5.313
 2358TIP3    H2 7016   3.384   7.068   5.461
 2359TIP3   OH2 7017   6.986   3.936   6.462
 2359TIP3    H1 7018   6.927   4.002   6.426
 2359TIP3    H2 7019   7.073   3.959   6.428
 2360TIP3   OH2 7020   0.507   1.496   3.257
 2360TIP3    H1 7021   0.572   1.544   3.308
 2360TIP3    H2 7022   0.432   1.555   3.252
 2361TIP3   OH2 7023   2.289   2.873   2.894
 2361TIP3    H1 7024   2.196   2.889   2.911
 2361TIP3    H2 7025   2.298   2.778   2.904
 2362TIP3   OH2 7026   3.462   1.308   3.221
 2362TIP3    H1 7027   3.463   1.213   3.226
 2362TIP3    H2 7028   3.474   1.328   3.128
 2363TIP3   OH2 7029   0.144   2.666   4.756
 2363TIP3    H1 7030   0.205   2.592   4.749
 2363TIP3    H2 7031   0.168   2.710   4.837
 2364TIP3   OH2 7032   7.682   1.249   2.523
 2364TIP3    H1 7033   7.616   1.314   2.546
 2364TIP3    H2 7034   7.761   1.278   2.569
 2365TIP3   OH2 7035   1.753   6.607   5.603
 2365TIP3    H1 7036   1.669   6.642   5.574
 2365TIP3    H2 7037   1.740   6.512   5.603
 2366TIP3   OH2 7038   1.771   4.406   2.793
 2366TIP3    H1 7039   1.737   4.489   2.761
 2366TIP3    H2 7040   1.720   4.388   2.872
 2367TIP3   OH2 7041   2.299   5.350   1.870
 2367TIP3    H1 7042   2.286   5.257   1.890
 2367TIP3    H2 7043   2.229   5.395   1.917
 2368TIP3   OH2 7044   5.251   6.776   1.431
 2368TIP3    H1 7045   5.230   6.868   1.447
 2368TIP3    H2 7046   5.324   6.758   1.491
 2369TIP3   OH2 7047   1.583   7.588   0.340
 2369TIP3    H1 7048   1.639   7.524   0.296
 2369TIP3    H2 7049   1.497   7.546   0.344
 2370TIP3   OH2 7050   4.933   4.433   2.057
 2370TIP3    H1 7051   4.882   4.351   2.060
 2370TIP3    H2 7052   5.015   4.408   2.015
 2371TIP3   OH2 7053   6.204   7.164   6.737
 2371TIP3    H1 7054   6.123   7.131   6.776
 2371TIP3    H2 7055   6.191   7.153   6.642
 2372TIP3   OH2 7056   3.208   3.155   5.613
 2372TIP3    H1 7057   3.242   3.227   5.560
 2372TIP3    H2 7058   3.265   3.155   5.691
 2373TIP3   OH2 7059   0.152   6.276   1.028
 2373TIP3    H1 7060   0.062   6.291   1.057
 2373TIP3    H2 7061   0.200   6.251   1.107
 2374TIP3   OH2 7062   4.832   1.223   3.106
 2374TIP3    H1 7063   4.884   1.295   3.071
 2374TIP3    H2 7064   4.896   1.154   3.124
 2375TIP3   OH2 7065   4.232   1.806   4.485
 2375TIP3    H1 7066   4.288   1.876   4.519
 2375TIP3    H2 7067   4.294   1.743   4.447
 2376TIP3   OH2 7068   2.998   6.967   3.745
 2376TIP3    H1 7069   3.073   6.990   3.800
 2376TIP3    H2 7070   2.942   6.913   3.800
 2377TIP3   OH2 7071   5.131   1.904   4.258
 2377TIP3    H1 7072   5.217   1.915   4.216
 2377TIP3    H2 7073   5.122   1.810   4.269
 2378TIP3   OH2 7074   6.350   5.647   6.215
 2378TIP3    H1 7075   6.310   5.565   6.244
 2378TIP3    H2 7076   6.335   5.649   6.121
 2379TIP3   OH2 7077   4.840   6.678   1.520
 2379TIP3    H1 7078   4.928   6.656   1.551
 2379TIP3    H2 7079   4.782   6.652   1.591
 2380TIP3   OH2 7080   4.620   5.216   2.045
 2380TIP3    H1 7081   4.586   5.306   2.044
 2380TIP3    H2 7082   4.671   5.211   2.126
 2381TIP3   OH2 7083   3.290   5.723   0.008
 2381TIP3    H1 7084   3.230   5.757   0.074
 2381TIP3    H2 7085   3.375   5.761   0.030
 2382TIP3   OH2 7086   5.448   4.958   2.000
 2382TIP3    H1 7087   5.447   4.969   2.096
 2382TIP3    H2 7088   5.362   4.923   1.979
 2383TIP3   OH2 7089   5.189   3.560   1.258
 2383TIP3    H1 7090   5.123   3.626   1.234
 2383TIP3    H2 7091   5.203   3.510   1.178
 2384TIP3   OH2 7092   8.382   0.832   1.340
 2384TIP3    H1 7093   8.434   0.755   1.319
 2384TIP3    H2 7094   8.317   0.801   1.403
 2385TIP3   OH2 7095   2.198   5.422   5.980
 2385TIP3    H1 7096   2.177   5.464   6.063
 2385TIP3    H2 7097   2.183   5.490   5.914
 2386TIP3   OH2 7098   2.065   5.019   6.043
 2386TIP3    H1 7099   2.103   5.036   6.129
 2386TIP3    H2 7100   1.977   4.986   6.061
 2387TIP3   OH2 7101   5.382   5.309   1.567
 2387TIP3    H1 7102   5.333   5.309   1.485
 2387TIP3    H2 7103   5.432   5.227   1.566
 2388TIP3   OH2 7104   2.168   4.326   1.760
 2388TIP3    H1 7105   2.103   4.277   1.811
 2388TIP3    H2 7106   2.116   4.387   1.708
 2389TIP3   OH2 7107   4.391   6.479   0.307
 2389TIP3    H1 7108   4.465   6.510   0.360
 2389TIP3    H2 7109   4.348   6.560   0.278
 2390TIP3   OH2 7110   0.893   1.317   4.880
 2390TIP3    H1 7111   0.800   1.304   4.865
 2390TIP3    H2 7112   0.936   1.253   4.824
 2391TIP3   OH2 7113   6.686   2.718   0.279
 2391TIP3    H1 7114   6.768   2.757   0.308
 2391TIP3    H2 7115   6.675   2.640   0.334
 2392TIP3   OH2 7116   7.608   1.089   5.733
 2392TIP3    H1 7117   7.599   1.068   5.640
 2392TIP3    H2 7118   7.690   1.048   5.759
 2393TIP3   OH2 7119   7.262   1.147   5.469
 2393TIP3    H1 7120   7.232   1.216   5.411
 2393TIP3    H2 7121   7.299   1.193   5.544
 2394TIP3   OH2 7122   6.124   7.167   3.850
 2394TIP3    H1 7123   6.059   7.106   3.885
 2394TIP3    H2 7124   6.139   7.229   3.921
 2395TIP3   OH2 7125   6.956   7.776   6.437
 2395TIP3    H1 7126   6.901   7.847   6.403
 2395TIP3    H2 7127   6.896   7.722   6.488
 2396TIP3   OH2 7128   3.651   1.636   2.262
 2396TIP3    H1 7129   3.712   1.592   2.202
 2396TIP3    H2 7130   3.678   1.728   2.261
 2397TIP3   OH2 7131   5.442   3.175   6.459
 2397TIP3    H1 7132   5.528   3.215   6.475
 2397TIP3    H2 7133   5.459   3.081   6.460
 2398TIP3   OH2 7134   8.152   7.458   5.934
 2398TIP3    H1 7135   8.224   7.423   5.986
 2398TIP3    H2 7136   8.127   7.386   5.876
 2399TIP3   OH2 7137   5.584   6.920   6.002
 2399TIP3    H1 7138   5.632   6.971   6.067
 2399TIP3    H2 7139   5.553   6.985   5.938
 2400TIP3   OH2 7140   4.550   6.157   4.461
 2400TIP3    H1 7141   4.552   6.186   4.552
 2400TIP3    H2 7142   4.458   6.132   4.446
 2401TIP3   OH2 7143   7.107   6.118   2.252
 2401TIP3    H1 7144   7.132   6.123   2.160
 2401TIP3    H2 7145   7.028   6.172   2.258
 2402TIP3   OH2 7146   3.219   2.738   2.671
 2402TIP3    H1 7147   3.280   2.664   2.675
 2402TIP3    H2 7148   3.196   2.746   2.579
 2403TIP3   OH2 7149   0.874   1.615   0.838
 2403TIP3    H1 7150   0.828   1.660   0.767
 2403TIP3    H2 7151   0.856   1.522   0.823
 2404TIP3   OH2 7152   3.189   0.414   2.496
 2404TIP3    H1 7153   3.202   0.385   2.586
 2404TIP3    H2 7154   3.125   0.485   2.502
 2405TIP3   OH2 7155   7.463   0.206   4.994
 2405TIP3    H1 7156   7.372   0.181   4.979
 2405TIP3    H2 7157   7.485   0.168   5.079
 2406TIP3   OH2 7158   0.515   3.730   3.721
 2406TIP3    H1 7159   0.608   3.748   3.710
 2406TIP3    H2 7160   0.490   3.687   3.639
 2407TIP3   OH2 7161   7.475   0.586   5.632
 2407TIP3    H1 7162   7.558   0.630   5.650
 2407TIP3    H2 7163   7.435   0.638   5.562
 2408TIP3   OH2 7164   1.269   5.001   2.431
 2408TIP3    H1 7165   1.271   5.091   2.397
 2408TIP3    H2 7166   1.248   4.947   2.355
 2409TIP3   OH2 7167   3.246   7.635   4.058
 2409TIP3    H1 7168   3.158   7.626   4.021
 2409TIP3    H2 7169   3.276   7.721   4.028
 2410TIP3   OH2 7170   6.512   3.936   4.609
 2410TIP3    H1 7171   6.570   3.984   4.550
 2410TIP3    H2 7172   6.443   3.998   4.632
 2411TIP3   OH2 7173   5.527   7.237   1.199
 2411TIP3    H1 7174   5.451   7.281   1.160
 2411TIP3    H2 7175   5.577   7.206   1.123
 2412TIP3   OH2 7176   0.000   3.601   0.252
 2412TIP3    H1 7177   0.016   3.657   0.328
 2412TIP3    H2 7178  -0.017   3.662   0.181
 2413TIP3   OH2 7179   4.033   0.427   3.415
 2413TIP3    H1 7180   4.059   0.339   3.444
 2413TIP3    H2 7181   4.043   0.482   3.492
 2414TIP3   OH2 7182   0.448   5.983   2.648
 2414TIP3    H1 7183   0.377   5.926   2.619
 2414TIP3    H2 7184   0.406   6.069   2.659
 2415TIP3   OH2 7185   3.129   6.876   5.705
 2415TIP3    H1 7186   3.157   6.941   5.769
 2415TIP3    H2 7187   3.206   6.862   5.650
 2416TIP3   OH2 7188   1.495   6.051   3.214
 2416TIP3    H1 7189   1.418   6.085   3.170
 2416TIP3    H2 7190   1.533   5.989   3.152
 2417TIP3   OH2 7191   5.140   0.731   0.249
 2417TIP3    H1 7192   5.159   0.721   0.156
 2417TIP3    H2 7193   5.221   0.764   0.287
 2418TIP3   OH2 7194   3.587   4.675   4.524
 2418TIP3    H1 7195   3.649   4.625   4.576
 2418TIP3    H2 7196   3.514   4.693   4.584
 2419TIP3   OH2 7197   4.003   3.051   5.494
 2419TIP3    H1 7198   4.086   3.026   5.452
 2419TIP3    H2 7199   3.936   3.033   5.428
 2420TIP3   OH2 7200   3.497   6.105   3.296
 2420TIP3    H1 7201   3.513   6.020   3.338
 2420TIP3    H2 7202   3.422   6.141   3.343
 2421TIP3   OH2 7203   2.375   6.869   6.596
 2421TIP3    H1 7204   2.384   6.846   6.504
 2421TIP3    H2 7205   2.465   6.870   6.629
 2422TIP3   OH2 7206   5.412   5.797   2.129
 2422TIP3    H1 7207   5.375   5.835   2.209
 2422TIP3    H2 7208   5.505   5.785   2.149
 2423TIP3   OH2 7209   6.779   6.033   3.451
 2423TIP3    H1 7210   6.694   5.996   3.475
 2423TIP3    H2 7211   6.841   5.961   3.464
 2424TIP3   OH2 7212   7.014   1.815   6.826
 2424TIP3    H1 7213   7.078   1.839   6.759
 2424TIP3    H2 7214   7.034   1.873   6.900
 2425TIP3   OH2 7215   4.690   0.064   1.427
 2425TIP3    H1 7216   4.662   0.155   1.441
 2425TIP3    H2 7217   4.773   0.071   1.380
 2426TIP3   OH2 7218   6.850   2.125   5.548
 2426TIP3    H1 7219   6.835   2.053   5.488
 2426TIP3    H2 7220   6.923   2.174   5.509
 2427TIP3   OH2 7221   2.875   1.907   6.098
 2427TIP3    H1 7222   2.810   1.977   6.088
 2427TIP3    H2 7223   2.944   1.929   6.035
 2428TIP3   OH2 7224   6.002   4.066   1.812
 2428TIP3    H1 7225   6.009   3.995   1.748
 2428TIP3    H2 7226   6.093   4.094   1.827
 2429TIP3   OH2 7227   0.443   0.414   5.059
 2429TIP3    H1 7228   0.529   0.394   5.021
 2429TIP3    H2 7229   0.407   0.481   5.001
 2430TIP3   OH2 7230   1.566   7.555   0.987
 2430TIP3    H1 7231   1.643   7.503   1.008
 2430TIP3    H2 7232   1.545   7.531   0.897
 2431TIP3   OH2 7233   8.182   7.218   0.066
 2431TIP3    H1 7234   8.193   7.223  -0.029
 2431TIP3    H2 7235   8.098   7.258   0.084
 2432TIP3   OH2 7236   4.762   3.796   4.363
 2432TIP3    H1 7237   4.838   3.825   4.312
 2432TIP3    H2 7238   4.783   3.707   4.390
 2433TIP3   OH2 7239   1.237   2.421   0.179
 2433TIP3    H1 7240   1.191   2.356   0.232
 2433TIP3    H2 7241   1.315   2.443   0.230
 2434TIP3   OH2 7242   3.437   1.915   6.439
 2434TIP3    H1 7243   3.375   1.897   6.368
 2434TIP3    H2 7244   3.479   1.831   6.455
 2435TIP3   OH2 7245   0.748   6.125   4.531
 2435TIP3    H1 7246   0.785   6.173   4.605
 2435TIP3    H2 7247   0.822   6.112   4.472
 2436TIP3   OH2 7248   0.111   1.046   3.241
 2436TIP3    H1 7249   0.153   1.109   3.299
 2436TIP3    H2 7250   0.105   0.965   3.293
 2437TIP3   OH2 7251   1.773   0.489   3.751
 2437TIP3    H1 7252   1.835   0.551   3.714
 2437TIP3    H2 7253   1.781   0.499   3.845
 2438TIP3   OH2 7254   5.619   4.499   3.124
 2438TIP3    H1 7255   5.681   4.426   3.118
 2438TIP3    H2 7256   5.534   4.458   3.110
 2439TIP3   OH2 7257   7.054   1.772   0.595
 2439TIP3    H1 7258   6.999   1.777   0.517
 2439TIP3    H2 7259   7.042   1.856   0.639
 2440TIP3   OH2 7260   8.166   1.278   5.757
 2440TIP3    H1 7261   8.165   1.219   5.832
 2440TIP3    H2 7262   8.250   1.324   5.765
 2441TIP3   OH2 7263   0.948   5.445   0.498
 2441TIP3    H1 7264   0.877   5.474   0.556
 2441TIP3    H2 7265   1.011   5.517   0.498
 2442TIP3   OH2 7266   2.997   2.681   3.430
 2442TIP3    H1 7267   3.009   2.743   3.358
 2442TIP3    H2 7268   3.079   2.631   3.432
 2443TIP3   OH2 7269   5.552   1.299   2.561
 2443TIP3    H1 7270   5.548   1.208   2.591
 2443TIP3    H2 7271   5.591   1.294   2.474
 2444TIP3   OH2 7272   4.266   1.228   3.403
 2444TIP3    H1 7273   4.249   1.189   3.489
 2444TIP3    H2 7274   4.218   1.172   3.341
 2445TIP3   OH2 7275   7.032   5.220   6.139
 2445TIP3    H1 7276   6.954   5.186   6.184
 2445TIP3    H2 7277   7.100   5.220   6.205
 2446TIP3   OH2 7278   3.364   4.874   5.089
 2446TIP3    H1 7279   3.268   4.885   5.086
 2446TIP3    H2 7280   3.398   4.964   5.089
 2447TIP3   OH2 7281   3.696   6.091   4.513
 2447TIP3    H1 7282   3.770   6.080   4.454
 2447TIP3    H2 7283   3.656   6.004   4.517
 2448TIP3   OH2 7284   4.838   5.178   2.215
 2448TIP3    H1 7285   4.911   5.124   2.183
 2448TIP3    H2 7286   4.783   5.117   2.264
 2449TIP3   OH2 7287   7.833   5.277   3.895
 2449TIP3    H1 7288   7.879   5.330   3.960
 2449TIP3    H2 7289   7.884   5.289   3.815
 2450TIP3   OH2 7290   3.878   1.948   1.239
 2450TIP3    H1 7291   3.958   1.998   1.253
 2450TIP3    H2 7292   3.887   1.913   1.151
 2451TIP3   OH2 7293   4.734   3.557   3.010
 2451TIP3    H1 7294   4.739   3.516   3.096
 2451TIP3    H2 7295   4.769   3.645   3.023
 2452TIP3   OH2 7296   5.732   3.775   1.867
 2452TIP3    H1 7297   5.699   3.825   1.793
 2452TIP3    H2 7298   5.824   3.758   1.846
 2453TIP3   OH2 7299   8.036   5.048   1.220
 2453TIP3    H1 7300   8.128   5.024   1.210
 2453TIP3    H2 7301   8.005   5.060   1.130
 2454TIP3   OH2 7302   8.194   0.007   0.382
 2454TIP3    H1 7303   8.156   0.095   0.383
 2454TIP3    H2 7304   8.222  -0.005   0.291
 2455TIP3   OH2 7305   8.467   0.703   5.208
 2455TIP3    H1 7306   8.384   0.685   5.165
 2455TIP3    H2 7307   8.445   0.762   5.280
 2456TIP3   OH2 7308   2.319   7.285   4.702
 2456TIP3    H1 7309   2.237   7.319   4.666
 2456TIP3    H2 7310   2.385   7.307   4.636
 2457TIP3   OH2 7311   2.606   2.573   2.070
 2457TIP3    H1 7312   2.592   2.650   2.015
 2457TIP3    H2 7313   2.635   2.609   2.154
 2458TIP3   OH2 7314   3.423   6.665   2.869
 2458TIP3    H1 7315   3.341   6.622   2.846
 2458TIP3    H2 7316   3.439   6.639   2.960
 2459TIP3   OH2 7317   2.368   1.479   0.893
 2459TIP3    H1 7318   2.290   1.476   0.838
 2459TIP3    H2 7319   2.334   1.476   0.983
 2460TIP3   OH2 7320   2.046   3.406   5.657
 2460TIP3    H1 7321   2.029   3.406   5.751
 2460TIP3    H2 7322   2.042   3.314   5.632
 2461TIP3   OH2 7323   7.300   4.302   0.374
 2461TIP3    H1 7324   7.298   4.246   0.452
 2461TIP3    H2 7325   7.268   4.387   0.405
 2462TIP3   OH2 7326   5.844   6.238   1.187
 2462TIP3    H1 7327   5.924   6.287   1.172
 2462TIP3    H2 7328   5.829   6.243   1.281
 2463TIP3   OH2 7329   6.339   0.810   6.064
 2463TIP3    H1 7330   6.272   0.844   6.004
 2463TIP3    H2 7331   6.422   0.839   6.026
 2464TIP3   OH2 7332   0.086   6.216   5.212
 2464TIP3    H1 7333   0.063   6.186   5.300
 2464TIP3    H2 7334   0.019   6.180   5.155
 2465TIP3   OH2 7335   6.393   5.314   2.734
 2465TIP3    H1 7336   6.353   5.327   2.820
 2465TIP3    H2 7337   6.379   5.397   2.688
 2466TIP3   OH2 7338   7.563   2.436   1.173
 2466TIP3    H1 7339   7.584   2.343   1.170
 2466TIP3    H2 7340   7.578   2.462   1.264
 2467TIP3   OH2 7341   6.051   3.160   2.176
 2467TIP3    H1 7342   5.962   3.194   2.170
 2467TIP3    H2 7343   6.041   3.073   2.213
 2468TIP3   OH2 7344   5.052   5.702   5.495
 2468TIP3    H1 7345   5.047   5.696   5.399
 2468TIP3    H2 7346   5.132   5.655   5.517
 2469TIP3   OH2 7347   6.353   3.516   0.659
 2469TIP3    H1 7348   6.349   3.430   0.701
 2469TIP3    H2 7349   6.432   3.511   0.605
 2470TIP3   OH2 7350   2.882   3.544   1.951
 2470TIP3    H1 7351   2.876   3.473   2.014
 2470TIP3    H2 7352   2.910   3.502   1.870
 2471TIP3   OH2 7353   6.195   4.914   6.334
 2471TIP3    H1 7354   6.165   4.918   6.244
 2471TIP3    H2 7355   6.115   4.905   6.386
 2472TIP3   OH2 7356   7.190   2.721   3.550
 2472TIP3    H1 7357   7.182   2.752   3.460
 2472TIP3    H2 7358   7.283   2.733   3.571
 2473TIP3   OH2 7359   5.927   5.275   0.541
 2473TIP3    H1 7360   5.895   5.345   0.597
 2473TIP3    H2 7361   6.022   5.282   0.545
 2474TIP3   OH2 7362   3.946   7.049   1.483
 2474TIP3    H1 7363   3.932   7.109   1.556
 2474TIP3    H2 7364   4.038   7.063   1.458
 2475TIP3   OH2 7365   4.037   5.052   1.182
 2475TIP3    H1 7366   4.011   5.111   1.254
 2475TIP3    H2 7367   4.043   4.966   1.223
 2476TIP3   OH2 7368   6.888   1.319   4.142
 2476TIP3    H1 7369   6.846   1.377   4.078
 2476TIP3    H2 7370   6.818   1.295   4.202
 2477TIP3   OH2 7371   2.563   2.879   5.599
 2477TIP3    H1 7372   2.508   2.854   5.674
 2477TIP3    H2 7373   2.502   2.917   5.536
 2478TIP3   OH2 7374   0.712   2.954   6.458
 2478TIP3    H1 7375   0.761   3.024   6.416
 2478TIP3    H2 7376   0.669   2.995   6.533
 2479TIP3   OH2 7377   5.601   1.068   4.101
 2479TIP3    H1 7378   5.515   1.035   4.074
 2479TIP3    H2 7379   5.662   1.029   4.039
 2480TIP3   OH2 7380   5.492   3.058   2.945
 2480TIP3    H1 7381   5.413   3.049   2.891
 2480TIP3    H2 7382   5.530   2.971   2.947
 2481TIP3   OH2 7383   7.049   7.332   6.546
 2481TIP3    H1 7384   6.961   7.309   6.515
 2481TIP3    H2 7385   7.068   7.266   6.613
 2482TIP3   OH2 7386   0.854   7.195   2.456
 2482TIP3    H1 7387   0.908   7.122   2.426
 2482TIP3    H2 7388   0.894   7.221   2.539
 2483TIP3   OH2 7389   8.218   3.593   6.550
 2483TIP3    H1 7390   8.312   3.577   6.553
 2483TIP3    H2 7391   8.186   3.530   6.485
 2484TIP3   OH2 7392   7.301   5.620   2.666
 2484TIP3    H1 7393   7.263   5.535   2.645
 2484TIP3    H2 7394   7.257   5.647   2.746
 2485TIP3   OH2 7395   7.355   3.730   0.841
 2485TIP3    H1 7396   7.307   3.663   0.890
 2485TIP3    H2 7397   7.317   3.725   0.753
 2486TIP3   OH2 7398   1.636   6.807   1.007
 2486TIP3    H1 7399   1.654   6.742   0.939
 2486TIP3    H2 7400   1.540   6.814   1.008
 2487TIP3   OH2 7401   4.622   3.704   3.699
 2487TIP3    H1 7402   4.665   3.783   3.733
 2487TIP3    H2 7403   4.692   3.639   3.693
 2488TIP3   OH2 7404   3.768   6.840   2.235
 2488TIP3    H1 7405   3.800   6.918   2.279
 2488TIP3    H2 7406   3.760   6.775   2.304
 2489TIP3   OH2 7407   1.372   6.677   2.098
 2489TIP3    H1 7408   1.325   6.597   2.122
 2489TIP3    H2 7409   1.321   6.713   2.025
 2490TIP3   OH2 7410   7.153   0.096   6.454
 2490TIP3    H1 7411   7.203   0.104   6.373
 2490TIP3    H2 7412   7.106   0.179   6.461
 2491TIP3   OH2 7413   7.786   1.030   3.354
 2491TIP3    H1 7414   7.765   1.096   3.420
 2491TIP3    H2 7415   7.803   0.951   3.405
 2492TIP3   OH2 7416   7.960   1.497   4.192
 2492TIP3    H1 7417   7.965   1.542   4.108
 2492TIP3    H2 7418   7.945   1.405   4.168
 2493TIP3   OH2 7419   4.594   1.911   5.757
 2493TIP3    H1 7420   4.610   1.890   5.849
 2493TIP3    H2 7421   4.658   1.859   5.709
 2494TIP3   OH2 7422   7.855   6.817   1.779
 2494TIP3    H1 7423   7.917   6.856   1.841
 2494TIP3    H2 7424   7.902   6.744   1.739
 2495TIP3   OH2 7425   3.912   3.809   5.547
 2495TIP3    H1 7426   3.849   3.870   5.507
 2495TIP3    H2 7427   3.867   3.775   5.624
 2496TIP3   OH2 7428   0.854   0.150   0.371
 2496TIP3    H1 7429   0.790   0.140   0.441
 2496TIP3    H2 7430   0.857   0.065   0.328
 2497TIP3   OH2 7431   5.394   6.255   4.983
 2497TIP3    H1 7432   5.414   6.349   4.983
 2497TIP3    H2 7433   5.474   6.213   5.016
 2498TIP3   OH2 7434   0.810   1.940   0.042
 2498TIP3    H1 7435   0.750   1.958  -0.030
 2498TIP3    H2 7436   0.870   1.875   0.007
 2499TIP3   OH2 7437   4.574   2.107   0.457
 2499TIP3    H1 7438   4.486   2.143   0.468
 2499TIP3    H2 7439   4.591   2.059   0.538
 2500TIP3   OH2 7440   4.896   7.011   1.670
 2500TIP3    H1 7441   4.807   7.035   1.694
 2500TIP3    H2 7442   4.916   6.934   1.724
 2501TIP3   OH2 7443   2.439   0.672   3.971
 2501TIP3    H1 7444   2.466   0.737   3.906
 2501TIP3    H2 7445   2.520   0.626   3.994
 2502TIP3   OH2 7446   0.154   6.533   6.024
 2502TIP3    H1 7447   0.118   6.539   5.936
 2502TIP3    H2 7448   0.096   6.471   6.069
 2503TIP3   OH2 7449   7.600   4.601   1.994
 2503TIP3    H1 7450   7.685   4.628   1.959
 2503TIP3    H2 7451   7.622   4.546   2.069
 2504TIP3   OH2 7452   2.591   2.721   6.458
 2504TIP3    H1 7453   2.627   2.739   6.372
 2504TIP3    H2 7454   2.581   2.626   6.460
 2505TIP3   OH2 7455   1.938   0.479   5.247
 2505TIP3    H1 7456   1.910   0.426   5.321
 2505TIP3    H2 7457   1.933   0.569   5.278
 2506TIP3   OH2 7458   0.218   7.468   3.587
 2506TIP3    H1 7459   0.170   7.487   3.668
 2506TIP3    H2 7460   0.275   7.394   3.609
 2507TIP3   OH2 7461   6.191   3.935   0.905
 2507TIP3    H1 7462   6.246   3.882   0.847
 2507TIP3    H2 7463   6.131   3.981   0.845
 2508TIP3   OH2 7464   4.253   3.716   5.760
 2508TIP3    H1 7465   4.288   3.796   5.722
 2508TIP3    H2 7466   4.329   3.675   5.803
 2509TIP3   OH2 7467   4.102   5.886   2.564
 2509TIP3    H1 7468   4.045   5.895   2.641
 2509TIP3    H2 7469   4.159   5.811   2.585
 2510TIP3   OH2 7470   5.837   5.538   4.413
 2510TIP3    H1 7471   5.788   5.478   4.469
 2510TIP3    H2 7472   5.791   5.535   4.329
 2511TIP3   OH2 7473   6.845   3.760   0.184
 2511TIP3    H1 7474   6.832   3.831   0.121
 2511TIP3    H2 7475   6.881   3.688   0.132
 2512TIP3   OH2 7476   0.609   1.650   4.343
 2512TIP3    H1 7477   0.678   1.644   4.277
 2512TIP3    H2 7478   0.641   1.597   4.416
 2513TIP3   OH2 7479   0.620   3.714   0.024
 2513TIP3    H1 7480   0.562   3.645   0.055
 2513TIP3    H2 7481   0.660   3.677  -0.056
 2514TIP3   OH2 7482   7.082   2.263   4.124
 2514TIP3    H1 7483   7.020   2.306   4.065
 2514TIP3    H2 7484   7.145   2.332   4.147
 2515TIP3   OH2 7485   5.179   3.522   0.615
 2515TIP3    H1 7486   5.102   3.578   0.625
 2515TIP3    H2 7487   5.244   3.577   0.571
 2516TIP3   OH2 7488   5.851   7.458   5.089
 2516TIP3    H1 7489   5.777   7.519   5.092
 2516TIP3    H2 7490   5.871   7.449   4.996
 2517TIP3   OH2 7491   2.209   6.287   3.904
 2517TIP3    H1 7492   2.165   6.352   3.959
 2517TIP3    H2 7493   2.234   6.335   3.825
 2518TIP3   OH2 7494   7.020   2.633   5.804
 2518TIP3    H1 7495   7.061   2.551   5.831
 2518TIP3    H2 7496   6.975   2.612   5.723
 2519TIP3   OH2 7497   0.387   1.871   1.363
 2519TIP3    H1 7498   0.472   1.863   1.406
 2519TIP3    H2 7499   0.323   1.848   1.430
 2520TIP3   OH2 7500   2.493   5.748   2.866
 2520TIP3    H1 7501   2.430   5.698   2.919
 2520TIP3    H2 7502   2.520   5.820   2.923
 2521TIP3   OH2 7503   0.339   5.289   4.731
 2521TIP3    H1 7504   0.426   5.250   4.724
 2521TIP3    H2 7505   0.353   5.382   4.717
 2522TIP3   OH2 7506   2.575   3.840   5.453
 2522TIP3    H1 7507   2.593   3.848   5.360
 2522TIP3    H2 7508   2.661   3.838   5.494
 2523TIP3   OH2 7509   3.215   6.580   2.380
 2523TIP3    H1 7510   3.264   6.556   2.302
 2523TIP3    H2 7511   3.151   6.510   2.391
 2524TIP3   OH2 7512   1.605   1.560   0.866
 2524TIP3    H1 7513   1.682   1.587   0.915
 2524TIP3    H2 7514   1.611   1.464   0.863
 2525TIP3   OH2 7515   4.753   4.470   4.864
 2525TIP3    H1 7516   4.822   4.536   4.861
 2525TIP3    H2 7517   4.794   4.394   4.905
 2526TIP3   OH2 7518   4.587   3.241   2.314
 2526TIP3    H1 7519   4.533   3.274   2.385
 2526TIP3    H2 7520   4.526   3.195   2.256
 2527TIP3   OH2 7521   7.701   0.205   2.324
 2527TIP3    H1 7522   7.694   0.222   2.230
 2527TIP3    H2 7523   7.673   0.286   2.366
 2528TIP3   OH2 7524   1.568   5.815   2.532
 2528TIP3    H1 7525   1.580   5.843   2.622
 2528TIP3    H2 7526   1.654   5.781   2.506
 2529TIP3   OH2 7527   4.506   5.923   4.314
 2529TIP3    H1 7528   4.528   6.000   4.366
 2529TIP3    H2 7529   4.509   5.850   4.375
 2530TIP3   OH2 7530   1.135   4.049   1.638
 2530TIP3    H1 7531   1.068   4.087   1.695
 2530TIP3    H2 7532   1.087   4.024   1.559
 2531TIP3   OH2 7533   3.626   5.474   3.673
 2531TIP3    H1 7534   3.652   5.382   3.669
 2531TIP3    H2 7535   3.658   5.504   3.759
 2532TIP3   OH2 7536   0.312   6.715   4.108
 2532TIP3    H1 7537   0.230   6.697   4.155
 2532TIP3    H2 7538   0.303   6.668   4.025
 2533TIP3   OH2 7539   0.722   2.686   3.632
 2533TIP3    H1 7540   0.804   2.637   3.641
 2533TIP3    H2 7541   0.681   2.679   3.718
 2534TIP3   OH2 7542   4.578   5.838   3.082
 2534TIP3    H1 7543   4.529   5.767   3.040
 2534TIP3    H2 7544   4.548   5.838   3.173
 2535TIP3   OH2 7545   0.585   6.203   5.694
 2535TIP3    H1 7546   0.492   6.186   5.712
 2535TIP3    H2 7547   0.631   6.131   5.738
 2536TIP3   OH2 7548   7.476   1.098   2.317
 2536TIP3    H1 7549   7.477   1.006   2.293
 2536TIP3    H2 7550   7.449   1.099   2.409
 2537TIP3   OH2 7551   2.406   2.959   0.205
 2537TIP3    H1 7552   2.488   2.971   0.157
 2537TIP3    H2 7553   2.412   3.021   0.278
 2538TIP3   OH2 7554   8.354   7.811   0.925
 2538TIP3    H1 7555   8.405   7.786   0.848
 2538TIP3    H2 7556   8.419   7.851   0.984
 2539TIP3   OH2 7557   5.248   1.289   4.922
 2539TIP3    H1 7558   5.315   1.357   4.924
 2539TIP3    H2 7559   5.223   1.282   4.830
 2540TIP3   OH2 7560   0.534   2.027   1.000
 2540TIP3    H1 7561   0.503   1.995   0.915
 2540TIP3    H2 7562   0.562   1.948   1.046
 2541TIP3   OH2 7563   3.355   4.903   0.794
 2541TIP3    H1 7564   3.335   4.884   0.702
 2541TIP3    H2 7565   3.450   4.916   0.795
 2542TIP3   OH2 7566   0.307   0.817   3.899
 2542TIP3    H1 7567   0.364   0.761   3.952
 2542TIP3    H2 7568   0.288   0.892   3.956
 2543TIP3   OH2 7569   7.529   1.034   3.807
 2543TIP3    H1 7570   7.525   0.987   3.890
 2543TIP3    H2 7571   7.556   1.123   3.832
 2544TIP3   OH2 7572   5.194   4.470   0.849
 2544TIP3    H1 7573   5.124   4.522   0.808
 2544TIP3    H2 7574   5.196   4.388   0.799
 2545TIP3   OH2 7575   1.013   1.576   2.415
 2545TIP3    H1 7576   0.982   1.666   2.407
 2545TIP3    H2 7577   0.979   1.547   2.500
 2546TIP3   OH2 7578   5.862   2.657   1.441
 2546TIP3    H1 7579   5.836   2.607   1.518
 2546TIP3    H2 7580   5.957   2.645   1.435
 2547TIP3   OH2 7581   2.612   0.578   5.064
 2547TIP3    H1 7582   2.628   0.659   5.016
 2547TIP3    H2 7583   2.675   0.579   5.135
 2548TIP3   OH2 7584   5.190   2.179   6.155
 2548TIP3    H1 7585   5.254   2.206   6.090
 2548TIP3    H2 7586   5.234   2.193   6.239
 2549TIP3   OH2 7587   7.084   0.017   1.075
 2549TIP3    H1 7588   7.044  -0.045   1.136
 2549TIP3    H2 7589   7.035   0.005   0.994
 2550TIP3   OH2 7590   2.978   1.381   3.075
 2550TIP3    H1 7591   2.894   1.420   3.099
 2550TIP3    H2 7592   3.005   1.333   3.153
 2551TIP3   OH2 7593   3.174   5.511   5.748
 2551TIP3    H1 7594   3.142   5.422   5.733
 2551TIP3    H2 7595   3.177   5.520   5.844
 2552TIP3   OH2 7596   0.929   4.904   2.220
 2552TIP3    H1 7597   0.862   4.867   2.277
 2552TIP3    H2 7598   0.888   4.909   2.134
 2553TIP3   OH2 7599   3.068   5.000   5.775
 2553TIP3    H1 7600   3.114   4.993   5.859
 2553TIP3    H2 7601   3.016   4.920   5.770
 2554TIP3   OH2 7602   7.235   5.588   3.406
 2554TIP3    H1 7603   7.200   5.503   3.378
 2554TIP3    H2 7604   7.302   5.566   3.470
 2555TIP3   OH2 7605   1.882   5.720   1.069
 2555TIP3    H1 7606   1.905   5.633   1.103
 2555TIP3    H2 7607   1.933   5.730   0.989
 2556TIP3   OH2 7608   1.687   4.527   6.162
 2556TIP3    H1 7609   1.720   4.447   6.123
 2556TIP3    H2 7610   1.765   4.582   6.174
 2557TIP3   OH2 7611   0.184   3.004   5.932
 2557TIP3    H1 7612   0.114   2.944   5.910
 2557TIP3    H2 7613   0.262   2.966   5.893
 2558TIP3   OH2 7614   2.830   3.511   2.446
 2558TIP3    H1 7615   2.791   3.550   2.524
 2558TIP3    H2 7616   2.759   3.508   2.382
 2559TIP3   OH2 7617   2.985   7.690   6.630
 2559TIP3    H1 7618   2.977   7.713   6.537
 2559TIP3    H2 7619   2.898   7.658   6.654
 2560TIP3   OH2 7620   1.360   7.248   0.066
 2560TIP3    H1 7621   1.449   7.213   0.064
 2560TIP3    H2 7622   1.304   7.171   0.069
 2561TIP3   OH2 7623   6.428   2.427   4.885
 2561TIP3    H1 7624   6.451   2.361   4.950
 2561TIP3    H2 7625   6.359   2.387   4.832
 2562TIP3   OH2 7626   2.791   2.007   1.180
 2562TIP3    H1 7627   2.838   2.039   1.103
 2562TIP3    H2 7628   2.811   1.913   1.183
 2563TIP3   OH2 7629   3.625   3.169   2.048
 2563TIP3    H1 7630   3.586   3.250   2.014
 2563TIP3    H2 7631   3.560   3.134   2.108
 2564TIP3   OH2 7632   6.526   7.516   1.329
 2564TIP3    H1 7633   6.435   7.492   1.347
 2564TIP3    H2 7634   6.556   7.559   1.409
 2565TIP3   OH2 7635   3.239   2.939   4.295
 2565TIP3    H1 7636   3.200   2.855   4.272
 2565TIP3    H2 7637   3.277   2.925   4.382
 2566TIP3   OH2 7638   6.315   3.309   2.797
 2566TIP3    H1 7639   6.326   3.240   2.731
 2566TIP3    H2 7640   6.301   3.262   2.879
 2567TIP3   OH2 7641   4.011   4.628   4.793
 2567TIP3    H1 7642   3.990   4.633   4.886
 2567TIP3    H2 7643   4.056   4.544   4.783
 2568TIP3   OH2 7644   2.855   4.231   1.713
 2568TIP3    H1 7645   2.783   4.280   1.673
 2568TIP3    H2 7646   2.867   4.272   1.799
 2569TIP3   OH2 7647   4.523   3.956   3.070
 2569TIP3    H1 7648   4.484   3.890   3.127
 2569TIP3    H2 7649   4.607   3.977   3.112
 2570TIP3   OH2 7650   2.271   1.749   0.290
 2570TIP3    H1 7651   2.290   1.842   0.302
 2570TIP3    H2 7652   2.233   1.744   0.202
 2571TIP3   OH2 7653   1.012   7.749   1.195
 2571TIP3    H1 7654   1.081   7.792   1.245
 2571TIP3    H2 7655   0.959   7.821   1.160
 2572TIP3   OH2 7656   7.697   3.649   2.823
 2572TIP3    H1 7657   7.708   3.560   2.792
 2572TIP3    H2 7658   7.685   3.641   2.918
 2573TIP3   OH2 7659   1.494   1.141   2.368
 2573TIP3    H1 7660   1.503   1.047   2.385
 2573TIP3    H2 7661   1.400   1.156   2.365
 2574TIP3   OH2 7662   2.265   6.009   2.744
 2574TIP3    H1 7663   2.216   5.935   2.705
 2574TIP3    H2 7664   2.247   6.002   2.838
 2575TIP3   OH2 7665   5.726   2.081   2.718
 2575TIP3    H1 7666   5.673   2.051   2.792
 2575TIP3    H2 7667   5.795   2.015   2.709
 2576TIP3   OH2 7668   6.434   3.463   4.105
 2576TIP3    H1 7669   6.432   3.525   4.032
 2576TIP3    H2 7670   6.493   3.394   4.076
 2577TIP3   OH2 7671   8.177   2.168   1.969
 2577TIP3    H1 7672   8.189   2.252   2.014
 2577TIP3    H2 7673   8.120   2.118   2.027
 2578TIP3   OH2 7674   0.777   3.432   1.454
 2578TIP3    H1 7675   0.701   3.482   1.483
 2578TIP3    H2 7676   0.851   3.489   1.473
 2579TIP3   OH2 7677   0.548   0.705   0.392
 2579TIP3    H1 7678   0.637   0.741   0.395
 2579TIP3    H2 7679   0.547   0.638   0.459
 2580TIP3   OH2 7680   3.027   0.240   6.199
 2580TIP3    H1 7681   3.072   0.156   6.194
 2580TIP3    H2 7682   3.014   0.256   6.292
 2581TIP3   OH2 7683   7.243   5.575   6.630
 2581TIP3    H1 7684   7.166   5.524   6.606
 2581TIP3    H2 7685   7.208   5.656   6.667
 2582TIP3   OH2 7686   5.206   5.247   0.585
 2582TIP3    H1 7687   5.118   5.228   0.552
 2582TIP3    H2 7688   5.263   5.238   0.509
 2583TIP3   OH2 7689   1.036   4.490   5.056
 2583TIP3    H1 7690   1.030   4.445   5.140
 2583TIP3    H2 7691   1.017   4.421   4.991
 2584TIP3   OH2 7692   4.571   1.142   3.090
 2584TIP3    H1 7693   4.553   1.061   3.138
 2584TIP3    H2 7694   4.658   1.169   3.121
 2585TIP3   OH2 7695   3.109   5.551   1.620
 2585TIP3    H1 7696   3.088   5.459   1.634
 2585TIP3    H2 7697   3.066   5.573   1.537
 2586TIP3   OH2 7698   6.943   4.812   6.312
 2586TIP3    H1 7699   7.017   4.868   6.289
 2586TIP3    H2 7700   6.882   4.821   6.239
 2587TIP3   OH2 7701   5.434   2.233   2.378
 2587TIP3    H1 7702   5.488   2.182   2.317
 2587TIP3    H2 7703   5.495   2.295   2.417
 2588TIP3   OH2 7704   1.974   5.277   1.733
 2588TIP3    H1 7705   1.963   5.192   1.690
 2588TIP3    H2 7706   2.054   5.313   1.695
 2589TIP3   OH2 7707   4.013   1.261   6.186
 2589TIP3    H1 7708   4.079   1.263   6.255
 2589TIP3    H2 7709   4.063   1.265   6.105
 2590TIP3   OH2 7710   4.696   5.908   3.628
 2590TIP3    H1 7711   4.629   5.881   3.690
 2590TIP3    H2 7712   4.774   5.922   3.682
 2591TIP3   OH2 7713   3.709   3.364   5.002
 2591TIP3    H1 7714   3.800   3.359   4.971
 2591TIP3    H2 7715   3.707   3.444   5.055
 2592TIP3   OH2 7716   4.079   6.159   6.839
 2592TIP3    H1 7717   4.018   6.222   6.800
 2592TIP3    H2 7718   4.166   6.198   6.825
 2593TIP3   OH2 7719   7.688   4.348   1.289
 2593TIP3    H1 7720   7.752   4.380   1.353
 2593TIP3    H2 7721   7.658   4.428   1.245
 2594TIP3   OH2 7722   3.267   2.071   3.769
 2594TIP3    H1 7723   3.259   1.979   3.792
 2594TIP3    H2 7724   3.194   2.088   3.710
 2595TIP3   OH2 7725   7.497   5.105   4.481
 2595TIP3    H1 7726   7.442   5.060   4.546
 2595TIP3    H2 7727   7.446   5.102   4.400
 2596TIP3   OH2 7728   4.123   4.036   6.632
 2596TIP3    H1 7729   4.082   4.023   6.717
 2596TIP3    H2 7730   4.176   3.957   6.619
 2597TIP3   OH2 7731   1.146   4.125   5.790
 2597TIP3    H1 7732   1.122   4.099   5.879
 2597TIP3    H2 7733   1.174   4.044   5.748
 2598TIP3   OH2 7734   1.206   2.589   3.642
 2598TIP3    H1 7735   1.183   2.681   3.652
 2598TIP3    H2 7736   1.249   2.584   3.556
 2599TIP3   OH2 7737   1.980   3.767   3.695
 2599TIP3    H1 7738   2.042   3.749   3.766
 2599TIP3    H2 7739   1.972   3.683   3.650
 2600TIP3   OH2 7740   6.594   5.443   4.700
 2600TIP3    H1 7741   6.568   5.361   4.742
 2600TIP3    H2 7742   6.647   5.488   4.766
 2601TIP3   OH2 7743   6.544   5.057   3.609
 2601TIP3    H1 7744   6.519   5.129   3.551
 2601TIP3    H2 7745   6.638   5.067   3.621
 2602TIP3   OH2 7746   6.524   0.106   3.141
 2602TIP3    H1 7747   6.433   0.125   3.163
 2602TIP3    H2 7748   6.557   0.188   3.104
 2603TIP3   OH2 7749   3.161   2.514   1.941
 2603TIP3    H1 7750   3.223   2.505   2.013
 2603TIP3    H2 7751   3.104   2.587   1.969
 2604TIP3   OH2 7752   8.120   6.094   5.616
 2604TIP3    H1 7753   8.122   6.045   5.533
 2604TIP3    H2 7754   8.161   6.177   5.595
 2605TIP3   OH2 7755   3.168   2.066   0.117
 2605TIP3    H1 7756   3.239   2.027   0.067
 2605TIP3    H2 7757   3.193   2.158   0.128
 2606TIP3   OH2 7758   1.480   6.111   3.646
 2606TIP3    H1 7759   1.537   6.075   3.578
 2606TIP3    H2 7760   1.511   6.201   3.658
 2607TIP3   OH2 7761   7.662   6.548   4.922
 2607TIP3    H1 7762   7.619   6.544   4.836
 2607TIP3    H2 7763   7.615   6.484   4.975
 2608TIP3   OH2 7764   8.042   6.617   0.047
 2608TIP3    H1 7765   7.948   6.616   0.031
 2608TIP3    H2 7766   8.053   6.582   0.135
 2609TIP3   OH2 7767   1.088   7.347   6.684
 2609TIP3    H1 7768   1.065   7.350   6.777
 2609TIP3    H2 7769   1.056   7.430   6.649
 2610TIP3   OH2 7770   7.779   0.174   6.491
 2610TIP3    H1 7771   7.744   0.245   6.545
 2610TIP3    H2 7772   7.833   0.123   6.552
 2611TIP3   OH2 7773   0.324   5.929   4.610
 2611TIP3    H1 7774   0.414   5.961   4.603
 2611TIP3    H2 7775   0.292   5.926   4.520
 2612TIP3   OH2 7776   1.255   3.334   2.399
 2612TIP3    H1 7777   1.193   3.406   2.408
 2612TIP3    H2 7778   1.328   3.371   2.349
 2613TIP3   OH2 7779   2.397   0.039   0.282
 2613TIP3    H1 7780   2.423   0.066   0.370
 2613TIP3    H2 7781   2.390   0.120   0.232
 2614TIP3   OH2 7782   5.284   2.072   2.579
 2614TIP3    H1 7783   5.190   2.092   2.583
 2614TIP3    H2 7784   5.316   2.122   2.504
 2615TIP3   OH2 7785   5.923   5.262   4.078
 2615TIP3    H1 7786   5.870   5.184   4.094
 2615TIP3    H2 7787   5.993   5.257   4.144
 2616TIP3   OH2 7788   1.417   2.003   4.782
 2616TIP3    H1 7789   1.458   1.928   4.826
 2616TIP3    H2 7790   1.409   1.975   4.690
 2617TIP3   OH2 7791   1.094   2.328   1.861
 2617TIP3    H1 7792   1.186   2.303   1.852
 2617TIP3    H2 7793   1.081   2.396   1.795
 2618TIP3   OH2 7794   1.661   1.347   6.516
 2618TIP3    H1 7795   1.720   1.346   6.441
 2618TIP3    H2 7796   1.683   1.267   6.564
 2619TIP3   OH2 7797   4.724   7.006   6.147
 2619TIP3    H1 7798   4.737   7.035   6.238
 2619TIP3    H2 7799   4.671   6.927   6.155
 2620TIP3   OH2 7800   5.128   5.544   5.282
 2620TIP3    H1 7801   5.190   5.548   5.209
 2620TIP3    H2 7802   5.130   5.452   5.310
 2621TIP3   OH2 7803   7.052   6.949   5.541
 2621TIP3    H1 7804   7.036   7.042   5.558
 2621TIP3    H2 7805   7.143   6.936   5.567
 2622TIP3   OH2 7806   3.359   6.724   5.629
 2622TIP3    H1 7807   3.436   6.703   5.681
 2622TIP3    H2 7808   3.353   6.654   5.564
 2623TIP3   OH2 7809   1.283   0.536   3.336
 2623TIP3    H1 7810   1.250   0.447   3.352
 2623TIP3    H2 7811   1.248   0.587   3.409
 2624TIP3   OH2 7812   0.566   5.998   6.281
 2624TIP3    H1 7813   0.605   6.044   6.207
 2624TIP3    H2 7814   0.637   5.986   6.343
 2625TIP3   OH2 7815   8.083   0.463   4.861
 2625TIP3    H1 7816   8.020   0.400   4.896
 2625TIP3    H2 7817   8.084   0.446   4.767
 2626TIP3   OH2 7818   2.759   4.829   3.942
 2626TIP3    H1 7819   2.777   4.740   3.912
 2626TIP3    H2 7820   2.845   4.866   3.961
 2627TIP3   OH2 7821   3.537  -0.015   3.454
 2627TIP3    H1 7822   3.610  -0.018   3.392
 2627TIP3    H2 7823   3.509   0.076   3.454
 2628TIP3   OH2 7824   0.314   5.051   3.414
 2628TIP3    H1 7825   0.298   5.130   3.363
 2628TIP3    H2 7826   0.286   4.979   3.358
 2629TIP3   OH2 7827   2.677   2.087   3.501
 2629TIP3    H1 7828   2.616   2.121   3.566
 2629TIP3    H2 7829   2.738   2.034   3.551
 2630TIP3   OH2 7830   0.586   3.086   3.226
 2630TIP3    H1 7831   0.499   3.046   3.225
 2630TIP3    H2 7832   0.623   3.064   3.140
 2631TIP3   OH2 7833   5.220   2.009   1.747
 2631TIP3    H1 7834   5.188   1.919   1.745
 2631TIP3    H2 7835   5.156   2.059   1.697
 2632TIP3   OH2 7836   7.045   3.328   2.775
 2632TIP3    H1 7837   7.046   3.234   2.757
 2632TIP3    H2 7838   7.015   3.367   2.693
 2633TIP3   OH2 7839   3.911   3.851   6.561
 2633TIP3    H1 7840   3.982   3.916   6.566
 2633TIP3    H2 7841   3.913   3.820   6.470
 2634TIP3   OH2 7842   5.610   1.570   1.175
 2634TIP3    H1 7843   5.628   1.611   1.090
 2634TIP3    H2 7844   5.647   1.630   1.239
 2635TIP3   OH2 7845   4.760   2.259   6.012
 2635TIP3    H1 7846   4.695   2.289   6.074
 2635TIP3    H2 7847   4.797   2.180   6.052
 2636TIP3   OH2 7848   3.759   2.770   4.779
 2636TIP3    H1 7849   3.743   2.770   4.873
 2636TIP3    H2 7850   3.707   2.697   4.745
 2637TIP3   OH2 7851   1.417   6.614   6.370
 2637TIP3    H1 7852   1.447   6.677   6.305
 2637TIP3    H2 7853   1.323   6.634   6.381
 2638TIP3   OH2 7854   5.418   4.877   1.288
 2638TIP3    H1 7855   5.376   4.920   1.214
 2638TIP3    H2 7856   5.503   4.920   1.296
 2639TIP3   OH2 7857   4.567  -0.031   2.379
 2639TIP3    H1 7858   4.485  -0.029   2.330
 2639TIP3    H2 7859   4.560   0.041   2.441
 2640TIP3   OH2 7860   0.935   1.015   3.233
 2640TIP3    H1 7861   0.874   0.943   3.217
 2640TIP3    H2 7862   0.984   0.988   3.311
 2641TIP3   OH2 7863   4.817   1.832   3.816
 2641TIP3    H1 7864   4.846   1.760   3.871
 2641TIP3    H2 7865   4.802   1.905   3.877
 2642TIP3   OH2 7866   1.290   0.162   4.839
 2642TIP3    H1 7867   1.361   0.174   4.903
 2642TIP3    H2 7868   1.323   0.095   4.780
 2643TIP3   OH2 7869   1.864   0.122   4.039
 2643TIP3    H1 7870   1.874   0.028   4.028
 2643TIP3    H2 7871   1.914   0.142   4.119
 2644TIP3   OH2 7872   2.849   4.525   1.176
 2644TIP3    H1 7873   2.825   4.541   1.084
 2644TIP3    H2 7874   2.941   4.500   1.172
 2645TIP3   OH2 7875   6.821   6.425   2.666
 2645TIP3    H1 7876   6.895   6.451   2.722
 2645TIP3    H2 7877   6.857   6.428   2.577
 2646TIP3   OH2 7878   0.625   4.460   6.453
 2646TIP3    H1 7879   0.546   4.510   6.430
 2646TIP3    H2 7880   0.591   4.375   6.481
 2647TIP3   OH2 7881   4.153   4.351   5.911
 2647TIP3    H1 7882   4.128   4.406   5.836
 2647TIP3    H2 7883   4.224   4.296   5.877
 2648TIP3   OH2 7884   0.218   7.272   4.770
 2648TIP3    H1 7885   0.195   7.253   4.861
 2648TIP3    H2 7886   0.161   7.344   4.745
 2649TIP3   OH2 7887   3.848   4.380   0.844
 2649TIP3    H1 7888   3.800   4.452   0.886
 2649TIP3    H2 7889   3.889   4.421   0.768
 2650TIP3   OH2 7890   4.879   1.512   2.625
 2650TIP3    H1 7891   4.785   1.493   2.619
 2650TIP3    H2 7892   4.917   1.433   2.665
 2651TIP3   OH2 7893   4.929   0.440   4.484
 2651TIP3    H1 7894   4.863   0.491   4.530
 2651TIP3    H2 7895   5.001   0.502   4.470
 2652TIP3   OH2 7896   3.699   6.412   2.997
 2652TIP3    H1 7897   3.714   6.458   3.080
 2652TIP3    H2 7898   3.620   6.361   3.011
 2653TIP3   OH2 7899   7.757   5.400   3.293
 2653TIP3    H1 7900   7.765   5.318   3.244
 2653TIP3    H2 7901   7.847   5.429   3.305
 2654TIP3   OH2 7902   3.502   1.290   1.033
 2654TIP3    H1 7903   3.520   1.331   0.948
 2654TIP3    H2 7904   3.428   1.232   1.017
 2655TIP3   OH2 7905   7.715   1.465   0.916
 2655TIP3    H1 7906   7.707   1.397   0.850
 2655TIP3    H2 7907   7.792   1.516   0.890
 2656TIP3   OH2 7908   6.590   4.832   2.367
 2656TIP3    H1 7909   6.554   4.771   2.432
 2656TIP3    H2 7910   6.611   4.910   2.417
 2657TIP3   OH2 7911   3.703   0.163   2.851
 2657TIP3    H1 7912   3.736   0.074   2.858
 2657TIP3    H2 7913   3.622   0.155   2.800
 2658TIP3   OH2 7914   1.680   1.591   1.557
 2658TIP3    H1 7915   1.691   1.588   1.462
 2658TIP3    H2 7916   1.757   1.546   1.591
 2659TIP3   OH2 7917   1.478   7.069   0.331
 2659TIP3    H1 7918   1.397   7.074   0.280
 2659TIP3    H2 7919   1.462   6.999   0.394
 2660TIP3   OH2 7920   0.148   3.118   5.586
 2660TIP3    H1 7921   0.093   3.184   5.545
 2660TIP3    H2 7922   0.103   3.035   5.569
 2661TIP3   OH2 7923   6.724   4.714   3.639
 2661TIP3    H1 7924   6.659   4.647   3.619
 2661TIP3    H2 7925   6.690   4.759   3.716
 2662TIP3   OH2 7926   7.150   3.840   3.621
 2662TIP3    H1 7927   7.063   3.867   3.591
 2662TIP3    H2 7928   7.210   3.901   3.577
 2663TIP3   OH2 7929   3.665   4.481   3.218
 2663TIP3    H1 7930   3.705   4.418   3.157
 2663TIP3    H2 7931   3.668   4.564   3.171
 2664TIP3   OH2 7932   5.868   3.980   6.286
 2664TIP3    H1 7933   5.925   3.985   6.209
 2664TIP3    H2 7934   5.924   4.001   6.360
 2665TIP3   OH2 7935   5.782   5.519   5.383
 2665TIP3    H1 7936   5.813   5.469   5.459
 2665TIP3    H2 7937   5.700   5.477   5.358
 2666TIP3   OH2 7938   2.776   4.877   1.752
 2666TIP3    H1 7939   2.866   4.867   1.782
 2666TIP3    H2 7940   2.781   4.947   1.686
 2667TIP3   OH2 7941   8.012   7.581   2.823
 2667TIP3    H1 7942   8.032   7.511   2.762
 2667TIP3    H2 7943   8.097   7.615   2.850
 2668TIP3   OH2 7944   3.359   2.965   6.638
 2668TIP3    H1 7945   3.330   2.873   6.639
 2668TIP3    H2 7946   3.455   2.960   6.639
 2669TIP3   OH2 7947   1.305   5.215   6.145
 2669TIP3    H1 7948   1.350   5.278   6.201
 2669TIP3    H2 7949   1.243   5.171   6.203
 2670TIP3   OH2 7950   6.628   5.651   3.458
 2670TIP3    H1 7951   6.566   5.607   3.400
 2670TIP3    H2 7952   6.574   5.691   3.526
 2671TIP3   OH2 7953   4.828   5.927   2.559
 2671TIP3    H1 7954   4.765   5.912   2.629
 2671TIP3    H2 7955   4.855   5.839   2.531
 2672TIP3   OH2 7956   7.880   1.026   6.089
 2672TIP3    H1 7957   7.914   1.064   6.170
 2672TIP3    H2 7958   7.840   0.943   6.116
 2673TIP3   OH2 7959   4.203   0.816   6.577
 2673TIP3    H1 7960   4.191   0.779   6.664
 2673TIP3    H2 7961   4.137   0.884   6.570
 2674TIP3   OH2 7962   7.580   6.783   2.183
 2674TIP3    H1 7963   7.522   6.854   2.156
 2674TIP3    H2 7964   7.528   6.734   2.247
 2675TIP3   OH2 7965   3.645   7.621   2.800
 2675TIP3    H1 7966   3.715   7.685   2.814
 2675TIP3    H2 7967   3.591   7.628   2.878
 2676TIP3   OH2 7968   3.751   1.191   2.023
 2676TIP3    H1 7969   3.740   1.270   2.077
 2676TIP3    H2 7970   3.826   1.146   2.062
 2677TIP3   OH2 7971   0.712   0.376   0.644
 2677TIP3    H1 7972   0.630   0.426   0.635
 2677TIP3    H2 7973   0.766   0.405   0.571
 2678TIP3   OH2 7974   2.825   2.286   5.521
 2678TIP3    H1 7975   2.915   2.296   5.550
 2678TIP3    H2 7976   2.772   2.317   5.595
 2679TIP3   OH2 7977   1.824   7.660   6.031
 2679TIP3    H1 7978   1.882   7.714   5.978
 2679TIP3    H2 7979   1.738   7.669   5.989
 2680TIP3   OH2 7980   1.347   3.746   3.532
 2680TIP3    H1 7981   1.366   3.816   3.469
 2680TIP3    H2 7982   1.293   3.685   3.483
 2681TIP3   OH2 7983   3.402   3.845   4.036
 2681TIP3    H1 7984   3.424   3.823   3.946
 2681TIP3    H2 7985   3.357   3.929   4.029
 2682TIP3   OH2 7986   2.590   6.412   3.717
 2682TIP3    H1 7987   2.610   6.323   3.748
 2682TIP3    H2 7988   2.646   6.469   3.770
 2683TIP3   OH2 7989   4.378   3.325   2.907
 2683TIP3    H1 7990   4.436   3.253   2.882
 2683TIP3    H2 7991   4.307   3.322   2.843
 2684TIP3   OH2 7992   1.529   7.655   0.635
 2684TIP3    H1 7993   1.557   7.564   0.625
 2684TIP3    H2 7994   1.539   7.693   0.548
 2685TIP3   OH2 7995   6.572   5.322   0.312
 2685TIP3    H1 7996   6.607   5.399   0.266
 2685TIP3    H2 7997   6.494   5.298   0.262
 2686TIP3   OH2 7998   2.519   1.570   5.641
 2686TIP3    H1 7999   2.579   1.620   5.697
 2686TIP3    H2 8000   2.491   1.632   5.575
 2687TIP3   OH2 8001   6.990   7.131   3.752
 2687TIP3    H1 8002   6.915   7.108   3.808
 2687TIP3    H2 8003   6.962   7.209   3.705
 2688TIP3   OH2 8004   5.876   6.736   1.190
 2688TIP3    H1 8005   5.852   6.659   1.240
 2688TIP3    H2 8006   5.808   6.745   1.124
 2689TIP3   OH2 8007   1.199   6.619   5.246
 2689TIP3    H1 8008   1.245   6.575   5.174
 2689TIP3    H2 8009   1.160   6.696   5.205
 2690TIP3   OH2 8010   5.042   4.473   4.556
 2690TIP3    H1 8011   4.994   4.416   4.496
 2690TIP3    H2 8012   5.133   4.444   4.550
 2691TIP3   OH2 8013   0.582   5.015   0.682
 2691TIP3    H1 8014   0.545   4.988   0.766
 2691TIP3    H2 8015   0.541   5.100   0.664
 2692TIP3   OH2 8016   4.924   0.002   6.583
 2692TIP3    H1 8017   4.930   0.087   6.541
 2692TIP3    H2 8018   4.911   0.021   6.676
 2693TIP3   OH2 8019   8.270   3.450   3.083
 2693TIP3    H1 8020   8.348   3.455   3.028
 2693TIP3    H2 8021   8.255   3.541   3.111
 2694TIP3   OH2 8022   0.974   5.998   2.729
 2694TIP3    H1 8023   0.978   5.944   2.650
 2694TIP3    H2 8024   0.882   6.020   2.739
 2695TIP3   OH2 8025   5.109   2.023   3.430
 2695TIP3    H1 8026   5.099   1.996   3.521
 2695TIP3    H2 8027   5.198   1.996   3.407
 2696TIP3   OH2 8028   2.309   1.004   6.219
 2696TIP3    H1 8029   2.232   1.005   6.276
 2696TIP3    H2 8030   2.376   0.958   6.271
 2697TIP3   OH2 8031   1.434   5.710   0.577
 2697TIP3    H1 8032   1.451   5.696   0.484
 2697TIP3    H2 8033   1.469   5.631   0.619
 2698TIP3   OH2 8034   6.812   7.408   6.348
 2698TIP3    H1 8035   6.836   7.457   6.428
 2698TIP3    H2 8036   6.754   7.468   6.301
 2699TIP3   OH2 8037   3.554   2.055   1.556
 2699TIP3    H1 8038   3.464   2.085   1.572
 2699TIP3    H2 8039   3.560   1.971   1.602
 2700TIP3   OH2 8040   0.637   1.763   3.330
 2700TIP3    H1 8041   0.695   1.806   3.268
 2700TIP3    H2 8042   0.562   1.822   3.337
 2701TIP3   OH2 8043   0.673   3.012   4.830
 2701TIP3    H1 8044   0.741   2.960   4.873
 2701TIP3    H2 8045   0.703   3.103   4.838
 2702TIP3   OH2 8046   2.977   5.537   3.309
 2702TIP3    H1 8047   2.998   5.447   3.285
 2702TIP3    H2 8048   3.058   5.586   3.290
 2703TIP3   OH2 8049   5.561   4.019   1.927
 2703TIP3    H1 8050   5.648   4.029   1.964
 2703TIP3    H2 8051   5.574   4.025   1.832
 2704TIP3   OH2 8052   8.395   1.308   3.664
 2704TIP3    H1 8053   8.379   1.302   3.758
 2704TIP3    H2 8054   8.465   1.371   3.655
 2705TIP3   OH2 8055   0.088   4.167   2.873
 2705TIP3    H1 8056   0.108   4.087   2.922
 2705TIP3    H2 8057   0.097   4.237   2.938
 2706TIP3   OH2 8058   6.247   4.608   1.255
 2706TIP3    H1 8059   6.322   4.658   1.222
 2706TIP3    H2 8060   6.266   4.594   1.348
 2707TIP3   OH2 8061   6.783   5.920   2.204
 2707TIP3    H1 8062   6.826   5.986   2.150
 2707TIP3    H2 8063   6.843   5.846   2.205
 2708TIP3   OH2 8064   5.287   1.487   1.887
 2708TIP3    H1 8065   5.291   1.508   1.980
 2708TIP3    H2 8066   5.344   1.551   1.845
 2709TIP3   OH2 8067   4.088   7.667   2.653
 2709TIP3    H1 8068   4.091   7.604   2.581
 2709TIP3    H2 8069   4.179   7.687   2.672
 2710TIP3   OH2 8070   1.233   2.699   1.673
 2710TIP3    H1 8071   1.179   2.734   1.602
 2710TIP3    H2 8072   1.192   2.616   1.696
 2711TIP3   OH2 8073   6.700   6.147   2.625
 2711TIP3    H1 8074   6.630   6.174   2.565
 2711TIP3    H2 8075   6.737   6.230   2.657
 2712TIP3   OH2 8076   4.328   3.841   0.647
 2712TIP3    H1 8077   4.340   3.764   0.591
 2712TIP3    H2 8078   4.359   3.813   0.733
 2713TIP3   OH2 8079   3.774   1.334   2.800
 2713TIP3    H1 8080   3.739   1.278   2.869
 2713TIP3    H2 8081   3.840   1.280   2.756
 2714TIP3   OH2 8082   8.096   7.476   4.125
 2714TIP3    H1 8083   8.184   7.512   4.136
 2714TIP3    H2 8084   8.057   7.482   4.212
 2715TIP3   OH2 8085   1.776   4.230   3.492
 2715TIP3    H1 8086   1.844   4.215   3.426
 2715TIP3    H2 8087   1.806   4.183   3.569
 2716TIP3   OH2 8088   6.923   0.914   1.862
 2716TIP3    H1 8089   6.903   0.857   1.788
 2716TIP3    H2 8090   7.018   0.907   1.872
 2717TIP3   OH2 8091   2.051   0.227   2.562
 2717TIP3    H1 8092   2.063   0.241   2.656
 2717TIP3    H2 8093   1.965   0.264   2.544
 2718TIP3   OH2 8094   1.651   4.746   1.642
 2718TIP3    H1 8095   1.603   4.796   1.708
 2718TIP3    H2 8096   1.743   4.763   1.662
 2719TIP3   OH2 8097   1.709   5.923   0.735
 2719TIP3    H1 8098   1.732   5.830   0.736
 2719TIP3    H2 8099   1.691   5.941   0.642
 2720TIP3   OH2 8100   5.328   1.699   0.852
 2720TIP3    H1 8101   5.386   1.675   0.780
 2720TIP3    H2 8102   5.297   1.787   0.830
 2721TIP3   OH2 8103   0.924   6.390   2.071
 2721TIP3    H1 8104   0.909   6.313   2.126
 2721TIP3    H2 8105   0.896   6.363   1.983
 2722TIP3   OH2 8106   6.398   3.687   5.230
 2722TIP3    H1 8107   6.349   3.626   5.285
 2722TIP3    H2 8108   6.487   3.684   5.265
 2723TIP3   OH2 8109   3.839   4.554   5.584
 2723TIP3    H1 8110   3.749   4.551   5.615
 2723TIP3    H2 8111   3.850   4.643   5.550
 2724TIP3   OH2 8112   3.516   7.392   5.431
 2724TIP3    H1 8113   3.578   7.319   5.431
 2724TIP3    H2 8114   3.469   7.383   5.347
 2725TIP3   OH2 8115   3.966   2.018   1.832
 2725TIP3    H1 8116   3.905   1.966   1.780
 2725TIP3    H2 8117   4.042   2.031   1.775
 2726TIP3   OH2 8118   5.215   2.015   6.436
 2726TIP3    H1 8119   5.276   1.942   6.427
 2726TIP3    H2 8120   5.271   2.093   6.433
 2727TIP3   OH2 8121   4.028   3.257   6.234
 2727TIP3    H1 8122   3.994   3.347   6.238
 2727TIP3    H2 8123   3.951   3.202   6.223
 2728TIP3   OH2 8124   3.607   3.809   5.211
 2728TIP3    H1 8125   3.607   3.747   5.138
 2728TIP3    H2 8126   3.699   3.836   5.219
 2729TIP3   OH2 8127   7.852   4.628   1.297
 2729TIP3    H1 8128   7.869   4.548   1.347
 2729TIP3    H2 8129   7.786   4.675   1.347
 2730TIP3   OH2 8130   2.042   1.943   0.436
 2730TIP3    H1 8131   2.131   1.948   0.400
 2730TIP3    H2 8132   2.055   1.930   0.530
 2731TIP3   OH2 8133   3.568   7.056   6.758
 2731TIP3    H1 8134   3.517   6.986   6.799
 2731TIP3    H2 8135   3.588   7.116   6.830
 2732TIP3   OH2 8136   3.729   0.216   3.329
 2732TIP3    H1 8137   3.729   0.137   3.275
 2732TIP3    H2 8138   3.806   0.205   3.386
 2733TIP3   OH2 8139   1.282   5.498   4.868
 2733TIP3    H1 8140   1.202   5.446   4.863
 2733TIP3    H2 8141   1.347   5.439   4.906
 2734TIP3   OH2 8142   6.800   4.864   0.010
 2734TIP3    H1 8143   6.710   4.835  -0.004
 2734TIP3    H2 8144   6.852   4.784   0.000
 2735TIP3   OH2 8145   5.725   3.621   4.704
 2735TIP3    H1 8146   5.786   3.641   4.775
 2735TIP3    H2 8147   5.745   3.531   4.680
 2736TIP3   OH2 8148   4.578   6.388   2.685
 2736TIP3    H1 8149   4.594   6.391   2.590
 2736TIP3    H2 8150   4.615   6.304   2.713
 2737TIP3   OH2 8151   1.809   5.665   0.753
 2737TIP3    H1 8152   1.831   5.594   0.693
 2737TIP3    H2 8153   1.894   5.700   0.782
 2738TIP3   OH2 8154   4.165   1.456   5.447
 2738TIP3    H1 8155   4.124   1.385   5.399
 2738TIP3    H2 8156   4.141   1.440   5.538
 2739TIP3   OH2 8157   4.577   4.537   1.050
 2739TIP3    H1 8158   4.574   4.632   1.062
 2739TIP3    H2 8159   4.629   4.505   1.124
 2740TIP3   OH2 8160   4.372   7.136   3.382
 2740TIP3    H1 8161   4.388   7.162   3.292
 2740TIP3    H2 8162   4.375   7.040   3.381
 2741TIP3   OH2 8163   5.514   5.002   3.652
 2741TIP3    H1 8164   5.558   5.005   3.567
 2741TIP3    H2 8165   5.427   5.037   3.635
 2742TIP3   OH2 8166   2.854   0.093   5.304
 2742TIP3    H1 8167   2.888   0.008   5.278
 2742TIP3    H2 8168   2.806   0.076   5.385
 2743TIP3   OH2 8169   1.361   1.177   0.809
 2743TIP3    H1 8170   1.364   1.186   0.713
 2743TIP3    H2 8171   1.293   1.238   0.837
 2744TIP3   OH2 8172   5.779   4.181   1.686
 2744TIP3    H1 8173   5.848   4.156   1.748
 2744TIP3    H2 8174   5.825   4.229   1.617
 2745TIP3   OH2 8175   0.932   5.319   6.377
 2745TIP3    H1 8176   0.987   5.286   6.448
 2745TIP3    H2 8177   0.851   5.269   6.384
 2746TIP3   OH2 8178   4.389   3.589   1.133
 2746TIP3    H1 8179   4.297   3.612   1.143
 2746TIP3    H2 8180   4.402   3.515   1.192
 2747TIP3   OH2 8181   8.157   1.426   6.154
 2747TIP3    H1 8182   8.068   1.399   6.175
 2747TIP3    H2 8183   8.209   1.401   6.231
 2748TIP3   OH2 8184   5.331   2.383   6.685
 2748TIP3    H1 8185   5.362   2.358   6.772
 2748TIP3    H2 8186   5.410   2.386   6.631
 2749TIP3   OH2 8187   2.540   1.036   3.457
 2749TIP3    H1 8188   2.483   1.105   3.492
 2749TIP3    H2 8189   2.484   0.986   3.398
 2750TIP3   OH2 8190   2.445   1.045   3.742
 2750TIP3    H1 8191   2.449   1.110   3.672
 2750TIP3    H2 8192   2.489   1.087   3.816
 2751TIP3   OH2 8193   2.553   0.730   2.924
 2751TIP3    H1 8194   2.549   0.823   2.945
 2751TIP3    H2 8195   2.461   0.703   2.919
 2752TIP3   OH2 8196   6.800   5.407   1.470
 2752TIP3    H1 8197   6.772   5.320   1.443
 2752TIP3    H2 8198   6.859   5.436   1.401
 2753TIP3   OH2 8199   3.440   0.747   4.893
 2753TIP3    H1 8200   3.535   0.733   4.888
 2753TIP3    H2 8201   3.403   0.659   4.887
 2754TIP3   OH2 8202   1.056   2.856   2.768
 2754TIP3    H1 8203   1.106   2.830   2.691
 2754TIP3    H2 8204   1.042   2.774   2.816
 2755TIP3   OH2 8205   1.879   7.776   5.309
 2755TIP3    H1 8206   1.823   7.807   5.239
 2755TIP3    H2 8207   1.853   7.684   5.322
 2756TIP3   OH2 8208   7.233   4.641   3.927
 2756TIP3    H1 8209   7.220   4.606   3.839
 2756TIP3    H2 8210   7.217   4.735   3.918
 2757TIP3   OH2 8211   0.367   5.771   0.101
 2757TIP3    H1 8212   0.289   5.814   0.136
 2757TIP3    H2 8213   0.431   5.777   0.172
 2758TIP3   OH2 8214   0.145   0.325   4.308
 2758TIP3    H1 8215   0.146   0.301   4.215
 2758TIP3    H2 8216   0.141   0.421   4.307
 2759TIP3   OH2 8217   2.839   1.240   5.023
 2759TIP3    H1 8218   2.794   1.270   5.102
 2759TIP3    H2 8219   2.872   1.153   5.046
 2760TIP3   OH2 8220   8.144   0.886   0.859
 2760TIP3    H1 8221   8.195   0.908   0.937
 2760TIP3    H2 8222   8.100   0.967   0.835
 2761TIP3   OH2 8223   8.245   3.994   4.163
 2761TIP3    H1 8224   8.304   3.931   4.204
 2761TIP3    H2 8225   8.300   4.042   4.101
 2762TIP3   OH2 8226   8.166   6.330   1.557
 2762TIP3    H1 8227   8.259   6.330   1.534
 2762TIP3    H2 8228   8.160   6.270   1.631
 2763TIP3   OH2 8229   4.142   2.887   4.335
 2763TIP3    H1 8230   4.218   2.941   4.316
 2763TIP3    H2 8231   4.153   2.861   4.427
 2764TIP3   OH2 8232   1.828   7.292   2.060
 2764TIP3    H1 8233   1.739   7.274   2.029
 2764TIP3    H2 8234   1.880   7.301   1.980
 2765TIP3   OH2 8235   5.161   3.090   6.393
 2765TIP3    H1 8236   5.150   2.995   6.382
 2765TIP3    H2 8237   5.255   3.103   6.393
 2766TIP3   OH2 8238   7.647   6.189   1.698
 2766TIP3    H1 8239   7.570   6.208   1.644
 2766TIP3    H2 8240   7.700   6.269   1.693
 2767TIP3   OH2 8241   5.321   3.254   3.476
 2767TIP3    H1 8242   5.348   3.192   3.543
 2767TIP3    H2 8243   5.259   3.206   3.421
 2768TIP3   OH2 8244   8.250   6.250   0.353
 2768TIP3    H1 8245   8.169   6.209   0.322
 2768TIP3    H2 8246   8.226   6.293   0.435
 2769TIP3   OH2 8247   7.805   6.873   0.816
 2769TIP3    H1 8248   7.777   6.957   0.853
 2769TIP3    H2 8249   7.749   6.808   0.858
 2770TIP3   OH2 8250   3.817   6.524   3.554
 2770TIP3    H1 8251   3.734   6.548   3.596
 2770TIP3    H2 8252   3.883   6.574   3.601
 2771TIP3   OH2 8253   1.740   2.794   4.692
 2771TIP3    H1 8254   1.644   2.803   4.693
 2771TIP3    H2 8255   1.757   2.714   4.741
 2772TIP3   OH2 8256   0.744   4.610   1.352
 2772TIP3    H1 8257   0.796   4.651   1.421
 2772TIP3    H2 8258   0.658   4.596   1.391
 2773TIP3   OH2 8259   2.335   0.557   5.193
 2773TIP3    H1 8260   2.290   0.635   5.225
 2773TIP3    H2 8261   2.404   0.591   5.137
 2774TIP3   OH2 8262   1.051   1.968   2.926
 2774TIP3    H1 8263   0.962   1.939   2.946
 2774TIP3    H2 8264   1.066   1.938   2.836
 2775TIP3   OH2 8265   1.246   7.011   0.117
 2775TIP3    H1 8266   1.230   6.993   0.209
 2775TIP3    H2 8267   1.287   6.932   0.083
 2776TIP3   OH2 8268   3.609   2.928   5.864
 2776TIP3    H1 8269   3.524   2.926   5.820
 2776TIP3    H2 8270   3.601   2.997   5.929
 2777TIP3   OH2 8271   3.771   4.235   4.375
 2777TIP3    H1 8272   3.811   4.227   4.288
 2777TIP3    H2 8273   3.749   4.145   4.399
 2778TIP3   OH2 8274   4.090   4.332   6.321
 2778TIP3    H1 8275   3.999   4.307   6.306
 2778TIP3    H2 8276   4.097   4.341   6.416
 2779TIP3   OH2 8277   6.180   5.290   5.654
 2779TIP3    H1 8278   6.262   5.272   5.700
 2779TIP3    H2 8279   6.172   5.219   5.590
 2780TIP3   OH2 8280   5.623   6.305   0.567
 2780TIP3    H1 8281   5.632   6.309   0.472
 2780TIP3    H2 8282   5.675   6.378   0.599
 2781TIP3   OH2 8283   4.413   4.898   2.854
 2781TIP3    H1 8284   4.492   4.844   2.861
 2781TIP3    H2 8285   4.426   4.967   2.919
 2782TIP3   OH2 8286   0.192   1.874   2.545
 2782TIP3    H1 8287   0.266   1.859   2.604
 2782TIP3    H2 8288   0.121   1.902   2.602
 2783TIP3   OH2 8289   3.067   0.089   2.648
 2783TIP3    H1 8290   2.988   0.054   2.689
 2783TIP3    H2 8291   3.070   0.180   2.677
 2784TIP3   OH2 8292   5.960   4.588   0.716
 2784TIP3    H1 8293   5.985   4.503   0.679
 2784TIP3    H2 8294   6.033   4.646   0.693
 2785TIP3   OH2 8295   6.728   3.603   6.627
 2785TIP3    H1 8296   6.774   3.597   6.710
 2785TIP3    H2 8297   6.792   3.641   6.567
 2786TIP3   OH2 8298   8.307   7.441   2.341
 2786TIP3    H1 8299   8.329   7.381   2.270
 2786TIP3    H2 8300   8.212   7.450   2.338
 2787TIP3   OH2 8301   6.977   1.197   4.799
 2787TIP3    H1 8302   6.990   1.252   4.722
 2787TIP3    H2 8303   6.989   1.108   4.768
 2788TIP3   OH2 8304   0.437   0.649   1.974
 2788TIP3    H1 8305   0.477   0.726   1.935
 2788TIP3    H2 8306   0.488   0.576   1.940
 2789TIP3   OH2 8307   1.208   4.336   1.297
 2789TIP3    H1 8308   1.220   4.295   1.383
 2789TIP3    H2 8309   1.122   4.378   1.303
 2790TIP3   OH2 8310   3.624   5.386   5.509
 2790TIP3    H1 8311   3.572   5.397   5.588
 2790TIP3    H2 8312   3.700   5.334   5.536
 2791TIP3   OH2 8313   5.836   3.736   0.512
 2791TIP3    H1 8314   5.801   3.802   0.572
 2791TIP3    H2 8315   5.925   3.721   0.543
 2792TIP3   OH2 8316   7.283   3.207   3.340
 2792TIP3    H1 8317   7.257   3.271   3.406
 2792TIP3    H2 8318   7.378   3.205   3.344
 2793TIP3   OH2 8319   6.545   6.704   5.915
 2793TIP3    H1 8320   6.523   6.661   5.998
 2793TIP3    H2 8321   6.580   6.789   5.940
 2794TIP3   OH2 8322   7.731   2.575   2.857
 2794TIP3    H1 8323   7.739   2.501   2.918
 2794TIP3    H2 8324   7.821   2.605   2.843
 2795TIP3   OH2 8325   5.410   4.329   3.024
 2795TIP3    H1 8326   5.443   4.283   2.947
 2795TIP3    H2 8327   5.327   4.368   2.995
 2796TIP3   OH2 8328   5.285   7.650   3.658
 2796TIP3    H1 8329   5.295   7.710   3.585
 2796TIP3    H2 8330   5.218   7.587   3.629
 2797TIP3   OH2 8331   8.280   5.770   4.760
 2797TIP3    H1 8332   8.249   5.816   4.838
 2797TIP3    H2 8333   8.343   5.829   4.720
 2798TIP3   OH2 8334   0.083   3.217   1.099
 2798TIP3    H1 8335   0.094   3.174   1.184
 2798TIP3    H2 8336   0.162   3.195   1.050
 2799TIP3   OH2 8337   4.610   3.924   2.766
 2799TIP3    H1 8338   4.628   3.831   2.756
 2799TIP3    H2 8339   4.612   3.939   2.861
 2800TIP3   OH2 8340   6.377   2.882   2.403
 2800TIP3    H1 8341   6.412   2.971   2.403
 2800TIP3    H2 8342   6.363   2.861   2.495
 2801TIP3   OH2 8343   0.093   5.903   0.150
 2801TIP3    H1 8344   0.014   5.867   0.190
 2801TIP3    H2 8345   0.130   5.960   0.218
 2802TIP3   OH2 8346   4.460   3.858   1.382
 2802TIP3    H1 8347   4.454   3.857   1.477
 2802TIP3    H2 8348   4.374   3.829   1.352
 2803TIP3   OH2 8349   3.001   3.970   0.039
 2803TIP3    H1 8350   2.962   3.933  -0.041
 2803TIP3    H2 8351   2.976   4.062   0.038
 2804TIP3   OH2 8352   1.325   4.926   3.938
 2804TIP3    H1 8353   1.358   4.839   3.917
 2804TIP3    H2 8354   1.379   4.986   3.886
 2805TIP3   OH2 8355   6.131   1.729   0.336
 2805TIP3    H1 8356   6.206   1.776   0.374
 2805TIP3    H2 8357   6.081   1.796   0.291
 2806TIP3   OH2 8358   7.276   2.921   1.382
 2806TIP3    H1 8359   7.330   2.915   1.303
 2806TIP3    H2 8360   7.334   2.893   1.453
 2807TIP3   OH2 8361   4.789   3.166   5.323
 2807TIP3    H1 8362   4.829   3.244   5.361
 2807TIP3    H2 8363   4.781   3.105   5.396
 2808TIP3   OH2 8364   7.199   4.628   3.426
 2808TIP3    H1 8365   7.106   4.636   3.403
 2808TIP3    H2 8366   7.229   4.553   3.376
 2809TIP3   OH2 8367   5.920   7.039   2.205
 2809TIP3    H1 8368   5.943   6.994   2.124
 2809TIP3    H2 8369   6.000   7.038   2.257
 2810TIP3   OH2 8370   2.267   3.347   4.419
 2810TIP3    H1 8371   2.299   3.423   4.371
 2810TIP3    H2 8372   2.237   3.287   4.350
 2811TIP3   OH2 8373   2.390   7.319   1.694
 2811TIP3    H1 8374   2.479   7.334   1.725
 2811TIP3    H2 8375   2.334   7.340   1.769
 2812TIP3   OH2 8376   7.232   2.632   3.043
 2812TIP3    H1 8377   7.278   2.611   2.961
 2812TIP3    H2 8378   7.276   2.710   3.077
 2813TIP3   OH2 8379   0.134   5.870   0.487
 2813TIP3    H1 8380   0.228   5.856   0.501
 2813TIP3    H2 8381   0.128   5.958   0.449
 2814TIP3   OH2 8382   6.407   6.913   2.905
 2814TIP3    H1 8383   6.357   6.836   2.933
 2814TIP3    H2 8384   6.343   6.966   2.857
 2815TIP3   OH2 8385   4.225   1.727   2.195
 2815TIP3    H1 8386   4.171   1.801   2.166
 2815TIP3    H2 8387   4.200   1.655   2.137
 2816TIP3   OH2 8388   6.272   6.738   6.600
 2816TIP3    H1 8389   6.295   6.763   6.511
 2816TIP3    H2 8390   6.277   6.642   6.600
 2817TIP3   OH2 8391   0.055   1.759   6.010
 2817TIP3    H1 8392  -0.012   1.703   5.971
 2817TIP3    H2 8393   0.017   1.847   6.010
 2818TIP3   OH2 8394   2.583   2.427   4.807
 2818TIP3    H1 8395   2.595   2.504   4.863
 2818TIP3    H2 8396   2.614   2.455   4.721
 2819TIP3   OH2 8397   6.252   6.337   4.744
 2819TIP3    H1 8398   6.262   6.372   4.833
 2819TIP3    H2 8399   6.171   6.376   4.712
 2820TIP3   OH2 8400   4.242   1.944   3.908
 2820TIP3    H1 8401   4.279   1.934   3.820
 2820TIP3    H2 8402   4.299   2.008   3.951
 2821TIP3   OH2 8403   3.634   2.355   4.024
 2821TIP3    H1 8404   3.675   2.334   3.939
 2821TIP3    H2 8405   3.546   2.317   4.018
 2822TIP3   OH2 8406   5.697   7.133   6.189
 2822TIP3    H1 8407   5.713   7.082   6.268
 2822TIP3    H2 8408   5.692   7.224   6.219
 2823TIP3   OH2 8409   4.010   4.529   5.350
 2823TIP3    H1 8410   3.949   4.553   5.420
 2823TIP3    H2 8411   4.094   4.519   5.395
 2824TIP3   OH2 8412   7.540   3.863   2.688
 2824TIP3    H1 8413   7.494   3.830   2.610
 2824TIP3    H2 8414   7.589   3.787   2.720
 2825TIP3   OH2 8415   6.025   2.165   5.474
 2825TIP3    H1 8416   6.083   2.240   5.482
 2825TIP3    H2 8417   6.039   2.133   5.385
 2826TIP3   OH2 8418   0.243   1.191   4.174
 2826TIP3    H1 8419   0.213   1.271   4.218
 2826TIP3    H2 8420   0.338   1.194   4.183
 2827TIP3   OH2 8421   2.724   2.675   2.327
 2827TIP3    H1 8422   2.689   2.612   2.389
 2827TIP3    H2 8423   2.715   2.760   2.371
 2828TIP3   OH2 8424   4.105   2.663   4.970
 2828TIP3    H1 8425   4.039   2.625   5.028
 2828TIP3    H2 8426   4.146   2.588   4.927
 2829TIP3   OH2 8427   4.656   7.239   2.642
 2829TIP3    H1 8428   4.567   7.206   2.632
 2829TIP3    H2 8429   4.684   7.259   2.552
 2830TIP3   OH2 8430   7.528   5.693   3.505
 2830TIP3    H1 8431   7.539   5.686   3.410
 2830TIP3    H2 8432   7.503   5.605   3.533
 2831TIP3   OH2 8433   8.057   6.873   6.421
 2831TIP3    H1 8434   8.151   6.885   6.434
 2831TIP3    H2 8435   8.022   6.858   6.509
 2832TIP3   OH2 8436   3.324   7.049   1.317
 2832TIP3    H1 8437   3.278   7.048   1.233
 2832TIP3    H2 8438   3.327   7.141   1.341
 2833TIP3   OH2 8439   6.471   7.221   0.836
 2833TIP3    H1 8440   6.476   7.281   0.909
 2833TIP3    H2 8441   6.495   7.136   0.873
 2834TIP3   OH2 8442   1.927   3.431   0.477
 2834TIP3    H1 8443   1.946   3.384   0.396
 2834TIP3    H2 8444   2.010   3.472   0.500
 2835TIP3   OH2 8445   4.151   4.057   2.553
 2835TIP3    H1 8446   4.241   4.090   2.551
 2835TIP3    H2 8447   4.131   4.047   2.646
 2836TIP3   OH2 8448   7.125   5.544   0.248
 2836TIP3    H1 8449   7.147   5.568   0.158
 2836TIP3    H2 8450   7.056   5.478   0.239
 2837TIP3   OH2 8451   3.622   5.503   4.761
 2837TIP3    H1 8452   3.601   5.536   4.848
 2837TIP3    H2 8453   3.672   5.573   4.720
 2838TIP3   OH2 8454   4.590   6.317   4.687
 2838TIP3    H1 8455   4.641   6.398   4.691
 2838TIP3    H2 8456   4.567   6.298   4.778
 2839TIP3   OH2 8457   8.420   5.787   3.372
 2839TIP3    H1 8458   8.426   5.861   3.311
 2839TIP3    H2 8459   8.329   5.758   3.365
 2840TIP3   OH2 8460   0.833   5.634   4.009
 2840TIP3    H1 8461   0.867   5.682   4.084
 2840TIP3    H2 8462   0.781   5.563   4.047
 2841TIP3   OH2 8463   2.752   3.819   1.436
 2841TIP3    H1 8464   2.759   3.747   1.499
 2841TIP3    H2 8465   2.748   3.776   1.350
 2842TIP3   OH2 8466   0.624   0.364   1.036
 2842TIP3    H1 8467   0.624   0.411   1.119
 2842TIP3    H2 8468   0.679   0.417   0.978
 2843TIP3   OH2 8469   4.134   3.561   2.130
 2843TIP3    H1 8470   4.200   3.631   2.135
 2843TIP3    H2 8471   4.052   3.605   2.155
 2844TIP3   OH2 8472   4.378   2.682   2.014
 2844TIP3    H1 8473   4.457   2.676   1.959
 2844TIP3    H2 8474   4.375   2.774   2.040
 2845TIP3   OH2 8475   6.468   6.136   4.078
 2845TIP3    H1 8476   6.508   6.223   4.078
 2845TIP3    H2 8477   6.521   6.085   4.140
 2846TIP3   OH2 8478   3.646   4.960   1.307
 2846TIP3    H1 8479   3.654   5.039   1.361
 2846TIP3    H2 8480   3.609   4.894   1.366
 2847TIP3   OH2 8481   5.601   4.503   1.378
 2847TIP3    H1 8482   5.573   4.440   1.445
 2847TIP3    H2 8483   5.520   4.543   1.347
 2848TIP3   OH2 8484   2.501   2.529   0.409
 2848TIP3    H1 8485   2.499   2.435   0.393
 2848TIP3    H2 8486   2.409   2.554   0.417
 2849TIP3   OH2 8487   3.460   1.704   2.980
 2849TIP3    H1 8488   3.399   1.638   2.949
 2849TIP3    H2 8489   3.410   1.786   2.982
 2850TIP3   OH2 8490   7.838   7.203   2.671
 2850TIP3    H1 8491   7.749   7.215   2.705
 2850TIP3    H2 8492   7.886   7.162   2.743
 2851TIP3   OH2 8493   1.911   7.722   0.851
 2851TIP3    H1 8494   1.924   7.729   0.946
 2851TIP3    H2 8495   1.828   7.766   0.835
 2852TIP3   OH2 8496   1.271   5.880   4.469
 2852TIP3    H1 8497   1.332   5.920   4.531
 2852TIP3    H2 8498   1.324   5.815   4.423
 2853TIP3   OH2 8499   5.714   0.359   4.240
 2853TIP3    H1 8500   5.678   0.448   4.246
 2853TIP3    H2 8501   5.638   0.302   4.249
 2854TIP3   OH2 8502   2.793   2.079   5.036
 2854TIP3    H1 8503   2.842   2.068   5.118
 2854TIP3    H2 8504   2.804   1.995   4.990
 2855TIP3   OH2 8505   3.738   0.468   5.247
 2855TIP3    H1 8506   3.659   0.518   5.224
 2855TIP3    H2 8507   3.772   0.511   5.325
 2856TIP3   OH2 8508   6.168   7.449   5.374
 2856TIP3    H1 8509   6.245   7.438   5.318
 2856TIP3    H2 8510   6.191   7.403   5.454
 2857TIP3   OH2 8511   3.910   2.767   0.854
 2857TIP3    H1 8512   3.940   2.850   0.817
 2857TIP3    H2 8513   3.865   2.791   0.935
 2858TIP3   OH2 8514   7.460   3.206   3.639
 2858TIP3    H1 8515   7.554   3.212   3.655
 2858TIP3    H2 8516   7.436   3.117   3.665
 2859TIP3   OH2 8517   0.648   6.214   1.364
 2859TIP3    H1 8518   0.608   6.256   1.440
 2859TIP3    H2 8519   0.674   6.127   1.396
 2860TIP3   OH2 8520   1.214   0.348   0.869
 2860TIP3    H1 8521   1.215   0.432   0.914
 2860TIP3    H2 8522   1.176   0.367   0.784
 2861TIP3   OH2 8523   7.449   1.856   0.630
 2861TIP3    H1 8524   7.399   1.936   0.648
 2861TIP3    H2 8525   7.410   1.791   0.689
 2862TIP3   OH2 8526   4.547   2.872   5.469
 2862TIP3    H1 8527   4.603   2.801   5.440
 2862TIP3    H2 8528   4.483   2.883   5.399
 2863TIP3   OH2 8529   5.554   6.189   1.585
 2863TIP3    H1 8530   5.510   6.271   1.608
 2863TIP3    H2 8531   5.483   6.133   1.552
 2864TIP3   OH2 8532   4.469   6.771   2.777
 2864TIP3    H1 8533   4.451   6.855   2.821
 2864TIP3    H2 8534   4.480   6.794   2.685
 2865TIP3   OH2 8535   3.322   1.758   5.676
 2865TIP3    H1 8536   3.384   1.821   5.713
 2865TIP3    H2 8537   3.258   1.811   5.629
 2866TIP3   OH2 8538   6.717   1.170   0.831
 2866TIP3    H1 8539   6.722   1.085   0.875
 2866TIP3    H2 8540   6.809   1.193   0.815
 2867TIP3   OH2 8541   8.093   6.353   3.805
 2867TIP3    H1 8542   8.181   6.336   3.840
 2867TIP3    H2 8543   8.078   6.281   3.743
 2868TIP3   OH2 8544   2.140   1.972   2.011
 2868TIP3    H1 8545   2.134   1.975   1.915
 2868TIP3    H2 8546   2.230   2.000   2.029
 2869TIP3   OH2 8547   7.782   0.789   2.108
 2869TIP3    H1 8548   7.716   0.732   2.148
 2869TIP3    H2 8549   7.829   0.827   2.182
 2870TIP3   OH2 8550   1.448   6.373   3.856
 2870TIP3    H1 8551   1.404   6.456   3.871
 2870TIP3    H2 8552   1.376   6.309   3.852
 2871TIP3   OH2 8553   8.172   5.270   3.267
 2871TIP3    H1 8554   8.238   5.204   3.245
 2871TIP3    H2 8555   8.089   5.230   3.240
 2872TIP3   OH2 8556   2.470   3.163   1.315
 2872TIP3    H1 8557   2.377   3.162   1.339
 2872TIP3    H2 8558   2.481   3.244   1.265
 2873TIP3   OH2 8559   5.938   3.809   1.670
 2873TIP3    H1 8560   5.991   3.738   1.705
 2873TIP3    H2 8561   5.914   3.781   1.582
 2874TIP3   OH2 8562   5.306   4.058   4.362
 2874TIP3    H1 8563   5.308   4.107   4.280
 2874TIP3    H2 8564   5.384   4.002   4.359
 2875TIP3   OH2 8565   3.800   2.420   1.730
 2875TIP3    H1 8566   3.813   2.357   1.659
 2875TIP3    H2 8567   3.760   2.496   1.687
 2876TIP3   OH2 8568   3.184   0.845   4.992
 2876TIP3    H1 8569   3.140   0.761   4.985
 2876TIP3    H2 8570   3.277   0.825   4.979
 2877TIP3   OH2 8571   5.851   3.836   1.411
 2877TIP3    H1 8572   5.797   3.914   1.427
 2877TIP3    H2 8573   5.874   3.841   1.319
 2878TIP3   OH2 8574   6.389   2.451   0.321
 2878TIP3    H1 8575   6.364   2.395   0.395
 2878TIP3    H2 8576   6.484   2.441   0.315
 2879TIP3   OH2 8577   4.355   1.421   2.206
 2879TIP3    H1 8578   4.423   1.482   2.180
 2879TIP3    H2 8579   4.357   1.423   2.302
 2880TIP3   OH2 8580   5.824   0.469   6.386
 2880TIP3    H1 8581   5.914   0.470   6.421
 2880TIP3    H2 8582   5.769   0.483   6.463
 2881TIP3   OH2 8583   4.448   1.355   3.201
 2881TIP3    H1 8584   4.398   1.311   3.270
 2881TIP3    H2 8585   4.459   1.289   3.133
 2882TIP3   OH2 8586   3.915   1.411   4.604
 2882TIP3    H1 8587   3.866   1.331   4.620
 2882TIP3    H2 8588   3.927   1.450   4.690
 2883TIP3   OH2 8589   6.093   4.293   4.780
 2883TIP3    H1 8590   6.062   4.204   4.794
 2883TIP3    H2 8591   6.052   4.344   4.850
 2884TIP3   OH2 8592   6.528   5.768   3.727
 2884TIP3    H1 8593   6.442   5.789   3.691
 2884TIP3    H2 8594   6.513   5.693   3.785
 2885TIP3   OH2 8595   7.591   7.408   2.933
 2885TIP3    H1 8596   7.685   7.388   2.938
 2885TIP3    H2 8597   7.583   7.492   2.979
 2886TIP3   OH2 8598   4.915   3.098   5.073
 2886TIP3    H1 8599   4.858   3.102   5.150
 2886TIP3    H2 8600   4.928   3.005   5.058
 2887TIP3   OH2 8601   2.939   4.818   0.685
 2887TIP3    H1 8602   2.987   4.745   0.646
 2887TIP3    H2 8603   2.943   4.802   0.779
 2888TIP3   OH2 8604   6.715   1.439   5.286
 2888TIP3    H1 8605   6.660   1.368   5.252
 2888TIP3    H2 8606   6.777   1.457   5.215
 2889TIP3   OH2 8607   0.651   2.660   0.316
 2889TIP3    H1 8608   0.639   2.578   0.365
 2889TIP3    H2 8609   0.562   2.691   0.300
 2890TIP3   OH2 8610   0.528   5.389   1.760
 2890TIP3    H1 8611   0.620   5.412   1.741
 2890TIP3    H2 8612   0.494   5.465   1.807
 2891TIP3   OH2 8613   6.797   3.841   2.962
 2891TIP3    H1 8614   6.812   3.935   2.952
 2891TIP3    H2 8615   6.713   3.826   2.917
 2892TIP3   OH2 8616   8.000   4.941   3.870
 2892TIP3    H1 8617   7.954   4.923   3.788
 2892TIP3    H2 8618   7.970   5.029   3.895
 2893TIP3   OH2 8619   2.212   5.531   3.793
 2893TIP3    H1 8620   2.249   5.608   3.838
 2893TIP3    H2 8621   2.289   5.482   3.764
 2894TIP3   OH2 8622   3.611   6.582   3.725
 2894TIP3    H1 8623   3.530   6.603   3.679
 2894TIP3    H2 8624   3.582   6.550   3.811
 2895TIP3   OH2 8625   8.227   3.541   2.741
 2895TIP3    H1 8626   8.265   3.463   2.699
 2895TIP3    H2 8627   8.298   3.574   2.797
 2896TIP3   OH2 8628   6.587   7.696   3.977
 2896TIP3    H1 8629   6.492   7.683   3.985
 2896TIP3    H2 8630   6.623   7.671   4.062
 2897TIP3   OH2 8631   4.215   1.089   2.677
 2897TIP3    H1 8632   4.246   1.054   2.760
 2897TIP3    H2 8633   4.203   1.183   2.693
 2898TIP3   OH2 8634   0.518   4.300   2.899
 2898TIP3    H1 8635   0.475   4.260   2.975
 2898TIP3    H2 8636   0.464   4.375   2.877
 2899TIP3   OH2 8637   4.400   5.438   0.429
 2899TIP3    H1 8638   4.387   5.533   0.433
 2899TIP3    H2 8639   4.417   5.412   0.520
 2900TIP3   OH2 8640   2.042   0.275   1.911
 2900TIP3    H1 8641   2.047   0.370   1.922
 2900TIP3    H2 8642   2.116   0.254   1.855
 2901TIP3   OH2 8643   4.008   2.980   6.716
 2901TIP3    H1 8644   3.936   3.044   6.713
 2901TIP3    H2 8645   4.079   3.026   6.759
 2902TIP3   OH2 8646   0.645   5.508   1.253
 2902TIP3    H1 8647   0.596   5.460   1.319
 2902TIP3    H2 8648   0.582   5.521   1.181
 2903TIP3   OH2 8649   1.350   7.329   1.043
 2903TIP3    H1 8650   1.283   7.387   1.079
 2903TIP3    H2 8651   1.348   7.346   0.949
 2904TIP3   OH2 8652   4.163   2.346   4.026
 2904TIP3    H1 8653   4.228   2.416   4.036
 2904TIP3    H2 8654   4.089   2.376   4.080
 2905TIP3   OH2 8655   6.018   0.359   0.091
 2905TIP3    H1 8656   5.985   0.345   0.002
 2905TIP3    H2 8657   6.085   0.427   0.081
 2906TIP3   OH2 8658   6.163   3.161   4.665
 2906TIP3    H1 8659   6.139   3.117   4.583
 2906TIP3    H2 8660   6.168   3.091   4.729
 2907TIP3   OH2 8661   8.115   1.613   0.447
 2907TIP3    H1 8662   8.209   1.624   0.431
 2907TIP3    H2 8663   8.108   1.531   0.496
 2908TIP3   OH2 8664   1.534   3.421   1.083
 2908TIP3    H1 8665   1.497   3.342   1.044
 2908TIP3    H2 8666   1.496   3.424   1.171
 2909TIP3   OH2 8667   1.062   4.268   0.381
 2909TIP3    H1 8668   1.102   4.335   0.436
 2909TIP3    H2 8669   1.071   4.187   0.431
 2910TIP3   OH2 8670   2.764   3.342   3.324
 2910TIP3    H1 8671   2.804   3.384   3.248
 2910TIP3    H2 8672   2.806   3.384   3.400
 2911TIP3   OH2 8673   5.411   4.454   1.146
 2911TIP3    H1 8674   5.401   4.520   1.214
 2911TIP3    H2 8675   5.338   4.468   1.086
 2912TIP3   OH2 8676   2.206   3.716   0.911
 2912TIP3    H1 8677   2.224   3.642   0.970
 2912TIP3    H2 8678   2.124   3.692   0.868
 2913TIP3   OH2 8679   7.296   7.779   1.882
 2913TIP3    H1 8680   7.382   7.756   1.848
 2913TIP3    H2 8681   7.289   7.874   1.868
 2914TIP3   OH2 8682   1.135   0.413   2.199
 2914TIP3    H1 8683   1.144   0.505   2.224
 2914TIP3    H2 8684   1.140   0.365   2.282
 2915TIP3   OH2 8685   6.053   2.196   0.763
 2915TIP3    H1 8686   6.075   2.116   0.716
 2915TIP3    H2 8687   6.035   2.260   0.694
 2916TIP3   OH2 8688   6.845   3.659   1.111
 2916TIP3    H1 8689   6.772   3.637   1.169
 2916TIP3    H2 8690   6.837   3.754   1.097
 2917TIP3   OH2 8691   7.829   4.899   5.012
 2917TIP3    H1 8692   7.864   4.864   5.094
 2917TIP3    H2 8693   7.760   4.960   5.039
 2918TIP3   OH2 8694   3.169   3.056   6.345
 2918TIP3    H1 8695   3.120   3.081   6.423
 2918TIP3    H2 8696   3.217   3.134   6.320
 2919TIP3   OH2 8697   7.517   4.513   1.532
 2919TIP3    H1 8698   7.569   4.439   1.501
 2919TIP3    H2 8699   7.532   4.515   1.627
 2920TIP3   OH2 8700   4.278   6.846   6.757
 2920TIP3    H1 8701   4.286   6.754   6.734
 2920TIP3    H2 8702   4.292   6.848   6.852
 2921TIP3   OH2 8703   5.334   4.697   2.960
 2921TIP3    H1 8704   5.356   4.758   3.030
 2921TIP3    H2 8705   5.260   4.647   2.994
 2922TIP3   OH2 8706   4.026   2.242   5.843
 2922TIP3    H1 8707   4.011   2.200   5.928
 2922TIP3    H2 8708   4.060   2.329   5.865
 2923TIP3   OH2 8709   8.243   2.370   2.165
 2923TIP3    H1 8710   8.314   2.323   2.208
 2923TIP3    H2 8711   8.283   2.450   2.132
 2924TIP3   OH2 8712   3.968   2.432   0.166
 2924TIP3    H1 8713   3.884   2.452   0.123
 2924TIP3    H2 8714   4.019   2.513   0.157
 2925TIP3   OH2 8715   6.831   7.066   4.147
 2925TIP3    H1 8716   6.794   7.095   4.063
 2925TIP3    H2 8717   6.795   6.978   4.160
 2926TIP3   OH2 8718   2.311   2.217   3.196
 2926TIP3    H1 8719   2.250   2.274   3.148
 2926TIP3    H2 8720   2.397   2.239   3.161
 2927TIP3   OH2 8721   4.922   6.676   0.969
 2927TIP3    H1 8722   4.839   6.630   0.981
 2927TIP3    H2 8723   4.942   6.667   0.876
 2928TIP3   OH2 8724   7.783   7.730   1.405
 2928TIP3    H1 8725   7.743   7.654   1.449
 2928TIP3    H2 8726   7.866   7.744   1.450
 2929TIP3   OH2 8727   2.794   3.509   4.875
 2929TIP3    H1 8728   2.802   3.507   4.970
 2929TIP3    H2 8729   2.806   3.601   4.851
 2930TIP3   OH2 8730   7.512   6.540   1.212
 2930TIP3    H1 8731   7.517   6.528   1.306
 2930TIP3    H2 8732   7.589   6.592   1.190
 2931TIP3   OH2 8733   6.537   4.212   0.846
 2931TIP3    H1 8734   6.459   4.207   0.901
 2931TIP3    H2 8735   6.518   4.153   0.772
 2932TIP3   OH2 8736   2.145   1.854   4.175
 2932TIP3    H1 8737   2.157   1.826   4.266
 2932TIP3    H2 8738   2.214   1.810   4.126
 2933TIP3   OH2 8739   1.297   2.968   4.300
 2933TIP3    H1 8740   1.300   3.035   4.368
 2933TIP3    H2 8741   1.379   2.919   4.310
 2934TIP3   OH2 8742   0.912   2.560   5.987
 2934TIP3    H1 8743   1.006   2.541   5.987
 2934TIP3    H2 8744   0.894   2.590   6.076
 2935TIP3   OH2 8745   5.548   3.817   0.946
 2935TIP3    H1 8746   5.585   3.822   1.034
 2935TIP3    H2 8747   5.544   3.908   0.916
 2936TIP3   OH2 8748   2.743   1.215   2.001
 2936TIP3    H1 8749   2.719   1.225   1.909
 2936TIP3    H2 8750   2.682   1.150   2.035
 2937TIP3   OH2 8751   1.360   0.626   6.137
 2937TIP3    H1 8752   1.324   0.647   6.051
 2937TIP3    H2 8753   1.454   0.641   6.127
 2938TIP3   OH2 8754   2.498   5.233   1.697
 2938TIP3    H1 8755   2.450   5.287   1.760
 2938TIP3    H2 8756   2.433   5.170   1.666
 2939TIP3   OH2 8757   3.852   4.707   0.424
 2939TIP3    H1 8758   3.909   4.717   0.348
 2939TIP3    H2 8759   3.765   4.731   0.391
 2940TIP3   OH2 8760   4.716   1.303   2.380
 2940TIP3    H1 8761   4.684   1.220   2.347
 2940TIP3    H2 8762   4.786   1.280   2.441
 2941TIP3   OH2 8763   4.165   0.293   5.307
 2941TIP3    H1 8764   4.172   0.388   5.316
 2941TIP3    H2 8765   4.094   0.269   5.365
 2942TIP3   OH2 8766   4.584   4.649   5.484
 2942TIP3    H1 8767   4.671   4.659   5.523
 2942TIP3    H2 8768   4.525   4.635   5.558
 2943TIP3   OH2 8769   1.601   4.461   1.686
 2943TIP3    H1 8770   1.628   4.552   1.672
 2943TIP3    H2 8771   1.657   4.410   1.628
 2944TIP3   OH2 8772   4.621   4.001   4.487
 2944TIP3    H1 8773   4.683   3.937   4.454
 2944TIP3    H2 8774   4.675   4.072   4.522
 2945TIP3   OH2 8775   0.293   2.928   3.394
 2945TIP3    H1 8776   0.345   2.916   3.473
 2945TIP3    H2 8777   0.286   2.841   3.355
 2946TIP3   OH2 8778   5.127   5.640   2.229
 2946TIP3    H1 8779   5.205   5.669   2.181
 2946TIP3    H2 8780   5.060   5.703   2.204
 2947TIP3   OH2 8781   1.816   1.771   4.190
 2947TIP3    H1 8782   1.829   1.810   4.276
 2947TIP3    H2 8783   1.856   1.834   4.129
 2948TIP3   OH2 8784   2.040   7.549   2.014
 2948TIP3    H1 8785   2.062   7.642   2.003
 2948TIP3    H2 8786   1.974   7.548   2.083
 2949TIP3   OH2 8787   4.327   0.297   2.670
 2949TIP3    H1 8788   4.269   0.348   2.726
 2949TIP3    H2 8789   4.408   0.289   2.719
 2950TIP3   OH2 8790   0.805   5.173   1.942
 2950TIP3    H1 8791   0.807   5.102   1.878
 2950TIP3    H2 8792   0.882   5.159   1.996
 2951TIP3   OH2 8793   6.256   5.731   1.983
 2951TIP3    H1 8794   6.289   5.685   1.906
 2951TIP3    H2 8795   6.333   5.769   2.023
 2952TIP3   OH2 8796   6.496   5.689   0.796
 2952TIP3    H1 8797   6.449   5.627   0.853
 2952TIP3    H2 8798   6.562   5.728   0.853
 2953TIP3   OH2 8799   7.233   6.556   2.572
 2953TIP3    H1 8800   7.231   6.475   2.622
 2953TIP3    H2 8801   7.279   6.618   2.629
 2954TIP3   OH2 8802   6.734   0.936   4.544
 2954TIP3    H1 8803   6.794   0.885   4.599
 2954TIP3    H2 8804   6.773   1.023   4.539
 2955TIP3   OH2 8805   3.315   4.636   0.917
 2955TIP3    H1 8806   3.245   4.654   0.979
 2955TIP3    H2 8807   3.337   4.722   0.880
 2956TIP3   OH2 8808   4.216   1.605   0.595
 2956TIP3    H1 8809   4.291   1.546   0.580
 2956TIP3    H2 8810   4.152   1.550   0.640
 2957TIP3   OH2 8811   5.314   6.493   2.047
 2957TIP3    H1 8812   5.281   6.550   2.115
 2957TIP3    H2 8813   5.398   6.461   2.081
 2958TIP3   OH2 8814   1.802   6.530   2.973
 2958TIP3    H1 8815   1.790   6.484   2.890
 2958TIP3    H2 8816   1.725   6.585   2.982
 2959TIP3   OH2 8817   1.958   7.769   1.115
 2959TIP3    H1 8818   1.955   7.865   1.112
 2959TIP3    H2 8819   1.913   7.746   1.197
 2960TIP3   OH2 8820   2.195   0.258   3.441
 2960TIP3    H1 8821   2.207   0.218   3.527
 2960TIP3    H2 8822   2.272   0.314   3.430
 2961TIP3   OH2 8823   0.617   3.996   3.355
 2961TIP3    H1 8824   0.624   4.071   3.296
 2961TIP3    H2 8825   0.604   3.921   3.296
 2962TIP3   OH2 8826   5.869   2.576   6.686
 2962TIP3    H1 8827   5.894   2.537   6.769
 2962TIP3    H2 8828   5.834   2.662   6.708
 2963TIP3   OH2 8829   7.218   5.297   3.290
 2963TIP3    H1 8830   7.260   5.227   3.339
 2963TIP3    H2 8831   7.262   5.297   3.205
 2964TIP3   OH2 8832   4.146   4.569   6.129
 2964TIP3    H1 8833   4.135   4.502   6.061
 2964TIP3    H2 8834   4.239   4.564   6.151
 2965TIP3   OH2 8835   7.530   3.030   4.657
 2965TIP3    H1 8836   7.459   3.034   4.594
 2965TIP3    H2 8837   7.600   3.082   4.619
 2966TIP3   OH2 8838   5.552   6.673   3.770
 2966TIP3    H1 8839   5.627   6.639   3.819
 2966TIP3    H2 8840   5.526   6.601   3.713
 2967TIP3   OH2 8841   8.162   7.628   1.008
 2967TIP3    H1 8842   8.208   7.709   0.990
 2967TIP3    H2 8843   8.069   7.651   1.005
 2968TIP3   OH2 8844   1.112   3.482   3.030
 2968TIP3    H1 8845   1.157   3.549   2.979
 2968TIP3    H2 8846   1.179   3.445   3.087
 2969TIP3   OH2 8847   0.874   6.789   3.956
 2969TIP3    H1 8848   0.833   6.757   3.876
 2969TIP3    H2 8849   0.947   6.843   3.925
 2970TIP3   OH2 8850   0.614   5.217   2.582
 2970TIP3    H1 8851   0.518   5.213   2.580
 2970TIP3    H2 8852   0.637   5.250   2.495
 2971TIP3   OH2 8853   0.468   1.516   6.360
 2971TIP3    H1 8854   0.509   1.498   6.275
 2971TIP3    H2 8855   0.454   1.611   6.360
 2972TIP3   OH2 8856   0.890   1.436   2.183
 2972TIP3    H1 8857   0.905   1.488   2.104
 2972TIP3    H2 8858   0.948   1.475   2.248
 2973TIP3   OH2 8859   7.824   4.831   1.944
 2973TIP3    H1 8860   7.746   4.858   1.895
 2973TIP3    H2 8861   7.869   4.770   1.886
 2974TIP3   OH2 8862   7.794   4.273   1.053
 2974TIP3    H1 8863   7.763   4.292   1.142
 2974TIP3    H2 8864   7.815   4.359   1.017
 2975TIP3   OH2 8865   7.489   5.098   1.901
 2975TIP3    H1 8866   7.415   5.157   1.884
 2975TIP3    H2 8867   7.468   5.058   1.986
 2976TIP3   OH2 8868   4.415   2.659   2.513
 2976TIP3    H1 8869   4.496   2.676   2.465
 2976TIP3    H2 8870   4.442   2.607   2.588
 2977TIP3   OH2 8871   7.860   0.473   4.370
 2977TIP3    H1 8872   7.811   0.531   4.428
 2977TIP3    H2 8873   7.795   0.410   4.339
 2978TIP3   OH2 8874   1.445   6.169   5.768
 2978TIP3    H1 8875   1.381   6.159   5.698
 2978TIP3    H2 8876   1.400   6.137   5.847
 2979TIP3   OH2 8877   2.118   6.009   5.539
 2979TIP3    H1 8878   2.074   5.934   5.580
 2979TIP3    H2 8879   2.141   6.066   5.612
 2980TIP3   OH2 8880   3.137   7.178   1.604
 2980TIP3    H1 8881   3.203   7.121   1.643
 2980TIP3    H2 8882   3.133   7.151   1.512
 2981TIP3   OH2 8883   1.644   4.379   4.063
 2981TIP3    H1 8884   1.559   4.367   4.020
 2981TIP3    H2 8885   1.626   4.436   4.137
 2982TIP3   OH2 8886   0.994   1.843   5.214
 2982TIP3    H1 8887   0.962   1.925   5.250
 2982TIP3    H2 8888   1.055   1.810   5.279
 2983TIP3   OH2 8889   0.820   3.763   1.214
 2983TIP3    H1 8890   0.767   3.685   1.225
 2983TIP3    H2 8891   0.793   3.800   1.130
 2984TIP3   OH2 8892   4.939   7.122  -0.019
 2984TIP3    H1 8893   4.915   7.193  -0.078
 2984TIP3    H2 8894   4.855   7.091   0.016
 2985TIP3   OH2 8895   4.276   6.104   5.620
 2985TIP3    H1 8896   4.276   6.014   5.587
 2985TIP3    H2 8897   4.221   6.152   5.558
 2986TIP3   OH2 8898   6.010   2.034   5.697
 2986TIP3    H1 8899   6.106   2.040   5.702
 2986TIP3    H2 8900   5.987   2.083   5.619
 2987TIP3   OH2 8901   7.460   0.151   2.696
 2987TIP3    H1 8902   7.461   0.157   2.791
 2987TIP3    H2 8903   7.550   0.170   2.669
 2988TIP3   OH2 8904   2.593   4.340   1.620
 2988TIP3    H1 8905   2.534   4.352   1.546
 2988TIP3    H2 8906   2.544   4.374   1.695
 2989TIP3   OH2 8907   2.719   7.352   0.747
 2989TIP3    H1 8908   2.786   7.288   0.721
 2989TIP3    H2 8909   2.685   7.320   0.830
 2990TIP3   OH2 8910   6.684   1.718   1.041
 2990TIP3    H1 8911   6.752   1.777   1.008
 2990TIP3    H2 8912   6.643   1.681   0.962
 2991TIP3   OH2 8913   6.325   6.197   5.053
 2991TIP3    H1 8914   6.255   6.262   5.043
 2991TIP3    H2 8915   6.406   6.247   5.047
 2992TIP3   OH2 8916   1.336   4.322   4.891
 2992TIP3    H1 8917   1.401   4.267   4.935
 2992TIP3    H2 8918   1.334   4.403   4.943
 2993TIP3   OH2 8919   7.397   5.907   4.640
 2993TIP3    H1 8920   7.475   5.921   4.586
 2993TIP3    H2 8921   7.432   5.880   4.725
 2994TIP3   OH2 8922   2.497   2.933   5.175
 2994TIP3    H1 8923   2.410   2.961   5.147
 2994TIP3    H2 8924   2.493   2.934   5.271
 2995TIP3   OH2 8925   3.704   6.205   6.528
 2995TIP3    H1 8926   3.665   6.162   6.451
 2995TIP3    H2 8927   3.630   6.239   6.577
 2996TIP3   OH2 8928   5.510   5.808   6.230
 2996TIP3    H1 8929   5.571   5.860   6.283
 2996TIP3    H2 8930   5.553   5.722   6.223
 2997TIP3   OH2 8931   6.174   2.156   4.952
 2997TIP3    H1 8932   6.168   2.207   4.871
 2997TIP3    H2 8933   6.267   2.139   4.963
 2998TIP3   OH2 8934   7.264   1.870   1.986
 2998TIP3    H1 8935   7.294   1.801   2.046
 2998TIP3    H2 8936   7.288   1.952   2.030
 2999TIP3   OH2 8937   4.776   3.628   1.616
 2999TIP3    H1 8938   4.707   3.616   1.682
 2999TIP3    H2 8939   4.836   3.555   1.630
 3000TIP3   OH2 8940   4.960   6.403   4.424
 3000TIP3    H1 8941   4.931   6.332   4.481
 3000TIP3    H2 8942   5.033   6.443   4.470
 3001TIP3   OH2 8943   7.972   7.539   6.212
 3001TIP3    H1 8944   7.902   7.545   6.146
 3001TIP3    H2 8945   7.978   7.446   6.232
 3002TIP3   OH2 8946   6.947   5.800   5.581
 3002TIP3    H1 8947   6.947   5.818   5.675
 3002TIP3    H2 8948   6.985   5.712   5.573
 3003TIP3   OH2 8949   0.594   3.004   2.371
 3003TIP3    H1 8950   0.565   3.090   2.401
 3003TIP3    H2 8951   0.567   2.943   2.440
 3004TIP3   OH2 8952   4.923   2.902   4.245
 3004TIP3    H1 8953   5.015   2.884   4.268
 3004TIP3    H2 8954   4.875   2.887   4.326
 3005TIP3   OH2 8955   3.305   3.015   6.034
 3005TIP3    H1 8956   3.249   2.946   5.997
 3005TIP3    H2 8957   3.317   3.077   5.962
 3006TIP3   OH2 8958   0.940   3.766   6.625
 3006TIP3    H1 8959   0.950   3.744   6.718
 3006TIP3    H2 8960   0.845   3.762   6.610
 3007TIP3   OH2 8961   6.641   7.671   3.679
 3007TIP3    H1 8962   6.697   7.731   3.728
 3007TIP3    H2 8963   6.637   7.592   3.732
 3008TIP3   OH2 8964   6.430   0.225   5.092
 3008TIP3    H1 8965   6.368   0.184   5.032
 3008TIP3    H2 8966   6.503   0.251   5.036
 3009TIP3   OH2 8967   0.560   5.963   5.110
 3009TIP3    H1 8968   0.575   6.047   5.154
 3009TIP3    H2 8969   0.468   5.943   5.130
 3010TIP3   OH2 8970   7.696   2.274   6.709
 3010TIP3    H1 8971   7.630   2.303   6.647
 3010TIP3    H2 8972   7.659   2.293   6.795
 3011TIP3   OH2 8973   7.184   2.679   0.495
 3011TIP3    H1 8974   7.254   2.665   0.431
 3011TIP3    H2 8975   7.128   2.745   0.455
 3012TIP3   OH2 8976   1.974   5.366   5.445
 3012TIP3    H1 8977   2.052   5.393   5.493
 3012TIP3    H2 8978   1.941   5.290   5.494
 3013TIP3   OH2 8979   5.916   3.624   5.290
 3013TIP3    H1 8980   5.953   3.652   5.374
 3013TIP3    H2 8981   5.984   3.647   5.226
 3014TIP3   OH2 8982   4.517   3.215   1.162
 3014TIP3    H1 8983   4.437   3.238   1.209
 3014TIP3    H2 8984   4.530   3.287   1.099
 3015TIP3   OH2 8985   2.042   2.295   6.820
 3015TIP3    H1 8986   1.949   2.313   6.810
 3015TIP3    H2 8987   2.068   2.345   6.897
 3016TIP3   OH2 8988   6.216   5.628   4.278
 3016TIP3    H1 8989   6.268   5.706   4.257
 3016TIP3    H2 8990   6.168   5.651   4.357
 3017TIP3   OH2 8991   0.719   7.840   0.050
 3017TIP3    H1 8992   0.680   7.837  -0.037
 3017TIP3    H2 8993   0.645   7.829   0.110
 3018TIP3   OH2 8994   2.092   5.089   4.316
 3018TIP3    H1 8995   2.000   5.101   4.293
 3018TIP3    H2 8996   2.101   4.995   4.333
 3019TIP3   OH2 8997   7.404   7.529   3.857
 3019TIP3    H1 8998   7.465   7.475   3.908
 3019TIP3    H2 8999   7.346   7.568   3.923
 3020TIP3   OH2 9000   5.297   3.241   2.273
 3020TIP3    H1 9001   5.217   3.193   2.295
 3020TIP3    H2 9002   5.327   3.202   2.191
 3021TIP3   OH2 9003   6.340   6.959   5.758
 3021TIP3    H1 9004   6.387   7.035   5.724
 3021TIP3    H2 9005   6.341   6.971   5.853
 3022TIP3   OH2 9006   6.323   5.340   3.030
 3022TIP3    H1 9007   6.352   5.290   3.106
 3022TIP3    H2 9008   6.238   5.375   3.056
 3023TIP3   OH2 9009   3.058   0.966   5.630
 3023TIP3    H1 9010   3.085   1.057   5.615
 3023TIP3    H2 9011   2.993   0.949   5.562
 3024TIP3   OH2 9012   2.324   0.253   2.464
 3024TIP3    H1 9013   2.232   0.245   2.488
 3024TIP3    H2 9014   2.369   0.278   2.545
 3025TIP3   OH2 9015   0.465   5.662   1.849
 3025TIP3    H1 9016   0.378   5.683   1.883
 3025TIP3    H2 9017   0.520   5.736   1.875
 3026TIP3   OH2 9018   5.974   4.485   1.785
 3026TIP3    H1 9019   5.956   4.437   1.866
 3026TIP3    H2 9020   6.028   4.425   1.734
 3027TIP3   OH2 9021   5.733   2.800   6.745
 3027TIP3    H1 9022   5.766   2.890   6.743
 3027TIP3    H2 9023   5.638   2.809   6.731
 3028TIP3   OH2 9024   7.417   0.294   5.611
 3028TIP3    H1 9025   7.469   0.325   5.686
 3028TIP3    H2 9026   7.359   0.368   5.590
 3029TIP3   OH2 9027   5.306   2.667   3.817
 3029TIP3    H1 9028   5.235   2.605   3.836
 3029TIP3    H2 9029   5.273   2.718   3.743
 3030TIP3   OH2 9030   2.495   5.609   6.195
 3030TIP3    H1 9031   2.428   5.623   6.262
 3030TIP3    H2 9032   2.490   5.516   6.175
 3031TIP3   OH2 9033   4.689   0.075   2.688
 3031TIP3    H1 9034   4.604   0.111   2.713
 3031TIP3    H2 9035   4.740   0.076   2.769
 3032TIP3   OH2 9036   1.945   4.951   2.603
 3032TIP3    H1 9037   1.914   4.939   2.693
 3032TIP3    H2 9038   1.871   4.927   2.548
 3033TIP3   OH2 9039   7.056   3.181   2.372
 3033TIP3    H1 9040   7.136   3.219   2.336
 3033TIP3    H2 9041   7.012   3.140   2.298
 3034TIP3   OH2 9042   1.544   5.030   6.168
 3034TIP3    H1 9043   1.487   4.971   6.118
 3034TIP3    H2 9044   1.517   5.017   6.259
 3035TIP3   OH2 9045   5.242   6.323   3.647
 3035TIP3    H1 9046   5.312   6.388   3.642
 3035TIP3    H2 9047   5.162   6.375   3.653
 3036TIP3   OH2 9048   2.970   1.293   0.751
 3036TIP3    H1 9049   2.921   1.294   0.833
 3036TIP3    H2 9050   2.957   1.380   0.714
 3037TIP3   OH2 9051   0.719   5.607   0.921
 3037TIP3    H1 9052   0.688   5.694   0.946
 3037TIP3    H2 9053   0.662   5.580   0.849
 3038TIP3   OH2 9054   0.311   0.141   1.834
 3038TIP3    H1 9055   0.358   0.119   1.753
 3038TIP3    H2 9056   0.255   0.215   1.811
 3039TIP3   OH2 9057   4.943   4.815   4.357
 3039TIP3    H1 9058   4.997   4.887   4.391
 3039TIP3    H2 9059   4.926   4.760   4.432
 3040TIP3   OH2 9060   6.921   1.602   6.125
 3040TIP3    H1 9061   6.919   1.611   6.030
 3040TIP3    H2 9062   6.867   1.524   6.143
 3041TIP3   OH2 9063   6.021   7.715   0.059
 3041TIP3    H1 9064   6.110   7.692   0.031
 3041TIP3    H2 9065   6.018   7.691   0.151
 3042TIP3   OH2 9066   8.021   1.637   5.569
 3042TIP3    H1 9067   7.935   1.603   5.545
 3042TIP3    H2 9068   8.083   1.571   5.538
 3043TIP3   OH2 9069   0.680   6.574   2.258
 3043TIP3    H1 9070   0.612   6.575   2.325
 3043TIP3    H2 9071   0.664   6.494   2.208
 3044TIP3   OH2 9072   5.951   4.346   2.028
 3044TIP3    H1 9073   5.873   4.372   2.078
 3044TIP3    H2 9074   6.015   4.322   2.095
 3045TIP3   OH2 9075   5.774   0.075   1.467
 3045TIP3    H1 9076   5.762   0.158   1.421
 3045TIP3    H2 9077   5.866   0.074   1.493
 3046TIP3   OH2 9078   1.864   4.591   2.256
 3046TIP3    H1 9079   1.885   4.671   2.208
 3046TIP3    H2 9080   1.887   4.610   2.347
 3047TIP3   OH2 9081   5.654   6.380   0.308
 3047TIP3    H1 9082   5.642   6.351   0.218
 3047TIP3    H2 9083   5.574   6.428   0.330
 3048TIP3   OH2 9084   5.791   7.028   1.610
 3048TIP3    H1 9085   5.820   6.969   1.541
 3048TIP3    H2 9086   5.711   7.068   1.576
 3049TIP3   OH2 9087   5.790   1.447   2.269
 3049TIP3    H1 9088   5.776   1.358   2.236
 3049TIP3    H2 9089   5.885   1.454   2.279
 3050TIP3   OH2 9090   2.575   1.066   0.990
 3050TIP3    H1 9091   2.547   1.026   0.908
 3050TIP3    H2 9092   2.646   1.125   0.965
 3051TIP3   OH2 9093   3.589   0.664   3.329
 3051TIP3    H1 9094   3.652   0.613   3.380
 3051TIP3    H2 9095   3.516   0.678   3.389
 3052TIP3   OH2 9096   1.508   2.957   3.450
 3052TIP3    H1 9097   1.562   2.908   3.388
 3052TIP3    H2 9098   1.418   2.934   3.427
 3053TIP3   OH2 9099   4.624   6.692   0.138
 3053TIP3    H1 9100   4.636   6.722   0.048
 3053TIP3    H2 9101   4.686   6.745   0.189
 3054TIP3   OH2 9102   2.943   0.513   4.412
 3054TIP3    H1 9103   2.871   0.555   4.366
 3054TIP3    H2 9104   3.005   0.584   4.430
 3055TIP3   OH2 9105   8.164   6.863   5.838
 3055TIP3    H1 9106   8.183   6.910   5.756
 3055TIP3    H2 9107   8.091   6.912   5.876
 3056TIP3   OH2 9108   3.615   6.120   5.056
 3056TIP3    H1 9109   3.706   6.096   5.071
 3056TIP3    H2 9110   3.584   6.153   5.141
 3057TIP3   OH2 9111   3.315   2.356   0.599
 3057TIP3    H1 9112   3.260   2.283   0.570
 3057TIP3    H2 9113   3.294   2.427   0.539
 3058TIP3   OH2 9114   5.719   4.616   1.733
 3058TIP3    H1 9115   5.792   4.559   1.755
 3058TIP3    H2 9116   5.720   4.684   1.800
 3059TIP3   OH2 9117   3.478   5.782   4.840
 3059TIP3    H1 9118   3.403   5.726   4.821
 3059TIP3    H2 9119   3.508   5.753   4.927
 3060TIP3   OH2 9120   3.073   5.075   6.575
 3060TIP3    H1 9121   2.996   5.019   6.574
 3060TIP3    H2 9122   3.146   5.017   6.554
 3061TIP3   OH2 9123   5.637   2.200   5.518
 3061TIP3    H1 9124   5.695   2.277   5.515
 3061TIP3    H2 9125   5.693   2.129   5.550
 3062TIP3   OH2 9126   2.048   4.496   3.411
 3062TIP3    H1 9127   2.044   4.468   3.502
 3062TIP3    H2 9128   2.064   4.415   3.362
 3063TIP3   OH2 9129   5.906   0.664   3.982
 3063TIP3    H1 9130   5.908   0.715   4.063
 3063TIP3    H2 9131   5.853   0.716   3.922
 3064TIP3   OH2 9132   5.315   0.863   4.412
 3064TIP3    H1 9133   5.329   0.883   4.505
 3064TIP3    H2 9134   5.223   0.884   4.397
 3065TIP3   OH2 9135   7.736   0.674   1.605
 3065TIP3    H1 9136   7.752   0.644   1.695
 3065TIP3    H2 9137   7.705   0.597   1.559
 3066TIP3   OH2 9138   4.875   2.162   5.067
 3066TIP3    H1 9139   4.838   2.110   5.138
 3066TIP3    H2 9140   4.813   2.233   5.054
 3067TIP3   OH2 9141   8.280   1.150   2.345
 3067TIP3    H1 9142   8.282   1.147   2.249
 3067TIP3    H2 9143   8.369   1.175   2.370
 3068TIP3   OH2 9144   6.451   0.531   1.683
 3068TIP3    H1 9145   6.519   0.475   1.721
 3068TIP3    H2 9146   6.451   0.508   1.590
 3069TIP3   OH2 9147   1.008   2.814   5.457
 3069TIP3    H1 9148   0.999   2.760   5.536
 3069TIP3    H2 9149   0.918   2.832   5.430
 3070TIP3   OH2 9150   7.817   2.446   5.642
 3070TIP3    H1 9151   7.761   2.486   5.708
 3070TIP3    H2 9152   7.792   2.353   5.642
 3071TIP3   OH2 9153   2.736   4.124   1.112
 3071TIP3    H1 9154   2.679   4.170   1.050
 3071TIP3    H2 9155   2.711   4.032   1.104
 3072TIP3   OH2 9156   7.706   1.567   6.615
 3072TIP3    H1 9157   7.708   1.662   6.606
 3072TIP3    H2 9158   7.785   1.537   6.569
 3073TIP3   OH2 9159   6.683   1.502   6.429
 3073TIP3    H1 9160   6.760   1.557   6.415
 3073TIP3    H2 9161   6.711   1.437   6.493
 3074TIP3   OH2 9162   4.490   4.844   0.134
 3074TIP3    H1 9163   4.429   4.877   0.201
 3074TIP3    H2 9164   4.446   4.767   0.098
 3075TIP3   OH2 9165   6.994   6.632   1.305
 3075TIP3    H1 9166   7.071   6.595   1.261
 3075TIP3    H2 9167   7.030   6.683   1.377
 3076TIP3   OH2 9168   2.675   4.579   5.812
 3076TIP3    H1 9169   2.710   4.493   5.788
 3076TIP3    H2 9170   2.648   4.618   5.729
 3077TIP3   OH2 9171   7.038   4.679   1.351
 3077TIP3    H1 9172   6.978   4.724   1.411
 3077TIP3    H2 9173   7.121   4.677   1.398
 3078TIP3   OH2 9174   7.013   4.586   4.648
 3078TIP3    H1 9175   7.015   4.671   4.694
 3078TIP3    H2 9176   6.930   4.585   4.602
 3079TIP3   OH2 9177   2.702   0.254   1.006
 3079TIP3    H1 9178   2.745   0.169   1.011
 3079TIP3    H2 9179   2.699   0.285   1.096
 3080TIP3   OH2 9180   4.183   3.875   1.329
 3080TIP3    H1 9181   4.188   3.920   1.244
 3080TIP3    H2 9182   4.089   3.870   1.347
 3081TIP3   OH2 9183   0.488   6.688   1.678
 3081TIP3    H1 9184   0.495   6.593   1.669
 3081TIP3    H2 9185   0.575   6.716   1.707
 3082TIP3   OH2 9186   2.327   3.629   4.744
 3082TIP3    H1 9187   2.361   3.597   4.827
 3082TIP3    H2 9188   2.254   3.570   4.724
 3083TIP3   OH2 9189   5.228   7.857   0.607
 3083TIP3    H1 9190   5.293   7.902   0.554
 3083TIP3    H2 9191   5.166   7.925   0.633
 3084TIP3   OH2 9192   7.935   7.530   0.246
 3084TIP3    H1 9193   8.000   7.484   0.300
 3084TIP3    H2 9194   7.851   7.504   0.283
 3085TIP3   OH2 9195   4.853   5.157   3.961
 3085TIP3    H1 9196   4.947   5.169   3.970
 3085TIP3    H2 9197   4.830   5.095   4.030
 3086TIP3   OH2 9198   2.209   2.679   2.684
 3086TIP3    H1 9199   2.128   2.690   2.734
 3086TIP3    H2 9200   2.218   2.585   2.671
 3087TIP3   OH2 9201   6.627   1.665   1.290
 3087TIP3    H1 9202   6.628   1.672   1.195
 3087TIP3    H2 9203   6.540   1.632   1.312
 3088TIP3   OH2 9204   3.869   7.796   6.836
 3088TIP3    H1 9205   3.891   7.780   6.744
 3088TIP3    H2 9206   3.829   7.714   6.865
 3089TIP3   OH2 9207   5.124   4.936   1.384
 3089TIP3    H1 9208   5.201   4.882   1.368
 3089TIP3    H2 9209   5.056   4.874   1.409
 3090TIP3   OH2 9210   3.058   1.081   6.661
 3090TIP3    H1 9211   3.040   0.987   6.659
 3090TIP3    H2 9212   3.137   1.091   6.607
 3091TIP3   OH2 9213   3.053   7.352   6.332
 3091TIP3    H1 9214   3.106   7.423   6.368
 3091TIP3    H2 9215   3.077   7.349   6.239
 3092TIP3   OH2 9216   8.062   6.481   0.287
 3092TIP3    H1 9217   8.025   6.396   0.309
 3092TIP3    H2 9218   8.051   6.533   0.367
 3093TIP3   OH2 9219   8.385   2.859   3.975
 3093TIP3    H1 9220   8.352   2.790   3.917
 3093TIP3    H2 9221   8.476   2.871   3.949
 3094TIP3   OH2 9222   3.403   3.516   5.242
 3094TIP3    H1 9223   3.498   3.510   5.248
 3094TIP3    H2 9224   3.375   3.429   5.212
 3095TIP3   OH2 9225   8.145   6.185   3.159
 3095TIP3    H1 9226   8.086   6.238   3.104
 3095TIP3    H2 9227   8.209   6.248   3.191
 3096TIP3   OH2 9228   1.141   3.343   4.798
 3096TIP3    H1 9229   1.194   3.419   4.773
 3096TIP3    H2 9230   1.069   3.341   4.735
 3097TIP3   OH2 9231   7.531   0.043   5.687
 3097TIP3    H1 9232   7.521   0.137   5.668
 3097TIP3    H2 9233   7.539   0.002   5.601
 3098TIP3   OH2 9234   4.401   3.267   6.766
 3098TIP3    H1 9235   4.417   3.274   6.672
 3098TIP3    H2 9236   4.486   3.243   6.803
 3099TIP3   OH2 9237   4.006   3.500   6.615
 3099TIP3    H1 9238   4.056   3.580   6.600
 3099TIP3    H2 9239   4.064   3.429   6.587
 3100TIP3   OH2 9240   2.700   2.449   5.731
 3100TIP3    H1 9241   2.613   2.473   5.700
 3100TIP3    H2 9242   2.758   2.515   5.692
 3101TIP3   OH2 9243   5.037   2.091   1.530
 3101TIP3    H1 9244   5.050   2.095   1.436
 3101TIP3    H2 9245   5.036   2.183   1.558
 3102TIP3   OH2 9246   0.980   4.769   5.314
 3102TIP3    H1 9247   0.961   4.682   5.350
 3102TIP3    H2 9248   1.069   4.789   5.343
 3103TIP3   OH2 9249   7.721   4.425   6.868
 3103TIP3    H1 9250   7.715   4.334   6.895
 3103TIP3    H2 9251   7.638   4.442   6.822
 3104TIP3   OH2 9252   3.935   1.720   4.844
 3104TIP3    H1 9253   3.993   1.742   4.771
 3104TIP3    H2 9254   3.900   1.804   4.873
 3105TIP3   OH2 9255   5.452   0.013   6.730
 3105TIP3    H1 9256   5.502   0.090   6.703
 3105TIP3    H2 9257   5.447  -0.041   6.651
 3106TIP3   OH2 9258   1.546   1.388   5.171
 3106TIP3    H1 9259   1.493   1.468   5.176
 3106TIP3    H2 9260   1.513   1.342   5.094
 3107TIP3   OH2 9261   6.844   5.414   4.951
 3107TIP3    H1 9262   6.865   5.370   4.869
 3107TIP3    H2 9263   6.830   5.506   4.926
 3108TIP3   OH2 9264   3.696   6.456   0.549
 3108TIP3    H1 9265   3.694   6.550   0.568
 3108TIP3    H2 9266   3.711   6.451   0.455
 3109TIP3   OH2 9267   5.093   2.461   2.815
 3109TIP3    H1 9268   5.062   2.375   2.841
 3109TIP3    H2 9269   5.024   2.521   2.843
 3110TIP3   OH2 9270   1.333   1.099   4.235
 3110TIP3    H1 9271   1.262   1.157   4.263
 3110TIP3    H2 9272   1.408   1.123   4.289
 3111TIP3   OH2 9273   1.778   0.777   1.869
 3111TIP3    H1 9274   1.863   0.746   1.838
 3111TIP3    H2 9275   1.783   0.769   1.964
 3112TIP3   OH2 9276   4.861   0.376   0.929
 3112TIP3    H1 9277   4.898   0.450   0.880
 3112TIP3    H2 9278   4.895   0.388   1.018
 3113TIP3   OH2 9279   0.491   1.241   5.133
 3113TIP3    H1 9280   0.475   1.302   5.205
 3113TIP3    H2 9281   0.403   1.216   5.103
 3114TIP3   OH2 9282   1.253   5.811   0.978
 3114TIP3    H1 9283   1.212   5.754   1.043
 3114TIP3    H2 9284   1.320   5.860   1.027
 3115TIP3   OH2 9285   4.265   6.343   2.964
 3115TIP3    H1 9286   4.280   6.437   2.954
 3115TIP3    H2 9287   4.252   6.311   2.874
 3116TIP3   OH2 9288   5.369   4.370   6.801
 3116TIP3    H1 9289   5.325   4.293   6.837
 3116TIP3    H2 9290   5.434   4.394   6.868
 3117TIP3   OH2 9291   4.641   2.674   2.339
 3117TIP3    H1 9292   4.727   2.691   2.379
 3117TIP3    H2 9293   4.660   2.612   2.268
 3118TIP3   OH2 9294   8.077   2.069   0.694
 3118TIP3    H1 9295   8.144   2.073   0.625
 3118TIP3    H2 9296   8.121   2.102   0.772
 3119TIP3   OH2 9297   5.267   2.812   3.595
 3119TIP3    H1 9298   5.225   2.802   3.509
 3119TIP3    H2 9299   5.356   2.841   3.576
 3120TIP3   OH2 9300   0.228   0.426   3.658
 3120TIP3    H1 9301   0.240   0.492   3.590
 3120TIP3    H2 9302   0.301   0.365   3.645
 3121TIP3   OH2 9303   3.666   5.576   3.445
 3121TIP3    H1 9304   3.630   5.664   3.456
 3121TIP3    H2 9305   3.658   5.536   3.531
 3122TIP3   OH2 9306   8.173   6.532   6.604
 3122TIP3    H1 9307   8.138   6.460   6.655
 3122TIP3    H2 9308   8.139   6.518   6.516
 3123TIP3   OH2 9309   0.666   7.658   3.138
 3123TIP3    H1 9310   0.735   7.690   3.197
 3123TIP3    H2 9311   0.586   7.661   3.191
 3124TIP3   OH2 9312   0.812   7.200   1.003
 3124TIP3    H1 9313   0.737   7.238   0.957
 3124TIP3    H2 9314   0.779   7.179   1.091
 3125TIP3   OH2 9315   0.110   1.073   6.271
 3125TIP3    H1 9316   0.182   1.089   6.332
 3125TIP3    H2 9317   0.134   1.122   6.192
 3126TIP3   OH2 9318   2.282   0.721   1.442
 3126TIP3    H1 9319   2.225   0.756   1.373
 3126TIP3    H2 9320   2.336   0.795   1.469
 3127TIP3   OH2 9321   8.175   5.986   6.827
 3127TIP3    H1 9322   8.171   6.054   6.759
 3127TIP3    H2 9323   8.088   5.988   6.868
 3128TIP3   OH2 9324   0.052   1.742   1.315
 3128TIP3    H1 9325   0.079   1.830   1.291
 3128TIP3    H2 9326   0.069   1.689   1.237
 3129TIP3   OH2 9327   2.452   7.377   5.434
 3129TIP3    H1 9328   2.414   7.450   5.386
 3129TIP3    H2 9329   2.518   7.341   5.374
 3130TIP3   OH2 9330   1.221   6.353   3.447
 3130TIP3    H1 9331   1.180   6.426   3.402
 3130TIP3    H2 9332   1.315   6.373   3.448
 3131TIP3   OH2 9333   0.536   6.673   5.501
 3131TIP3    H1 9334   0.500   6.610   5.438
 3131TIP3    H2 9335   0.629   6.653   5.504
 3132TIP3   OH2 9336   8.098   1.906   6.375
 3132TIP3    H1 9337   8.107   1.933   6.283
 3132TIP3    H2 9338   8.172   1.847   6.390
 3133TIP3   OH2 9339   6.727   1.570   0.054
 3133TIP3    H1 9340   6.652   1.513   0.038
 3133TIP3    H2 9341   6.788   1.516   0.103
 3134TIP3   OH2 9342   0.632   1.279   3.806
 3134TIP3    H1 9343   0.623   1.329   3.887
 3134TIP3    H2 9344   0.727   1.272   3.793
 3135TIP3   OH2 9345   1.035   6.928   6.481
 3135TIP3    H1 9346   1.066   6.838   6.477
 3135TIP3    H2 9347   1.101   6.978   6.431
 3136TIP3   OH2 9348   4.348   2.948   1.461
 3136TIP3    H1 9349   4.442   2.935   1.473
 3136TIP3    H2 9350   4.336   2.951   1.367
 3137TIP3   OH2 9351   5.141   6.933   2.846
 3137TIP3    H1 9352   5.195   6.861   2.813
 3137TIP3    H2 9353   5.054   6.915   2.811
 3138TIP3   OH2 9354   5.307   4.111   1.518
 3138TIP3    H1 9355   5.310   4.073   1.430
 3138TIP3    H2 9356   5.244   4.182   1.512
 3139TIP3   OH2 9357   0.651   3.619   1.642
 3139TIP3    H1 9358   0.638   3.657   1.729
 3139TIP3    H2 9359   0.576   3.649   1.591
 3140TIP3   OH2 9360   1.851   2.124   6.142
 3140TIP3    H1 9361   1.856   2.218   6.153
 3140TIP3    H2 9362   1.788   2.111   6.071
 3141TIP3   OH2 9363   4.522   7.374   0.226
 3141TIP3    H1 9364   4.503   7.372   0.132
 3141TIP3    H2 9365   4.557   7.462   0.241
 3142TIP3   OH2 9366   0.955   7.897   2.585
 3142TIP3    H1 9367   0.860   7.903   2.577
 3142TIP3    H2 9368   0.970   7.876   2.678
 3143TIP3   OH2 9369   3.127   4.159   4.509
 3143TIP3    H1 9370   3.088   4.071   4.510
 3143TIP3    H2 9371   3.150   4.175   4.601
 3144TIP3   OH2 9372   2.292   6.177   5.680
 3144TIP3    H1 9373   2.253   6.244   5.736
 3144TIP3    H2 9374   2.299   6.100   5.736
 3145TIP3   OH2 9375   6.339   3.386   5.055
 3145TIP3    H1 9376   6.286   3.400   5.133
 3145TIP3    H2 9377   6.368   3.295   5.062
 3146TIP3   OH2 9378   2.809   3.361   2.150
 3146TIP3    H1 9379   2.737   3.398   2.201
 3146TIP3    H2 9380   2.773   3.282   2.110
 3147TIP3   OH2 9381   2.236   4.973   0.517
 3147TIP3    H1 9382   2.157   5.026   0.529
 3147TIP3    H2 9383   2.240   4.957   0.422
 3148TIP3   OH2 9384   4.588   0.213   1.784
 3148TIP3    H1 9385   4.540   0.282   1.831
 3148TIP3    H2 9386   4.520   0.154   1.752
 3149TIP3   OH2 9387   5.837   1.414   2.960
 3149TIP3    H1 9388   5.758   1.439   2.912
 3149TIP3    H2 9389   5.813   1.423   3.052
 3150TIP3   OH2 9390   6.219   4.813   4.210
 3150TIP3    H1 9391   6.168   4.770   4.278
 3150TIP3    H2 9392   6.303   4.831   4.251
 3151TIP3   OH2 9393   1.147   2.259   0.381
 3151TIP3    H1 9394   1.103   2.214   0.308
 3151TIP3    H2 9395   1.079   2.266   0.449
 3152TIP3   OH2 9396   1.824   4.974   6.371
 3152TIP3    H1 9397   1.754   5.040   6.376
 3152TIP3    H2 9398   1.815   4.924   6.452
 3153TIP3   OH2 9399   0.356   5.975   5.549
 3153TIP3    H1 9400   0.414   6.032   5.499
 3153TIP3    H2 9401   0.369   6.003   5.640
 3154TIP3   OH2 9402   6.290   4.525   5.211
 3154TIP3    H1 9403   6.243   4.584   5.270
 3154TIP3    H2 9404   6.371   4.572   5.189
 3155TIP3   OH2 9405   2.278   7.723   6.313
 3155TIP3    H1 9406   2.324   7.790   6.363
 3155TIP3    H2 9407   2.198   7.706   6.364
 3156TIP3   OH2 9408   5.702   1.081   1.158
 3156TIP3    H1 9409   5.638   1.045   1.097
 3156TIP3    H2 9410   5.708   1.174   1.135
 3157TIP3   OH2 9411   5.221   4.683   1.047
 3157TIP3    H1 9412   5.200   4.619   0.979
 3157TIP3    H2 9413   5.301   4.726   1.016
 3158TIP3   OH2 9414   1.183   5.752   2.615
 3158TIP3    H1 9415   1.108   5.765   2.557
 3158TIP3    H2 9416   1.254   5.726   2.556
 3159TIP3   OH2 9417   2.088   6.522   5.332
 3159TIP3    H1 9418   2.135   6.603   5.311
 3159TIP3    H2 9419   2.083   6.522   5.427
 3160TIP3   OH2 9420   5.503   3.530   2.404
 3160TIP3    H1 9421   5.429   3.587   2.426
 3160TIP3    H2 9422   5.572   3.591   2.377
 3161TIP3   OH2 9423   4.447   7.436   6.114
 3161TIP3    H1 9424   4.386   7.403   6.048
 3161TIP3    H2 9425   4.391   7.461   6.187
 3162TIP3   OH2 9426   4.966   1.910   2.374
 3162TIP3    H1 9427   4.997   1.821   2.359
 3162TIP3    H2 9428   4.953   1.946   2.286
 3163TIP3   OH2 9429   5.276   7.871   5.041
 3163TIP3    H1 9430   5.295   7.835   4.955
 3163TIP3    H2 9431   5.241   7.959   5.023
 3164TIP3   OH2 9432   4.083   6.346   3.263
 3164TIP3    H1 9433   3.995   6.324   3.232
 3164TIP3    H2 9434   4.131   6.263   3.259
 3165TIP3   OH2 9435   6.029   5.571   5.033
 3165TIP3    H1 9436   6.081   5.525   5.099
 3165TIP3    H2 9437   5.964   5.506   5.004
 3166TIP3   OH2 9438   5.384   3.782   2.725
 3166TIP3    H1 9439   5.339   3.717   2.672
 3166TIP3    H2 9440   5.454   3.815   2.668
 3167TIP3   OH2 9441   3.794   4.264   3.103
 3167TIP3    H1 9442   3.726   4.200   3.082
 3167TIP3    H2 9443   3.861   4.213   3.149
 3168TIP3   OH2 9444   3.704   7.686   5.929
 3168TIP3    H1 9445   3.633   7.645   5.978
 3168TIP3    H2 9446   3.777   7.690   5.991
 3169TIP3   OH2 9447   4.431   1.208   4.276
 3169TIP3    H1 9448   4.463   1.157   4.351
 3169TIP3    H2 9449   4.370   1.149   4.232
 3170TIP3   OH2 9450   5.632   4.118   6.291
 3170TIP3    H1 9451   5.668   4.196   6.249
 3170TIP3    H2 9452   5.708   4.063   6.310
 3171TIP3   OH2 9453   6.897   3.460   5.800
 3171TIP3    H1 9454   6.808   3.477   5.832
 3171TIP3    H2 9455   6.910   3.524   5.730
 3172TIP3   OH2 9456   1.026   4.356   3.644
 3172TIP3    H1 9457   0.946   4.308   3.620
 3172TIP3    H2 9458   1.033   4.345   3.739
 3173TIP3   OH2 9459   5.832   4.898   2.463
 3173TIP3    H1 9460   5.817   4.905   2.369
 3173TIP3    H2 9461   5.760   4.949   2.502
 3174TIP3   OH2 9462   4.510   7.698   3.133
 3174TIP3    H1 9463   4.536   7.651   3.211
 3174TIP3    H2 9464   4.509   7.632   3.064
 3175TIP3   OH2 9465   7.705   2.444   2.068
 3175TIP3    H1 9466   7.735   2.422   1.980
 3175TIP3    H2 9467   7.779   2.423   2.125
 3176TIP3   OH2 9468   2.813   3.601   5.974
 3176TIP3    H1 9469   2.800   3.544   6.049
 3176TIP3    H2 9470   2.795   3.545   5.898
 3177TIP3   OH2 9471   1.021   3.662   6.203
 3177TIP3    H1 9472   1.018   3.701   6.116
 3177TIP3    H2 9473   1.092   3.598   6.199
 3178TIP3   OH2 9474   3.052   3.634   4.954
 3178TIP3    H1 9475   3.127   3.676   4.995
 3178TIP3    H2 9476   3.051   3.545   4.991
 3179TIP3   OH2 9477   0.949   3.697   5.927
 3179TIP3    H1 9478   0.900   3.637   5.871
 3179TIP3    H2 9479   0.896   3.776   5.929
 3180TIP3   OH2 9480   2.967   2.976   3.053
 3180TIP3    H1 9481   2.875   3.003   3.058
 3180TIP3    H2 9482   2.972   2.920   2.976
 3181TIP3   OH2 9483   4.279   7.273   4.761
 3181TIP3    H1 9484   4.296   7.187   4.800
 3181TIP3    H2 9485   4.294   7.335   4.833
 3182TIP3   OH2 9486   8.009   2.217   5.850
 3182TIP3    H1 9487   8.076   2.284   5.866
 3182TIP3    H2 9488   7.939   2.238   5.911
 3183TIP3   OH2 9489   0.248   6.144   2.326
 3183TIP3    H1 9490   0.183   6.214   2.322
 3183TIP3    H2 9491   0.204   6.073   2.373
 3184TIP3   OH2 9492   2.736   3.410   1.243
 3184TIP3    H1 9493   2.775   3.346   1.184
 3184TIP3    H2 9494   2.642   3.407   1.223
 3185TIP3   OH2 9495   1.971   3.478   2.782
 3185TIP3    H1 9496   2.049   3.504   2.831
 3185TIP3    H2 9497   1.941   3.558   2.739
 3186TIP3   OH2 9498   6.008   7.692   1.423
 3186TIP3    H1 9499   6.091   7.731   1.393
 3186TIP3    H2 9500   5.944   7.719   1.358
 3187TIP3   OH2 9501   5.423   6.754   5.390
 3187TIP3    H1 9502   5.499   6.810   5.375
 3187TIP3    H2 9503   5.365   6.805   5.446
 3188TIP3   OH2 9504   1.904   1.162   3.739
 3188TIP3    H1 9505   1.925   1.115   3.820
 3188TIP3    H2 9506   1.859   1.241   3.769
 3189TIP3   OH2 9507   3.180   1.128   0.731
 3189TIP3    H1 9508   3.107   1.186   0.752
 3189TIP3    H2 9509   3.156   1.089   0.647
 3190TIP3   OH2 9510   8.282   5.069   3.028
 3190TIP3    H1 9511   8.353   5.104   3.083
 3190TIP3    H2 9512   8.318   4.988   2.991
 3191TIP3   OH2 9513   2.224   2.558   0.046
 3191TIP3    H1 9514   2.243   2.485   0.104
 3191TIP3    H2 9515   2.141   2.535   0.003
 3192TIP3   OH2 9516   7.688   3.339   2.769
 3192TIP3    H1 9517   7.620   3.379   2.714
 3192TIP3    H2 9518   7.760   3.321   2.710
 3193TIP3   OH2 9519   6.917   2.797   0.406
 3193TIP3    H1 9520   6.964   2.836   0.333
 3193TIP3    H2 9521   6.948   2.846   0.483
 3194TIP3   OH2 9522   7.868   0.714   6.598
 3194TIP3    H1 9523   7.785   0.707   6.644
 3194TIP3    H2 9524   7.920   0.775   6.650
 3195TIP3   OH2 9525   8.150   3.098   2.040
 3195TIP3    H1 9526   8.147   3.015   1.994
 3195TIP3    H2 9527   8.240   3.105   2.072
 3196TIP3   OH2 9528   6.550   5.130   5.271
 3196TIP3    H1 9529   6.499   5.185   5.213
 3196TIP3    H2 9530   6.512   5.042   5.260
 3197TIP3   OH2 9531   7.280   0.893   1.556
 3197TIP3    H1 9532   7.232   0.973   1.535
 3197TIP3    H2 9533   7.301   0.902   1.649
 3198TIP3   OH2 9534   0.441   5.878   1.223
 3198TIP3    H1 9535   0.381   5.803   1.217
 3198TIP3    H2 9536   0.470   5.877   1.315
 3199TIP3   OH2 9537   3.704   0.846   2.440
 3199TIP3    H1 9538   3.782   0.824   2.492
 3199TIP3    H2 9539   3.688   0.938   2.458
 3200TIP3   OH2 9540   1.776   2.840   2.903
 3200TIP3    H1 9541   1.847   2.789   2.863
 3200TIP3    H2 9542   1.697   2.809   2.860
 3201TIP3   OH2 9543   3.371   4.853   3.413
 3201TIP3    H1 9544   3.405   4.772   3.376
 3201TIP3    H2 9545   3.341   4.903   3.337
 3202TIP3   OH2 9546   1.886   4.788   6.659
 3202TIP3    H1 9547   1.846   4.701   6.653
 3202TIP3    H2 9548   1.978   4.774   6.636
 3203TIP3   OH2 9549   0.141   2.200   5.518
 3203TIP3    H1 9550   0.181   2.285   5.537
 3203TIP3    H2 9551   0.047   2.219   5.513
 3204TIP3   OH2 9552   4.549   7.554   2.542
 3204TIP3    H1 9553   4.584   7.643   2.546
 3204TIP3    H2 9554   4.621   7.502   2.505
 3205TIP3   OH2 9555   4.732   1.088   3.788
 3205TIP3    H1 9556   4.674   1.096   3.864
 3205TIP3    H2 9557   4.673   1.098   3.713
 3206TIP3   OH2 9558   7.560   5.309   5.702
 3206TIP3    H1 9559   7.646   5.327   5.666
 3206TIP3    H2 9560   7.512   5.391   5.694
 3207TIP3   OH2 9561   0.582   6.346   2.644
 3207TIP3    H1 9562   0.492   6.367   2.672
 3207TIP3    H2 9563   0.571   6.303   2.559
 3208TIP3   OH2 9564   4.158   0.409   4.409
 3208TIP3    H1 9565   4.092   0.371   4.467
 3208TIP3    H2 9566   4.116   0.410   4.323
 3209TIP3   OH2 9567   5.502   2.798   3.199
 3209TIP3    H1 9568   5.517   2.737   3.127
 3209TIP3    H2 9569   5.482   2.743   3.274
 3210TIP3   OH2 9570   2.756   2.150   3.255
 3210TIP3    H1 9571   2.738   2.125   3.346
 3210TIP3    H2 9572   2.836   2.103   3.233
 3211TIP3   OH2 9573   8.390   4.417   0.513
 3211TIP3    H1 9574   8.363   4.384   0.427
 3211TIP3    H2 9575   8.474   4.459   0.497
 3212TIP3   OH2 9576   3.967   6.978   0.358
 3212TIP3    H1 9577   3.999   6.934   0.279
 3212TIP3    H2 9578   4.045   6.989   0.413
 3213TIP3   OH2 9579   6.201   4.680   3.177
 3213TIP3    H1 9580   6.231   4.638   3.258
 3213TIP3    H2 9581   6.282   4.707   3.133
 3214TIP3   OH2 9582   4.753   3.969   4.046
 3214TIP3    H1 9583   4.751   3.954   3.951
 3214TIP3    H2 9584   4.836   3.932   4.074
 3215TIP3   OH2 9585   5.406   6.157   0.678
 3215TIP3    H1 9586   5.491   6.183   0.643
 3215TIP3    H2 9587   5.391   6.216   0.752
 3216TIP3   OH2 9588   0.334   6.710   5.103
 3216TIP3    H1 9589   0.238   6.715   5.099
 3216TIP3    H2 9590   0.362   6.801   5.098
 3217TIP3   OH2 9591   2.710   1.425   1.022
 3217TIP3    H1 9592   2.755   1.506   0.996
 3217TIP3    H2 9593   2.629   1.456   1.063
 3218TIP3   OH2 9594   2.073   0.879   3.978
 3218TIP3    H1 9595   2.091   0.797   4.024
 3218TIP3    H2 9596   1.981   0.898   3.997
 3219TIP3   OH2 9597   1.588   1.240   6.159
 3219TIP3    H1 9598   1.602   1.155   6.118
 3219TIP3    H2 9599   1.583   1.301   6.086
 3220TIP3   OH2 9600   7.333   0.536   0.813
 3220TIP3    H1 9601   7.238   0.526   0.806
 3220TIP3    H2 9602   7.356   0.489   0.893
 3221TIP3   OH2 9603   8.178   2.801   5.533
 3221TIP3    H1 9604   8.111   2.855   5.575
 3221TIP3    H2 9605   8.145   2.712   5.542
 3222TIP3   OH2 9606   4.241   6.153   4.884
 3222TIP3    H1 9607   4.257   6.073   4.935
 3222TIP3    H2 9608   4.257   6.127   4.793
 3223TIP3   OH2 9609   2.823   4.472   1.473
 3223TIP3    H1 9610   2.807   4.378   1.465
 3223TIP3    H2 9611   2.847   4.500   1.384
 3224TIP3   OH2 9612   4.052   0.929   0.794
 3224TIP3    H1 9613   4.119   0.934   0.725
 3224TIP3    H2 9614   3.999   0.853   0.770
 3225TIP3   OH2 9615   2.504   2.233   0.352
 3225TIP3    H1 9616   2.578   2.180   0.321
 3225TIP3    H2 9617   2.491   2.205   0.443
 3226TIP3   OH2 9618   5.317   6.861   4.557
 3226TIP3    H1 9619   5.359   6.898   4.635
 3226TIP3    H2 9620   5.224   6.860   4.578
 3227TIP3   OH2 9621   8.342   7.789   6.159
 3227TIP3    H1 9622   8.385   7.855   6.105
 3227TIP3    H2 9623   8.342   7.827   6.247
 3228TIP3   OH2 9624   5.946   6.521   6.092
 3228TIP3    H1 9625   5.934   6.487   6.003
 3228TIP3    H2 9626   5.986   6.607   6.079
 3229TIP3   OH2 9627   7.576   3.664   2.405
 3229TIP3    H1 9628   7.490   3.651   2.363
 3229TIP3    H2 9629   7.598   3.755   2.386
 3230TIP3   OH2 9630   6.033   0.459   1.287
 3230TIP3    H1 9631   5.967   0.429   1.224
 3230TIP3    H2 9632   6.022   0.554   1.290
 3231TIP3   OH2 9633   0.384   2.752   0.255
 3231TIP3    H1 9634   0.355   2.710   0.337
 3231TIP3    H2 9635   0.323   2.720   0.189
 3232TIP3   OH2 9636   4.497   5.224   4.497
 3232TIP3    H1 9637   4.523   5.287   4.564
 3232TIP3    H2 9638   4.422   5.178   4.535
 3233TIP3   OH2 9639   0.488   5.661   0.741
 3233TIP3    H1 9640   0.489   5.754   0.720
 3233TIP3    H2 9641   0.411   5.627   0.695
 3234TIP3   OH2 9642   8.275   4.673   6.762
 3234TIP3    H1 9643   8.301   4.756   6.723
 3234TIP3    H2 9644   8.187   4.657   6.728
 3235TIP3   OH2 9645   3.296   2.520   3.014
 3235TIP3    H1 9646   3.236   2.568   2.956
 3235TIP3    H2 9647   3.278   2.428   2.995
 3236TIP3   OH2 9648   2.774   6.426   5.420
 3236TIP3    H1 9649   2.745   6.464   5.336
 3236TIP3    H2 9650   2.794   6.335   5.399
 3237TIP3   OH2 9651   4.875   6.396   0.785
 3237TIP3    H1 9652   4.905   6.434   0.702
 3237TIP3    H2 9653   4.936   6.324   0.802
 3238TIP3   OH2 9654   2.089   1.549   4.661
 3238TIP3    H1 9655   2.092   1.454   4.664
 3238TIP3    H2 9656   2.163   1.577   4.714
 3239TIP3   OH2 9657   4.564   6.709   6.451
 3239TIP3    H1 9658   4.531   6.797   6.432
 3239TIP3    H2 9659   4.507   6.650   6.402
 3240TIP3   OH2 9660   6.990   4.226   6.642
 3240TIP3    H1 9661   6.922   4.223   6.574
 3240TIP3    H2 9662   6.942   4.247   6.722
 3241TIP3   OH2 9663   1.469   0.298   2.105
 3241TIP3    H1 9664   1.392   0.241   2.112
 3241TIP3    H2 9665   1.488   0.324   2.195
 3242TIP3   OH2 9666   2.777   6.396   6.242
 3242TIP3    H1 9667   2.722   6.350   6.306
 3242TIP3    H2 9668   2.778   6.338   6.165
 3243TIP3   OH2 9669   2.917   3.570   4.089
 3243TIP3    H1 9670   2.962   3.531   4.014
 3243TIP3    H2 9671   2.974   3.550   4.164
 3244TIP3   OH2 9672   1.971   2.156   2.137
 3244TIP3    H1 9673   1.889   2.111   2.118
 3244TIP3    H2 9674   2.038   2.103   2.094
 3245TIP3   OH2 9675   4.583   0.380   4.304
 3245TIP3    H1 9676   4.531   0.326   4.244
 3245TIP3    H2 9677   4.674   0.362   4.279
 3246TIP3   OH2 9678   0.848   4.179   4.170
 3246TIP3    H1 9679   0.789   4.195   4.244
 3246TIP3    H2 9680   0.924   4.135   4.208
 3247TIP3   OH2 9681   5.083   4.898   3.663
 3247TIP3    H1 9682   5.010   4.933   3.612
 3247TIP3    H2 9683   5.131   4.975   3.693
 3248TIP3   OH2 9684   5.290   6.544   2.829
 3248TIP3    H1 9685   5.299   6.499   2.913
 3248TIP3    H2 9686   5.197   6.535   2.807
 3249TIP3   OH2 9687   0.882   1.866   3.957
 3249TIP3    H1 9688   0.835   1.883   3.876
 3249TIP3    H2 9689   0.880   1.949   4.004
 3250TIP3   OH2 9690   4.777   4.610   3.424
 3250TIP3    H1 9691   4.853   4.623   3.479
 3250TIP3    H2 9692   4.719   4.684   3.444
 3251TIP3   OH2 9693   5.581   1.013   5.158
 3251TIP3    H1 9694   5.518   0.949   5.191
 3251TIP3    H2 9695   5.539   1.048   5.079
 3252TIP3   OH2 9696   0.777   6.568   0.487
 3252TIP3    H1 9697   0.692   6.560   0.531
 3252TIP3    H2 9698   0.810   6.654   0.512
 3253TIP3   OH2 9699   8.281   3.340   6.129
 3253TIP3    H1 9700   8.282   3.252   6.092
 3253TIP3    H2 9701   8.373   3.362   6.144
 3254TIP3   OH2 9702   5.321   3.887   2.115
 3254TIP3    H1 9703   5.279   3.882   2.201
 3254TIP3    H2 9704   5.317   3.798   2.081
 3255TIP3   OH2 9705   1.082   6.747   3.548
 3255TIP3    H1 9706   0.987   6.760   3.545
 3255TIP3    H2 9707   1.119   6.834   3.536
 3256TIP3   OH2 9708   6.642   0.323   4.475
 3256TIP3    H1 9709   6.566   0.345   4.529
 3256TIP3    H2 9710   6.717   0.356   4.524
 3257TIP3   OH2 9711   3.302   4.210   0.395
 3257TIP3    H1 9712   3.362   4.233   0.466
 3257TIP3    H2 9713   3.332   4.125   0.364
 3258TIP3   OH2 9714   8.095   3.012   5.363
 3258TIP3    H1 9715   8.138   2.939   5.406
 3258TIP3    H2 9716   8.125   3.007   5.272
 3259TIP3   OH2 9717   5.203   3.625   6.420
 3259TIP3    H1 9718   5.293   3.609   6.450
 3259TIP3    H2 9719   5.162   3.539   6.423
 3260TIP3   OH2 9720   6.744   3.586   1.569
 3260TIP3    H1 9721   6.737   3.597   1.474
 3260TIP3    H2 9722   6.655   3.569   1.598
 3261TIP3   OH2 9723   7.044   7.897   0.030
 3261TIP3    H1 9724   7.064   7.990   0.035
 3261TIP3    H2 9725   7.000   7.877   0.113
 3262TIP3   OH2 9726   6.210   6.403   0.830
 3262TIP3    H1 9727   6.151   6.397   0.754
 3262TIP3    H2 9728   6.262   6.323   0.827
 3263TIP3   OH2 9729   6.211   2.093   1.839
 3263TIP3    H1 9730   6.136   2.112   1.896
 3263TIP3    H2 9731   6.224   2.173   1.788
 3264TIP3   OH2 9732   0.810   1.444   2.979
 3264TIP3    H1 9733   0.842   1.380   3.043
 3264TIP3    H2 9734   0.733   1.402   2.940
 3265TIP3   OH2 9735   8.308   5.110   5.074
 3265TIP3    H1 9736   8.239   5.097   5.009
 3265TIP3    H2 9737   8.382   5.146   5.025
 3266TIP3   OH2 9738   6.756   7.819   2.331
 3266TIP3    H1 9739   6.709   7.880   2.274
 3266TIP3    H2 9740   6.831   7.870   2.362
 3267TIP3   OH2 9741   1.980   4.660   5.329
 3267TIP3    H1 9742   2.064   4.615   5.317
 3267TIP3    H2 9743   1.982   4.731   5.265
 3268TIP3   OH2 9744   2.573   5.650   2.046
 3268TIP3    H1 9745   2.539   5.737   2.065
 3268TIP3    H2 9746   2.511   5.590   2.090
 3269TIP3   OH2 9747   6.463   6.520   6.146
 3269TIP3    H1 9748   6.516   6.484   6.218
 3269TIP3    H2 9749   6.383   6.468   6.146
 3270TIP3   OH2 9750   7.894   6.995   6.241
 3270TIP3    H1 9751   7.889   7.090   6.228
 3270TIP3    H2 9752   7.941   6.985   6.325
 3271TIP3   OH2 9753   6.698   1.343   1.359
 3271TIP3    H1 9754   6.716   1.284   1.286
 3271TIP3    H2 9755   6.760   1.415   1.347
 3272TIP3   OH2 9756   2.133   4.547   0.071
 3272TIP3    H1 9757   2.085   4.505   0.143
 3272TIP3    H2 9758   2.212   4.581   0.112
 3273TIP3   OH2 9759   6.169   2.709   4.993
 3273TIP3    H1 9760   6.153   2.617   5.014
 3273TIP3    H2 9761   6.198   2.709   4.902
 3274TIP3   OH2 9762   6.514   6.350   1.832
 3274TIP3    H1 9763   6.490   6.436   1.798
 3274TIP3    H2 9764   6.500   6.290   1.759
 3275TIP3   OH2 9765   1.846   1.362   0.976
 3275TIP3    H1 9766   1.881   1.450   0.966
 3275TIP3    H2 9767   1.751   1.374   0.981
 3276TIP3   OH2 9768   3.186   4.630   3.580
 3276TIP3    H1 9769   3.254   4.669   3.526
 3276TIP3    H2 9770   3.187   4.680   3.662
 3277TIP3   OH2 9771   7.361   6.361   1.635
 3277TIP3    H1 9772   7.310   6.433   1.672
 3277TIP3    H2 9773   7.309   6.283   1.654
 3278TIP3   OH2 9774   1.908   7.634   4.335
 3278TIP3    H1 9775   1.854   7.697   4.288
 3278TIP3    H2 9776   1.856   7.553   4.336
 3279TIP3   OH2 9777   3.616   1.566   3.144
 3279TIP3    H1 9778   3.581   1.632   3.084
 3279TIP3    H2 9779   3.677   1.516   3.090
 3280TIP3   OH2 9780   2.791   3.118   1.809
 3280TIP3    H1 9781   2.774   3.064   1.886
 3280TIP3    H2 9782   2.801   3.055   1.737
 3281TIP3   OH2 9783   3.019   1.874   1.787
 3281TIP3    H1 9784   2.975   1.957   1.770
 3281TIP3    H2 9785   3.015   1.827   1.704
 3282TIP3   OH2 9786   8.390   1.241   1.080
 3282TIP3    H1 9787   8.455   1.177   1.112
 3282TIP3    H2 9788   8.321   1.238   1.146
 3283TIP3   OH2 9789   2.590   0.419   5.709
 3283TIP3    H1 9790   2.519   0.414   5.645
 3283TIP3    H2 9791   2.619   0.328   5.719
 3284TIP3   OH2 9792   8.270   4.948   3.987
 3284TIP3    H1 9793   8.180   4.965   3.959
 3284TIP3    H2 9794   8.265   4.865   4.033
 3285TIP3   OH2 9795   0.648   2.704   5.758
 3285TIP3    H1 9796   0.576   2.691   5.696
 3285TIP3    H2 9797   0.723   2.661   5.716
 3286TIP3   OH2 9798   4.829   6.687   6.285
 3286TIP3    H1 9799   4.816   6.616   6.347
 3286TIP3    H2 9800   4.767   6.755   6.313
 3287TIP3   OH2 9801   8.243   0.714   6.014
 3287TIP3    H1 9802   8.201   0.734   6.097
 3287TIP3    H2 9803   8.326   0.763   6.017
 3288TIP3   OH2 9804   2.080   2.898   2.314
 3288TIP3    H1 9805   2.065   2.979   2.364
 3288TIP3    H2 9806   2.158   2.917   2.261
 3289TIP3   OH2 9807   0.534   7.494   0.186
 3289TIP3    H1 9808   0.553   7.587   0.193
 3289TIP3    H2 9809   0.496   7.484   0.099
 3290TIP3   OH2 9810   6.945   0.297   5.079
 3290TIP3    H1 9811   6.880   0.286   5.148
 3290TIP3    H2 9812   6.939   0.218   5.026
 3291TIP3   OH2 9813   6.220   7.264   2.148
 3291TIP3    H1 9814   6.154   7.305   2.204
 3291TIP3    H2 9815   6.231   7.176   2.184
 3292TIP3   OH2 9816   3.705   2.155   2.654
 3292TIP3    H1 9817   3.796   2.170   2.630
 3292TIP3    H2 9818   3.687   2.066   2.624
 3293TIP3   OH2 9819   7.502   7.684   5.859
 3293TIP3    H1 9820   7.414   7.663   5.891
 3293TIP3    H2 9821   7.494   7.774   5.827
 3294TIP3   OH2 9822   3.009   6.659   1.798
 3294TIP3    H1 9823   3.015   6.569   1.768
 3294TIP3    H2 9824   3.074   6.665   1.869
 3295TIP3   OH2 9825   2.883   6.194   4.077
 3295TIP3    H1 9826   2.942   6.244   4.135
 3295TIP3    H2 9827   2.805   6.180   4.130
 3296TIP3   OH2 9828   5.779   4.623   2.138
 3296TIP3    H1 9829   5.756   4.625   2.045
 3296TIP3    H2 9830   5.855   4.680   2.145
 3297TIP3   OH2 9831   2.250   5.366   1.542
 3297TIP3    H1 9832   2.269   5.389   1.451
 3297TIP3    H2 9833   2.303   5.428   1.593
 3298TIP3   OH2 9834   4.216   0.203   3.977
 3298TIP3    H1 9835   4.234   0.262   3.904
 3298TIP3    H2 9836   4.162   0.255   4.037
 3299TIP3   OH2 9837   6.087   4.651   5.350
 3299TIP3    H1 9838   6.008   4.614   5.311
 3299TIP3    H2 9839   6.059   4.735   5.385
 3300TIP3   OH2 9840   1.847   6.918   2.084
 3300TIP3    H1 9841   1.757   6.940   2.058
 3300TIP3    H2 9842   1.901   6.984   2.041
 3301TIP3   OH2 9843   6.704   2.310   0.851
 3301TIP3    H1 9844   6.768   2.366   0.807
 3301TIP3    H2 9845   6.685   2.241   0.787
 3302TIP3   OH2 9846   4.375   3.022   4.299
 3302TIP3    H1 9847   4.320   3.091   4.338
 3302TIP3    H2 9848   4.448   3.013   4.360
 3303TIP3   OH2 9849   1.988   5.156   5.256
 3303TIP3    H1 9850   1.904   5.131   5.216
 3303TIP3    H2 9851   1.967   5.235   5.307
 3304TIP3   OH2 9852   3.413   2.305   4.398
 3304TIP3    H1 9853   3.400   2.266   4.311
 3304TIP3    H2 9854   3.442   2.232   4.452
 3305TIP3   OH2 9855   2.965   3.416   5.620
 3305TIP3    H1 9856   2.886   3.444   5.666
 3305TIP3    H2 9857   2.950   3.440   5.529
 3306TIP3   OH2 9858   0.605   6.317   2.109
 3306TIP3    H1 9859   0.616   6.324   2.014
 3306TIP3    H2 9860   0.684   6.274   2.139
 3307TIP3   OH2 9861   7.288   4.892   1.591
 3307TIP3    H1 9862   7.281   4.883   1.686
 3307TIP3    H2 9863   7.279   4.803   1.557
 3308TIP3   OH2 9864   6.138   2.788   3.852
 3308TIP3    H1 9865   6.088   2.781   3.770
 3308TIP3    H2 9866   6.154   2.882   3.861
 3309TIP3   OH2 9867   1.940   5.729   2.773
 3309TIP3    H1 9868   1.871   5.677   2.815
 3309TIP3    H2 9869   1.902   5.759   2.691
 3310TIP3   OH2 9870   7.545   1.292   1.064
 3310TIP3    H1 9871   7.547   1.311   1.158
 3310TIP3    H2 9872   7.615   1.345   1.028
 3311TIP3   OH2 9873   3.599   7.124   4.574
 3311TIP3    H1 9874   3.663   7.135   4.503
 3311TIP3    H2 9875   3.629   7.046   4.621
 3312TIP3   OH2 9876   7.546   4.708   2.885
 3312TIP3    H1 9877   7.571   4.616   2.897
 3312TIP3    H2 9878   7.619   4.747   2.838
 3313TIP3   OH2 9879   5.880   0.892   4.169
 3313TIP3    H1 9880   5.799   0.943   4.160
 3313TIP3    H2 9881   5.912   0.914   4.256
 3314TIP3   OH2 9882   1.575   6.452   4.479
 3314TIP3    H1 9883   1.600   6.509   4.551
 3314TIP3    H2 9884   1.656   6.436   4.431
 3315TIP3   OH2 9885   2.694   6.965   0.744
 3315TIP3    H1 9886   2.737   7.027   0.803
 3315TIP3    H2 9887   2.702   7.005   0.657
 3316TIP3   OH2 9888   4.729   5.282   1.623
 3316TIP3    H1 9889   4.709   5.189   1.610
 3316TIP3    H2 9890   4.733   5.317   1.534
 3317TIP3   OH2 9891   3.297   2.264   5.586
 3317TIP3    H1 9892   3.338   2.256   5.673
 3317TIP3    H2 9893   3.367   2.295   5.529
 3318TIP3   OH2 9894   0.633   5.755   6.609
 3318TIP3    H1 9895   0.570   5.764   6.680
 3318TIP3    H2 9896   0.710   5.804   6.639
 3319TIP3   OH2 9897   5.435   3.622   4.662
 3319TIP3    H1 9898   5.521   3.606   4.700
 3319TIP3    H2 9899   5.435   3.571   4.580
 3320TIP3   OH2 9900   0.174   7.807   6.632
 3320TIP3    H1 9901   0.241   7.863   6.672
 3320TIP3    H2 9902   0.175   7.727   6.685
 3321TIP3   OH2 9903   5.832   0.203   0.634
 3321TIP3    H1 9904   5.758   0.205   0.694
 3321TIP3    H2 9905   5.872   0.290   0.641
 3322TIP3   OH2 9906   0.041   2.313   3.675
 3322TIP3    H1 9907   0.048   2.270   3.760
 3322TIP3    H2 9908  -0.022   2.383   3.688
 3323TIP3   OH2 9909   6.813   5.167   6.287
 3323TIP3    H1 9910   6.843   5.130   6.370
 3323TIP3    H2 9911   6.726   5.203   6.307
 3324TIP3   OH2 9912   7.677   5.706   0.150
 3324TIP3    H1 9913   7.727   5.746   0.079
 3324TIP3    H2 9914   7.621   5.641   0.107
 3325TIP3   OH2 9915   0.172   1.038   2.949
 3325TIP3    H1 9916   0.243   0.974   2.954
 3325TIP3    H2 9917   0.164   1.072   3.038
 3326TIP3   OH2 9918   1.157   6.525   1.779
 3326TIP3    H1 9919   1.211   6.448   1.797
 3326TIP3    H2 9920   1.138   6.520   1.686
 3327TIP3   OH2 9921   8.316   2.743   4.640
 3327TIP3    H1 9922   8.305   2.687   4.563
 3327TIP3    H2 9923   8.392   2.707   4.685
 3328TIP3   OH2 9924   0.567   1.021  -0.051
 3328TIP3    H1 9925   0.529   0.957  -0.111
 3328TIP3    H2 9926   0.492   1.058  -0.005
 3329TIP3   OH2 9927   3.552   2.704   2.507
 3329TIP3    H1 9928   3.590   2.641   2.446
 3329TIP3    H2 9929   3.626   2.760   2.533
 3330TIP3   OH2 9930   0.623   0.552   5.966
 3330TIP3    H1 9931   0.673   0.593   6.037
 3330TIP3    H2 9932   0.653   0.596   5.887
 3331TIP3   OH2 9933   6.070   5.766   5.856
 3331TIP3    H1 9934   6.081   5.759   5.761
 3331TIP3    H2 9935   5.977   5.753   5.871
 3332TIP3   OH2 9936   0.698   3.529   2.727
 3332TIP3    H1 9937   0.749   3.450   2.741
 3332TIP3    H2 9938   0.760   3.600   2.740
 3333TIP3   OH2 9939   6.493   4.646   5.059
 3333TIP3    H1 9940   6.566   4.590   5.088
 3333TIP3    H2 9941   6.533   4.712   5.004
 3334TIP3   OH2 9942   3.734   1.681   3.583
 3334TIP3    H1 9943   3.763   1.697   3.673
 3334TIP3    H2 9944   3.753   1.763   3.537
 3335TIP3   OH2 9945   7.753   1.103   3.084
 3335TIP3    H1 9946   7.767   1.042   3.156
 3335TIP3    H2 9947   7.829   1.162   3.087
 3336TIP3   OH2 9948   0.038   3.118   6.420
 3336TIP3    H1 9949   0.085   3.064   6.356
 3336TIP3    H2 9950  -0.050   3.082   6.421
 3337TIP3   OH2 9951   4.008   5.600   5.020
 3337TIP3    H1 9952   4.095   5.635   5.039
 3337TIP3    H2 9953   4.010   5.580   4.926
 3338TIP3   OH2 9954   5.300   2.636   2.763
 3338TIP3    H1 9955   5.232   2.578   2.795
 3338TIP3    H2 9956   5.335   2.591   2.685
 3339TIP3   OH2 9957   7.593   0.088   4.718
 3339TIP3    H1 9958   7.607   0.034   4.796
 3339TIP3    H2 9959   7.666   0.150   4.719
 3340TIP3   OH2 9960   4.684   2.784   2.624
 3340TIP3    H1 9961   4.753   2.797   2.559
 3340TIP3    H2 9962   4.692   2.693   2.650
 3341TIP3   OH2 9963   4.189   4.833   6.053
 3341TIP3    H1 9964   4.193   4.741   6.080
 3341TIP3    H2 9965   4.136   4.832   5.973
 3342TIP3   OH2 9966   5.456   3.876   3.738
 3342TIP3    H1 9967   5.383   3.856   3.679
 3342TIP3    H2 9968   5.487   3.962   3.708
 3343TIP3   OH2 9969   1.972   6.177   5.786
 3343TIP3    H1 9970   2.062   6.198   5.811
 3343TIP3    H2 9971   1.944   6.112   5.851
 3344TIP3   OH2 9972   7.915   6.437   5.761
 3344TIP3    H1 9973   7.943   6.488   5.837
 3344TIP3    H2 9974   7.922   6.346   5.790
 3345TIP3   OH2 9975   2.431   1.064   4.504
 3345TIP3    H1 9976   2.506   1.015   4.469
 3345TIP3    H2 9977   2.382   0.999   4.555
 3346TIP3   OH2 9978   1.223   7.122   3.135
 3346TIP3    H1 9979   1.314   7.151   3.142
 3346TIP3    H2 9980   1.229   7.026   3.127
 3347TIP3   OH2 9981   6.191   4.280   5.174
 3347TIP3    H1 9982   6.234   4.366   5.181
 3347TIP3    H2 9983   6.103   4.295   5.208
 3348TIP3   OH2 9984   4.895   7.214   3.899
 3348TIP3    H1 9985   4.801   7.205   3.915
 3348TIP3    H2 9986   4.929   7.124   3.904
 3349TIP3   OH2 9987   4.479   5.197   6.244
 3349TIP3    H1 9988   4.501   5.218   6.153
 3349TIP3    H2 9989   4.390   5.230   6.255
 3350TIP3   OH2 9990   5.311   0.289   5.043
 3350TIP3    H1 9991   5.258   0.242   5.108
 3350TIP3    H2 9992   5.310   0.380   5.073
 3351TIP3   OH2 9993   0.316   2.131   3.719
 3351TIP3    H1 9994   0.300   2.198   3.651
 3351TIP3    H2 9995   0.253   2.062   3.699
 3352TIP3   OH2 9996   2.648   7.500   6.412
 3352TIP3    H1 9997   2.682   7.412   6.395
 3352TIP3    H2 9998   2.587   7.517   6.340
 3353TIP3   OH2 9999   7.328   7.021   5.999
 3353TIP3    H110000   7.299   7.074   6.073
 3353TIP3    H210001   7.414   7.057   5.977
 3354TIP3   OH210002   2.105   5.197   6.587
 3354TIP3    H110003   2.068   5.201   6.675
 3354TIP3    H210004   2.053   5.258   6.535
 3355TIP3   OH210005   0.166   4.432   4.091
 3355TIP3    H110006   0.177   4.434   3.996
 3355TIP3    H210007   0.172   4.524   4.118
 3356TIP3   OH210008   4.243   5.102   2.303
 3356TIP3    H110009   4.296   5.090   2.224
 3356TIP3    H210010   4.165   5.050   2.288
 3357TIP3   OH210011   6.141   2.024   1.517
 3357TIP3    H110012   6.169   2.062   1.600
 3357TIP3    H210013   6.121   2.100   1.461
 3358TIP3   OH210014   6.290   7.496   5.820
 3358TIP3    H110015   6.356   7.445   5.773
 3358TIP3    H210016   6.266   7.442   5.895
 3359TIP3   OH210017   5.186   1.080   5.892
 3359TIP3    H110018   5.217   1.070   5.982
 3359TIP3    H210019   5.140   1.165   5.891
 3360TIP3   OH210020   5.685   2.416   3.989
 3360TIP3    H110021   5.628   2.486   3.957
 3360TIP3    H210022   5.699   2.436   4.082
 3361TIP3   OH210023   5.989   0.878   2.041
 3361TIP3    H110024   5.896   0.888   2.062
 3361TIP3    H210025   6.007   0.785   2.056
 3362TIP3   OH210026   1.929   6.598   5.818
 3362TIP3    H110027   1.878   6.601   5.737
 3362TIP3    H210028   1.997   6.665   5.807
 3363TIP3   OH210029   3.440   3.753   0.931
 3363TIP3    H110030   3.475   3.838   0.959
 3363TIP3    H210031   3.444   3.698   1.009
 3364TIP3   OH210032   0.406   3.551   0.387
 3364TIP3    H110033   0.324   3.562   0.434
 3364TIP3    H210034   0.381   3.544   0.295
 3365TIP3   OH210035   0.848   0.302   5.240
 3365TIP3    H110036   0.764   0.307   5.286
 3365TIP3    H210037   0.914   0.307   5.309
 3366TIP3   OH210038   5.714   1.325   1.063
 3366TIP3    H110039   5.682   1.386   0.996
 3366TIP3    H210040   5.691   1.366   1.146
 3367TIP3   OH210041   7.581   1.922   1.325
 3367TIP3    H110042   7.506   1.863   1.331
 3367TIP3    H210043   7.657   1.865   1.338
 3368TIP3   OH210044   3.616   0.910   5.962
 3368TIP3    H110045   3.562   0.850   5.911
 3368TIP3    H210046   3.657   0.967   5.897
 3369TIP3   OH210047   5.835   0.395   3.923
 3369TIP3    H110048   5.793   0.376   4.007
 3369TIP3    H210049   5.852   0.489   3.925
 3370TIP3   OH210050   2.071   7.847   0.394
 3370TIP3    H110051   2.088   7.937   0.421
 3370TIP3    H210052   2.115   7.793   0.460
 3371TIP3   OH210053   4.114   4.969   4.985
 3371TIP3    H110054   4.149   4.925   4.906
 3371TIP3    H210055   4.101   5.060   4.958
 3372TIP3   OH210056   1.906   1.347   2.011
 3372TIP3    H110057   1.986   1.362   2.061
 3372TIP3    H210058   1.891   1.252   2.017
 3373TIP3   OH210059   4.812   1.405   4.038
 3373TIP3    H110060   4.785   1.337   4.100
 3373TIP3    H210061   4.731   1.450   4.015
 3374TIP3   OH210062   2.740   0.491   0.860
 3374TIP3    H110063   2.759   0.414   0.913
 3374TIP3    H210064   2.756   0.565   0.918
 3375TIP3   OH210065   2.933   3.763   0.959
 3375TIP3    H110066   2.971   3.676   0.947
 3375TIP3    H210067   2.859   3.749   1.018
 3376TIP3   OH210068   5.826   0.774   4.722
 3376TIP3    H110069   5.875   0.775   4.640
 3376TIP3    H210070   5.749   0.720   4.704
 3377TIP3   OH210071   1.373   4.530   6.771
 3377TIP3    H110072   1.388   4.497   6.860
 3377TIP3    H210073   1.438   4.599   6.759
 3378TIP3   OH210074   6.775   4.989   1.799
 3378TIP3    H110075   6.868   5.003   1.817
 3378TIP3    H210076   6.767   4.895   1.783
 3379TIP3   OH210077   4.366   5.596   6.514
 3379TIP3    H110078   4.459   5.606   6.495
 3379TIP3    H210079   4.335   5.686   6.527
 3380TIP3   OH210080   7.056   4.942   0.932
 3380TIP3    H110081   6.982   4.892   0.968
 3380TIP3    H210082   7.119   4.875   0.905
 3381TIP3   OH210083   0.403   0.429   4.441
 3381TIP3    H110084   0.322   0.395   4.403
 3381TIP3    H210085   0.376   0.462   4.527
 3382TIP3   OH210086   7.543   0.273   5.372
 3382TIP3    H110087   7.492   0.288   5.452
 3382TIP3    H210088   7.547   0.177   5.365
 3383TIP3   OH210089   4.658   2.219   2.310
 3383TIP3    H110090   4.573   2.262   2.324
 3383TIP3    H210091   4.722   2.282   2.344
 3384TIP3   OH210092   7.379   2.296   3.959
 3384TIP3    H110093   7.385   2.202   3.949
 3384TIP3    H210094   7.389   2.332   3.871
 3385TIP3   OH210095   6.903   6.231   4.265
 3385TIP3    H110096   6.963   6.176   4.316
 3385TIP3    H210097   6.849   6.170   4.216
 3386TIP3   OH210098   5.803   1.983   2.413
 3386TIP3    H110099   5.853   1.916   2.368
 3386TIP3    H210100   5.792   1.949   2.502
 3387TIP3   OH210101   6.928   5.072   3.035
 3387TIP3    H110102   6.981   4.997   3.064
 3387TIP3    H210103   6.986   5.120   2.975
 3388TIP3   OH210104   5.307   3.255   1.670
 3388TIP3    H110105   5.314   3.162   1.648
 3388TIP3    H210106   5.321   3.301   1.587
 3389TIP3   OH210107   2.637   3.421   3.772
 3389TIP3    H110108   2.694   3.348   3.749
 3389TIP3    H210109   2.552   3.380   3.789
 3390TIP3   OH210110   8.365   1.557   6.801
 3390TIP3    H110111   8.443   1.502   6.797
 3390TIP3    H210112   8.319   1.540   6.718
 3391TIP3   OH210113   3.282   5.273   5.461
 3391TIP3    H110114   3.336   5.250   5.537
 3391TIP3    H210115   3.226   5.197   5.448
 3392TIP3   OH210116   1.595   5.094   0.747
 3392TIP3    H110117   1.524   5.117   0.807
 3392TIP3    H210118   1.597   5.166   0.684
 3393TIP3   OH210119   4.475   4.157   6.462
 3393TIP3    H110120   4.564   4.156   6.425
 3393TIP3    H210121   4.482   4.106   6.542
 3394TIP3   OH210122   2.123   4.571   3.939
 3394TIP3    H110123   2.033   4.541   3.925
 3394TIP3    H210124   2.165   4.498   3.985
 3395TIP3   OH210125   1.272   0.701   4.877
 3395TIP3    H110126   1.280   0.631   4.940
 3395TIP3    H210127   1.352   0.752   4.887
 3396TIP3   OH210128   2.980   1.819   5.017
 3396TIP3    H110129   2.893   1.788   5.045
 3396TIP3    H210130   2.999   1.769   4.938
 3397TIP3   OH210131   3.456   4.863   5.347
 3397TIP3    H110132   3.424   4.837   5.261
 3397TIP3    H210133   3.519   4.795   5.371
 3398TIP3   OH210134   5.088   3.308   5.007
 3398TIP3    H110135   5.142   3.296   4.929
 3398TIP3    H210136   5.032   3.230   5.009
 3399TIP3   OH210137   4.280   5.353   1.081
 3399TIP3    H110138   4.326   5.335   1.163
 3399TIP3    H210139   4.280   5.269   1.034
 3400TIP3   OH210140   7.293   0.711   3.523
 3400TIP3    H110141   7.261   0.734   3.611
 3400TIP3    H210142   7.386   0.733   3.525
 3401TIP3   OH210143   2.766   3.375   0.845
 3401TIP3    H110144   2.694   3.439   0.842
 3401TIP3    H210145   2.725   3.291   0.824
 3402TIP3   OH210146   4.427   5.280   5.791
 3402TIP3    H110147   4.431   5.272   5.696
 3402TIP3    H210148   4.515   5.309   5.816
 3403TIP3   OH210149   6.313   0.149   1.518
 3403TIP3    H110150   6.389   0.107   1.477
 3403TIP3    H210151   6.315   0.240   1.486
 3404TIP3   OH210152   3.071   0.183   5.156
 3404TIP3    H110153   2.978   0.201   5.168
 3404TIP3    H210154   3.088   0.109   5.214
 3405TIP3   OH210155   6.320   7.625   3.974
 3405TIP3    H110156   6.232   7.613   3.936
 3405TIP3    H210157   6.329   7.551   4.034
 3406TIP3   OH210158   6.836   0.812   6.659
 3406TIP3    H110159   6.868   0.891   6.703
 3406TIP3    H210160   6.774   0.845   6.594
 3407TIP3   OH210161   1.037   3.498   5.012
 3407TIP3    H110162   1.063   3.420   4.964
 3407TIP3    H210163   1.080   3.489   5.097
 3408TIP3   OH210164   1.602   7.030   6.681
 3408TIP3    H110165   1.696   7.043   6.667
 3408TIP3    H210166   1.570   7.117   6.705
 3409TIP3   OH210167   7.685   1.110   4.236
 3409TIP3    H110168   7.734   1.067   4.167
 3409TIP3    H210169   7.747   1.118   4.309
 3410TIP3   OH210170   4.697   5.857   2.107
 3410TIP3    H110171   4.669   5.790   2.045
 3410TIP3    H210172   4.631   5.855   2.176
 3411TIP3   OH210173   6.860   2.730   2.315
 3411TIP3    H110174   6.772   2.724   2.350
 3411TIP3    H210175   6.904   2.651   2.346
 3412TIP3   OH210176   3.571   2.703   6.759
 3412TIP3    H110177   3.607   2.772   6.815
 3412TIP3    H210178   3.617   2.712   6.676
 3413TIP3   OH210179   4.691   2.081   6.577
 3413TIP3    H110180   4.650   2.108   6.496
 3413TIP3    H210181   4.775   2.127   6.579
 3414TIP3   OH210182   2.113   7.426   5.276
 3414TIP3    H110183   2.090   7.488   5.207
 3414TIP3    H210184   2.191   7.463   5.317
 3415TIP3   OH210185   3.907   2.841   0.574
 3415TIP3    H110186   3.968   2.908   0.544
 3415TIP3    H210187   3.822   2.868   0.541
 3416TIP3   OH210188   4.542   1.819   4.014
 3416TIP3    H110189   4.563   1.818   4.107
 3416TIP3    H210190   4.600   1.885   3.977
 3417TIP3   OH210191   1.397   1.216   1.941
 3417TIP3    H110192   1.406   1.239   1.848
 3417TIP3    H210193   1.324   1.269   1.972
 3418TIP3   OH210194   7.541   2.946   0.955
 3418TIP3    H110195   7.488   3.025   0.955
 3418TIP3    H210196   7.572   2.937   0.865
 3419TIP3   OH210197   8.132   5.739   3.279
 3419TIP3    H110198   8.057   5.681   3.267
 3419TIP3    H210199   8.093   5.824   3.298
 3420TIP3   OH210200   1.155   0.483   0.398
 3420TIP3    H110201   1.221   0.551   0.411
 3420TIP3    H210202   1.174   0.447   0.311
 3421TIP3   OH210203   3.811   5.538   1.995
 3421TIP3    H110204   3.720   5.566   1.990
 3421TIP3    H210205   3.861   5.607   1.951
 3422TIP3   OH210206   7.262   4.252   6.623
 3422TIP3    H110207   7.168   4.253   6.638
 3422TIP3    H210208   7.290   4.343   6.636
 3423TIP3   OH210209   7.405   7.235   4.191
 3423TIP3    H110210   7.386   7.164   4.130
 3423TIP3    H210211   7.455   7.298   4.140
 3424TIP3   OH210212   5.605   0.691   1.892
 3424TIP3    H110213   5.621   0.628   1.963
 3424TIP3    H210214   5.690   0.701   1.849
 3425TIP3   OH210215   0.155   3.317   1.835
 3425TIP3    H110216   0.251   3.322   1.837
 3425TIP3    H210217   0.127   3.408   1.827
 3426TIP3   OH210218   7.806   0.536   3.567
 3426TIP3    H110219   7.871   0.588   3.614
 3426TIP3    H210220   7.800   0.454   3.617
 3427TIP3   OH210221   7.133   1.803   5.996
 3427TIP3    H110222   7.086   1.870   5.945
 3427TIP3    H210223   7.066   1.738   6.017
 3428TIP3   OH210224   1.360   7.335   0.372
 3428TIP3    H110225   1.440   7.283   0.365
 3428TIP3    H210226   1.315   7.321   0.289
 3429TIP3   OH210227   6.814   2.942   5.494
 3429TIP3    H110228   6.903   2.912   5.475
 3429TIP3    H210229   6.757   2.885   5.442
 3430TIP3   OH210230   6.662   3.557   0.872
 3430TIP3    H110231   6.661   3.614   0.949
 3430TIP3    H210232   6.569   3.544   0.851
 3431TIP3   OH210233   3.110   2.458   5.118
 3431TIP3    H110234   3.019   2.441   5.094
 3431TIP3    H210235   3.116   2.553   5.126
 3432TIP3   OH210236   4.580   1.168   6.069
 3432TIP3    H110237   4.492   1.135   6.084
 3432TIP3    H210238   4.567   1.252   6.025
 3433TIP3   OH210239   6.814   4.389   3.459
 3433TIP3    H110240   6.906   4.395   3.432
 3433TIP3    H210241   6.780   4.478   3.447
 3434TIP3   OH210242   7.483   5.806   0.794
 3434TIP3    H110243   7.469   5.883   0.739
 3434TIP3    H210244   7.396   5.775   0.815
 3435TIP3   OH210245   7.717   2.676   6.852
 3435TIP3    H110246   7.804   2.644   6.828
 3435TIP3    H210247   7.666   2.667   6.771
 3436TIP3   OH210248   4.973   4.495   5.598
 3436TIP3    H110249   5.003   4.404   5.600
 3436TIP3    H210250   4.969   4.521   5.690
 3437TIP3   OH210251   2.082   7.334   5.715
 3437TIP3    H110252   2.133   7.257   5.691
 3437TIP3    H210253   1.991   7.307   5.705
 3438TIP3   OH210254   3.261   5.214   0.685
 3438TIP3    H110255   3.297   5.127   0.699
 3438TIP3    H210256   3.252   5.250   0.774
 3439TIP3   OH210257   3.474   4.255   4.064
 3439TIP3    H110258   3.475   4.228   3.972
 3439TIP3    H210259   3.382   4.247   4.089
 3440TIP3   OH210260   2.333   5.655   6.408
 3440TIP3    H110261   2.379   5.586   6.455
 3440TIP3    H210262   2.389   5.732   6.418
 3441TIP3   OH210263   5.467   1.135   3.325
 3441TIP3    H110264   5.508   1.141   3.411
 3441TIP3    H210265   5.422   1.219   3.315
 3442TIP3   OH210266   4.183   2.374   6.177
 3442TIP3    H110267   4.117   2.311   6.148
 3442TIP3    H210268   4.139   2.458   6.174
 3443TIP3   OH210269   0.108   6.992   3.888
 3443TIP3    H110270   0.131   7.065   3.831
 3443TIP3    H210271   0.183   6.983   3.947
 3444TIP3   OH210272   7.614   0.206   4.424
 3444TIP3    H110273   7.578   0.251   4.500
 3444TIP3    H210274   7.560   0.235   4.350
 3445TIP3   OH210275   0.297   2.161   6.701
 3445TIP3    H110276   0.301   2.171   6.796
 3445TIP3    H210277   0.265   2.246   6.669
 3446TIP3   OH210278   7.512   6.935   0.214
 3446TIP3    H110279   7.472   6.849   0.221
 3446TIP3    H210280   7.604   6.917   0.196
 3447TIP3   OH210281   6.801   3.890   3.268
 3447TIP3    H110282   6.808   3.888   3.173
 3447TIP3    H210283   6.716   3.850   3.287
 3448TIP3   OH210284   0.906   7.464   3.270
 3448TIP3    H110285   0.891   7.556   3.247
 3448TIP3    H210286   0.997   7.462   3.299
 3449TIP3   OH210287   7.670   2.272   1.418
 3449TIP3    H110288   7.647   2.359   1.451
 3449TIP3    H210289   7.679   2.284   1.324
 3450TIP3   OH210290   5.592   6.146   3.208
 3450TIP3    H110291   5.596   6.091   3.130
 3450TIP3    H210292   5.516   6.114   3.256
 3451TIP3   OH210293   6.823   6.655   6.216
 3451TIP3    H110294   6.740   6.703   6.207
 3451TIP3    H210295   6.856   6.680   6.302
 3452TIP3   OH210296   3.079   0.829   3.986
 3452TIP3    H110297   3.034   0.748   3.962
 3452TIP3    H210298   3.168   0.801   4.005
 3453TIP3   OH210299   3.297   7.410   4.179
 3453TIP3    H110300   3.312   7.494   4.135
 3453TIP3    H210301   3.235   7.431   4.248
 3454TIP3   OH210302   6.055   7.413   2.318
 3454TIP3    H110303   6.120   7.434   2.386
 3454TIP3    H210304   5.973   7.405   2.366
 3455TIP3   OH210305   7.829   2.350   1.821
 3455TIP3    H110306   7.799   2.433   1.784
 3455TIP3    H210307   7.897   2.320   1.760
 3456TIP3   OH210308   1.541   6.985   3.753
 3456TIP3    H110309   1.620   6.932   3.741
 3456TIP3    H210310   1.574   7.074   3.767
 3457TIP3   OH210311   2.271   4.484   4.648
 3457TIP3    H110312   2.225   4.554   4.602
 3457TIP3    H210313   2.363   4.499   4.628
 3458TIP3   OH210314   7.306   6.884   5.648
 3458TIP3    H110315   7.376   6.850   5.592
 3458TIP3    H210316   7.338   6.970   5.676
 3459TIP3   OH210317   0.307   7.742   0.485
 3459TIP3    H110318   0.254   7.757   0.563
 3459TIP3    H210319   0.396   7.766   0.511
 3460TIP3   OH210320   7.826   7.651   3.026
 3460TIP3    H110321   7.779   7.724   2.985
 3460TIP3    H210322   7.886   7.621   2.958
 3461TIP3   OH210323   7.952   2.818   1.341
 3461TIP3    H110324   8.037   2.775   1.341
 3461TIP3    H210325   7.938   2.845   1.250
 3462TIP3   OH210326   2.072   1.078   1.376
 3462TIP3    H110327   2.006   1.011   1.365
 3462TIP3    H210328   2.058   1.112   1.465
 3463TIP3   OH210329   4.613   2.266   5.486
 3463TIP3    H110330   4.574   2.230   5.565
 3463TIP3    H210331   4.597   2.200   5.418
 3464TIP3   OH210332   6.292   7.085   4.921
 3464TIP3    H110333   6.333   7.058   5.004
 3464TIP3    H210334   6.329   7.172   4.905
 3465TIP3   OH210335   5.174   5.130   3.389
 3465TIP3    H110336   5.259   5.168   3.369
 3465TIP3    H210337   5.113   5.203   3.384
 3466TIP3   OH210338   5.432   5.615   6.823
 3466TIP3    H110339   5.393   5.530   6.802
 3466TIP3    H210340   5.420   5.668   6.743
 3467TIP3   OH210341   2.725   0.710   6.032
 3467TIP3    H110342   2.642   0.702   5.986
 3467TIP3    H210343   2.776   0.772   5.979
 3468TIP3   OH210344   3.753   2.724   2.243
 3468TIP3    H110345   3.711   2.807   2.222
 3468TIP3    H210346   3.842   2.734   2.210
 3469TIP3   OH210347   4.129   0.586   3.898
 3469TIP3    H110348   4.186   0.661   3.879
 3469TIP3    H210349   4.080   0.614   3.976
 3470TIP3   OH210350   1.335   5.456   2.147
 3470TIP3    H110351   1.247   5.461   2.183
 3470TIP3    H210352   1.345   5.538   2.098
 3471TIP3   OH210353   5.757   1.885   0.685
 3471TIP3    H110354   5.765   1.848   0.773
 3471TIP3    H210355   5.797   1.819   0.628
 3472TIP3   OH210356   4.818   3.505   3.669
 3472TIP3    H110357   4.793   3.430   3.723
 3472TIP3    H210358   4.886   3.472   3.611
 3473TIP3   OH210359   2.433   3.590   1.628
 3473TIP3    H110360   2.429   3.584   1.532
 3473TIP3    H210361   2.447   3.683   1.645
 3474TIP3   OH210362   3.590   2.635   5.904
 3474TIP3    H110363   3.572   2.629   5.998
 3474TIP3    H210364   3.631   2.720   5.893
 3475TIP3   OH210365   0.882   2.023   0.486
 3475TIP3    H110366   0.932   2.003   0.407
 3475TIP3    H210367   0.845   1.938   0.513
 3476TIP3   OH210368   5.005   5.394   3.609
 3476TIP3    H110369   4.911   5.406   3.621
 3476TIP3    H210370   5.045   5.471   3.651
 3477TIP3   OH210371   6.896   2.944   4.073
 3477TIP3    H110372   6.949   3.015   4.109
 3477TIP3    H210373   6.838   2.919   4.145
 3478TIP3   OH210374   0.691   6.278   3.222
 3478TIP3    H110375   0.728   6.350   3.171
 3478TIP3    H210376   0.726   6.291   3.311
 3479TIP3   OH210377   3.106   0.398   1.749
 3479TIP3    H110378   3.142   0.464   1.691
 3479TIP3    H210379   3.172   0.329   1.752
 3480TIP3   OH210380   0.386   1.455   3.926
 3480TIP3    H110381   0.438   1.498   3.995
 3480TIP3    H210382   0.295   1.468   3.953
 3481TIP3   OH210383   6.897   0.509   4.900
 3481TIP3    H110384   6.923   0.426   4.941
 3481TIP3    H210385   6.804   0.518   4.921
 3482TIP3   OH210386   8.242   7.236   1.407
 3482TIP3    H110387   8.190   7.182   1.466
 3482TIP3    H210388   8.291   7.174   1.353
 3483TIP3   OH210389   4.753   5.739   6.299
 3483TIP3    H110390   4.727   5.680   6.369
 3483TIP3    H210391   4.680   5.800   6.291
 3484TIP3   OH210392   6.124   0.170   2.452
 3484TIP3    H110393   6.035   0.199   2.474
 3484TIP3    H210394   6.129   0.175   2.357
 3485TIP3   OH210395   4.086   2.889   5.891
 3485TIP3    H110396   4.010   2.870   5.835
 3485TIP3    H210397   4.069   2.976   5.926
 3486TIP3   OH210398   6.829   3.973   1.998
 3486TIP3    H110399   6.908   3.974   2.052
 3486TIP3    H210400   6.771   4.037   2.040
 3487TIP3   OH210401   5.674   4.306   3.829
 3487TIP3    H110402   5.669   4.373   3.761
 3487TIP3    H210403   5.689   4.355   3.910
 3488TIP3   OH210404   2.847   7.583   6.152
 3488TIP3    H110405   2.860   7.638   6.228
 3488TIP3    H210406   2.806   7.504   6.186
 3489TIP3   OH210407   7.950   2.990   4.544
 3489TIP3    H110408   7.979   2.923   4.483
 3489TIP3    H210409   8.028   3.042   4.563
 3490TIP3   OH210410   2.285   6.398   3.678
 3490TIP3    H110411   2.379   6.396   3.662
 3490TIP3    H210412   2.252   6.469   3.624
 3491TIP3   OH210413   7.406   1.894   4.092
 3491TIP3    H110414   7.409   1.964   4.026
 3491TIP3    H210415   7.323   1.907   4.138
 3492TIP3   OH210416   8.236   1.614   4.404
 3492TIP3    H110417   8.161   1.563   4.375
 3492TIP3    H210418   8.219   1.631   4.497
 3493TIP3   OH210419   4.749   7.058   2.946
 3493TIP3    H110420   4.716   7.147   2.952
 3493TIP3    H210421   4.762   7.043   2.852
 3494TIP3   OH210422   1.791   7.879   4.184
 3494TIP3    H110423   1.797   7.964   4.138
 3494TIP3    H210424   1.720   7.890   4.246
 3495TIP3   OH210425   4.728   5.584   2.329
 3495TIP3    H110426   4.725   5.553   2.239
 3495TIP3    H210427   4.798   5.649   2.330
 3496TIP3   OH210428   4.866   1.455   3.367
 3496TIP3    H110429   4.817   1.525   3.410
 3496TIP3    H210430   4.958   1.480   3.378
 3497TIP3   OH210431   6.233   4.205   1.931
 3497TIP3    H110432   6.215   4.225   1.839
 3497TIP3    H210433   6.219   4.288   1.976
 3498TIP3   OH210434   4.601   5.752   0.117
 3498TIP3    H110435   4.547   5.680   0.083
 3498TIP3    H210436   4.577   5.758   0.210
 3499TIP3   OH210437   4.847   5.676   6.045
 3499TIP3    H110438   4.778   5.704   5.986
 3499TIP3    H210439   4.812   5.692   6.133
 3500TIP3   OH210440   7.044   7.045   4.923
 3500TIP3    H110441   7.138   7.054   4.912
 3500TIP3    H210442   7.028   6.950   4.917
 3501TIP3   OH210443   1.723   3.977   6.769
 3501TIP3    H110444   1.818   3.968   6.760
 3501TIP3    H210445   1.706   4.070   6.757
 3502TIP3   OH210446   7.296   4.188   4.476
 3502TIP3    H110447   7.360   4.259   4.468
 3502TIP3    H210448   7.293   4.169   4.570
 3503TIP3   OH210449   1.751   2.124   0.094
 3503TIP3    H110450   1.772   2.079   0.176
 3503TIP3    H210451   1.834   2.126   0.046
 3504TIP3   OH210452   3.268   7.720   2.868
 3504TIP3    H110453   3.211   7.689   2.939
 3504TIP3    H210454   3.357   7.711   2.902
 3505TIP3   OH210455   1.659   4.283   3.097
 3505TIP3    H110456   1.613   4.318   3.021
 3505TIP3    H210457   1.706   4.358   3.134
 3506TIP3   OH210458   6.651   4.495   3.234
 3506TIP3    H110459   6.570   4.524   3.192
 3506TIP3    H210460   6.625   4.420   3.287
 3507TIP3   OH210461   3.183   0.984   1.678
 3507TIP3    H110462   3.154   0.893   1.684
 3507TIP3    H210463   3.178   1.005   1.585
 3508TIP3   OH210464   2.401   5.069   2.678
 3508TIP3    H110465   2.402   5.152   2.631
 3508TIP3    H210466   2.489   5.034   2.666
 3509TIP3   OH210467   5.580   6.069   1.136
 3509TIP3    H110468   5.502   6.122   1.150
 3509TIP3    H210469   5.653   6.130   1.141
 3510TIP3   OH210470   5.137   0.588   4.427
 3510TIP3    H110471   5.135   0.683   4.413
 3510TIP3    H210472   5.125   0.551   4.340
 3511TIP3   OH210473   5.397   6.155   5.724
 3511TIP3    H110474   5.402   6.234   5.669
 3511TIP3    H210475   5.429   6.085   5.668
 3512TIP3   OH210476   5.641   2.531   2.212
 3512TIP3    H110477   5.718   2.537   2.155
 3512TIP3    H210478   5.673   2.556   2.298
 3513TIP3   OH210479   1.535   6.800   6.786
 3513TIP3    H110480   1.551   6.889   6.754
 3513TIP3    H210481   1.563   6.743   6.714
 3514TIP3   OH210482   8.079   2.538   5.626
 3514TIP3    H110483   8.000   2.487   5.641
 3514TIP3    H210484   8.139   2.513   5.696
 3515TIP3   OH210485   7.914   2.683   3.431
 3515TIP3    H110486   7.844   2.729   3.384
 3515TIP3    H210487   7.991   2.692   3.374
 3516TIP3   OH210488   4.793   6.337   5.094
 3516TIP3    H110489   4.845   6.257   5.100
 3516TIP3    H210490   4.833   6.387   5.024
 3517TIP3   OH210491   6.113   6.709   0.590
 3517TIP3    H110492   6.073   6.656   0.659
 3517TIP3    H210493   6.123   6.796   0.629
 3518TIP3   OH210494   5.965   1.615   0.906
 3518TIP3    H110495   6.045   1.646   0.948
 3518TIP3    H210496   5.897   1.674   0.940
 3519TIP3   OH210497   6.406   6.968   1.299
 3519TIP3    H110498   6.460   6.941   1.373
 3519TIP3    H210499   6.381   6.886   1.256
 3520TIP3   OH210500   4.306   6.106   1.011
 3520TIP3    H110501   4.237   6.146   0.958
 3520TIP3    H210502   4.363   6.062   0.948
 3521TIP3   OH210503   2.300   4.613   6.539
 3521TIP3    H110504   2.363   4.558   6.586
 3521TIP3    H210505   2.256   4.553   6.478
 3522TIP3   OH210506   5.800   0.910   5.628
 3522TIP3    H110507   5.873   0.848   5.631
 3522TIP3    H210508   5.801   0.944   5.539
 3523TIP3   OH210509   8.044   5.613   1.929
 3523TIP3    H110510   7.950   5.630   1.934
 3523TIP3    H210511   8.084   5.699   1.917
 3524TIP3   OH210512   4.642   1.551   2.267
 3524TIP3    H110513   4.661   1.465   2.304
 3524TIP3    H210514   4.663   1.613   2.337
 3525TIP3   OH210515   2.524   7.222   1.157
 3525TIP3    H110516   2.585   7.153   1.185
 3525TIP3    H210517   2.484   7.253   1.239
 3526TIP3   OH210518   4.276   4.926   6.847
 3526TIP3    H110519   4.275   4.842   6.893
 3526TIP3    H210520   4.358   4.968   6.875
 3527TIP3   OH210521   8.136   6.975   3.597
 3527TIP3    H110522   8.130   6.879   3.592
 3527TIP3    H210523   8.225   6.995   3.569
 3528TIP3   OH210524   1.379   4.864   5.150
 3528TIP3    H110525   1.330   4.941   5.181
 3528TIP3    H210526   1.471   4.888   5.160
 3529TIP3   OH210527   7.493   2.058   0.105
 3529TIP3    H110528   7.525   2.148   0.099
 3529TIP3    H210529   7.504   2.034   0.197
 3530TIP3   OH210530   7.526   6.970   5.020
 3530TIP3    H110531   7.497   6.885   5.053
 3530TIP3    H210532   7.552   7.018   5.099
 3531TIP3   OH210533   2.372   7.500   3.317
 3531TIP3    H110534   2.318   7.442   3.262
 3531TIP3    H210535   2.312   7.532   3.384
 3532TIP3   OH210536   5.938   6.688   4.856
 3532TIP3    H110537   5.862   6.705   4.802
 3532TIP3    H210538   5.964   6.774   4.889
 3533TIP3   OH210539   1.911   4.170   5.600
 3533TIP3    H110540   1.874   4.125   5.676
 3533TIP3    H210541   2.005   4.150   5.605
 3534TIP3   OH210542   3.509   0.293   2.640
 3534TIP3    H110543   3.489   0.382   2.668
 3534TIP3    H210544   3.463   0.283   2.556
 3535TIP3   OH210545   2.590   7.920   0.655
 3535TIP3    H110546   2.681   7.893   0.649
 3535TIP3    H210547   2.542   7.852   0.608
 3536TIP3   OH210548   1.993   7.002   3.588
 3536TIP3    H110549   1.924   7.005   3.522
 3536TIP3    H210550   2.037   6.918   3.573
 3537TIP3   OH210551   5.185   1.994   4.915
 3537TIP3    H110552   5.172   1.901   4.936
 3537TIP3    H210553   5.103   2.021   4.874
 3538TIP3   OH210554   0.770   2.961   5.222
 3538TIP3    H110555   0.832   2.933   5.156
 3538TIP3    H210556   0.741   2.880   5.264
 3539TIP3   OH210557   3.440   7.497   3.517
 3539TIP3    H110558   3.525   7.460   3.541
 3539TIP3    H210559   3.381   7.422   3.511
 3540TIP3   OH210560   3.548   7.615   1.375
 3540TIP3    H110561   3.459   7.604   1.406
 3540TIP3    H210562   3.603   7.604   1.453
 3541TIP3   OH210563   5.153   3.432   0.112
 3541TIP3    H110564   5.248   3.420   0.119
 3541TIP3    H210565   5.125   3.368   0.047
 3542TIP3   OH210566   5.061   7.612   5.328
 3542TIP3    H110567   5.045   7.543   5.392
 3542TIP3    H210568   5.151   7.598   5.299
 3543TIP3   OH210569   0.584   6.303   6.451
 3543TIP3    H110570   0.518   6.362   6.488
 3543TIP3    H210571   0.656   6.360   6.425
 3544TIP3   OH210572   6.508   5.359   3.655
 3544TIP3    H110573   6.522   5.327   3.565
 3544TIP3    H210574   6.596   5.378   3.687
 3545TIP3   OH210575   7.989   6.480   4.725
 3545TIP3    H110576   8.064   6.440   4.681
 3545TIP3    H210577   7.913   6.433   4.690
 3546TIP3   OH210578   4.925   7.359   6.493
 3546TIP3    H110579   4.996   7.422   6.481
 3546TIP3    H210580   4.893   7.376   6.582
 3547TIP3   OH210581   1.380   7.106   4.312
 3547TIP3    H110582   1.391   7.078   4.221
 3547TIP3    H210583   1.358   7.026   4.360
 3548TIP3   OH210584   1.852   4.971   4.011
 3548TIP3    H110585   1.787   4.901   4.010
 3548TIP3    H210586   1.931   4.932   3.975
 3549TIP3   OH210587   2.224   2.503   1.001
 3549TIP3    H110588   2.266   2.572   0.950
 3549TIP3    H210589   2.191   2.548   1.079
 3550TIP3   OH210590   6.436   2.893   1.656
 3550TIP3    H110591   6.421   2.940   1.574
 3550TIP3    H210592   6.350   2.886   1.696
 3551TIP3   OH210593   2.770   0.432   0.133
 3551TIP3    H110594   2.715   0.462   0.206
 3551TIP3    H210595   2.853   0.476   0.145
 3552TIP3   OH210596   1.848   4.505   6.681
 3552TIP3    H110597   1.796   4.454   6.619
 3552TIP3    H210598   1.848   4.452   6.761
 3553TIP3   OH210599   5.029   4.701   5.398
 3553TIP3    H110600   5.065   4.660   5.319
 3553TIP3    H210601   5.000   4.627   5.452
 3554TIP3   OH210602   5.016   0.813   5.132
 3554TIP3    H110603   5.070   0.820   5.053
 3554TIP3    H210604   5.049   0.883   5.189
 3555TIP3   OH210605   1.496   6.959   5.761
 3555TIP3    H110606   1.435   7.028   5.737
 3555TIP3    H210607   1.509   6.970   5.856
 3556TIP3   OH210608   6.330   0.579   6.206
 3556TIP3    H110609   6.332   0.670   6.177
 3556TIP3    H210610   6.284   0.532   6.136
 3557TIP3   OH210611   3.229   1.589   1.298
 3557TIP3    H110612   3.150   1.560   1.252
 3557TIP3    H210613   3.295   1.599   1.229
 3558TIP3   OH210614   6.197   4.708   0.634
 3558TIP3    H110615   6.275   4.656   0.615
 3558TIP3    H210616   6.210   4.790   0.586
 3559TIP3   OH210617   5.426   5.720   0.792
 3559TIP3    H110618   5.401   5.808   0.820
 3559TIP3    H210619   5.380   5.707   0.709
 3560TIP3   OH210620   6.315   6.149   0.433
 3560TIP3    H110621   6.226   6.140   0.396
 3560TIP3    H210622   6.354   6.220   0.382
 3561TIP3   OH210623   5.246   4.612   6.216
 3561TIP3    H110624   5.303   4.535   6.220
 3561TIP3    H210625   5.278   4.669   6.287
 3562TIP3   OH210626   7.739   6.248   6.777
 3562TIP3    H110627   7.703   6.327   6.737
 3562TIP3    H210628   7.665   6.206   6.820
 3563TIP3   OH210629   8.313   6.562   0.082
 3563TIP3    H110630   8.303   6.479   0.037
 3563TIP3    H210631   8.223   6.597   0.088
 3564TIP3   OH210632   0.158   4.362   6.169
 3564TIP3    H110633   0.066   4.374   6.145
 3564TIP3    H210634   0.191   4.300   6.104
 3565TIP3   OH210635   5.930   7.819   5.531
 3565TIP3    H110636   5.989   7.776   5.593
 3565TIP3    H210637   5.941   7.770   5.450
 3566TIP3   OH210638   5.808   4.641   2.795
 3566TIP3    H110639   5.759   4.561   2.779
 3566TIP3    H210640   5.899   4.618   2.776
 3567TIP3   OH210641   0.642   3.936   4.668
 3567TIP3    H110642   0.641   3.862   4.607
 3567TIP3    H210643   0.729   3.974   4.657
 3568TIP3   OH210644   5.649   6.852   1.350
 3568TIP3    H110645   5.633   6.825   1.259
 3568TIP3    H210646   5.739   6.827   1.367
 3569TIP3   OH210647   6.648   6.123   4.433
 3569TIP3    H110648   6.626   6.062   4.503
 3569TIP3    H210649   6.737   6.152   4.453
 3570TIP3   OH210650   0.057   5.856   3.847
 3570TIP3    H110651   0.112   5.894   3.916
 3570TIP3    H210652   0.024   5.931   3.798
 3571TIP3   OH210653   6.509   4.111   5.861
 3571TIP3    H110654   6.568   4.041   5.834
 3571TIP3    H210655   6.567   4.178   5.897
 3572TIP3   OH210656   2.426   4.669   4.469
 3572TIP3    H110657   2.366   4.635   4.403
 3572TIP3    H210658   2.504   4.693   4.420
 3573TIP3   OH210659   2.616   1.947   3.824
 3573TIP3    H110660   2.602   2.040   3.805
 3573TIP3    H210661   2.604   1.903   3.740
 3574TIP3   OH210662   3.208   3.434   4.103
 3574TIP3    H110663   3.224   3.406   4.193
 3574TIP3    H210664   3.277   3.391   4.052
 3575TIP3   OH210665   3.663   3.119   0.777
 3575TIP3    H110666   3.752   3.151   0.791
 3575TIP3    H210667   3.674   3.027   0.755
 3576TIP3   OH210668   6.598   7.033   3.548
 3576TIP3    H110669   6.544   6.961   3.582
 3576TIP3    H210670   6.662   7.050   3.617
 3577TIP3   OH210671   2.185   5.929   1.140
 3577TIP3    H110672   2.223   5.847   1.109
 3577TIP3    H210673   2.135   5.905   1.217
 3578TIP3   OH210674   1.541   0.748   4.569
 3578TIP3    H110675   1.570   0.675   4.514
 3578TIP3    H210676   1.511   0.707   4.650
 3579TIP3   OH210677   3.869   2.670   2.660
 3579TIP3    H110678   3.902   2.716   2.737
 3579TIP3    H210679   3.844   2.741   2.600
 3580TIP3   OH210680   7.644   2.431   4.539
 3580TIP3    H110681   7.719   2.486   4.563
 3580TIP3    H210682   7.610   2.470   4.458
 3581TIP3   OH210683   7.033   3.034   2.124
 3581TIP3    H110684   6.951   2.983   2.126
 3581TIP3    H210685   7.090   2.988   2.186
 3582TIP3   OH210686   5.145   0.528   0.440
 3582TIP3    H110687   5.126   0.586   0.367
 3582TIP3    H210688   5.235   0.499   0.425
 3583TIP3   OH210689   6.905   1.114   5.271
 3583TIP3    H110690   6.927   1.128   5.363
 3583TIP3    H210691   6.968   1.048   5.241
 3584TIP3   OH210692   4.874   1.148   4.895
 3584TIP3    H110693   4.902   1.188   4.813
 3584TIP3    H210694   4.904   1.057   4.889
 3585TIP3   OH210695   6.374   2.930   0.527
 3585TIP3    H110696   6.446   2.963   0.581
 3585TIP3    H210697   6.340   3.008   0.483
 3586TIP3   OH210698   1.080   7.360   3.581
 3586TIP3    H110699   1.157   7.307   3.602
 3586TIP3    H210700   1.092   7.384   3.489
 3587TIP3   OH210701   3.172   4.810   6.724
 3587TIP3    H110702   3.167   4.786   6.816
 3587TIP3    H210703   3.086   4.789   6.689
 3588TIP3   OH210704   6.210   7.811   1.779
 3588TIP3    H110705   6.248   7.898   1.792
 3588TIP3    H210706   6.141   7.824   1.714
 3589TIP3   OH210707   1.818   1.359   4.468
 3589TIP3    H110708   1.780   1.403   4.392
 3589TIP3    H210709   1.868   1.286   4.431
 3590TIP3   OH210710   0.293   1.789   1.123
 3590TIP3    H110711   0.332   1.828   1.201
 3590TIP3    H210712   0.273   1.864   1.066
 3591TIP3   OH210713   0.026   7.577   5.517
 3591TIP3    H110714  -0.010   7.652   5.566
 3591TIP3    H210715  -0.015   7.583   5.431
 3592TIP3   OH210716   7.254   4.137   4.730
 3592TIP3    H110717   7.159   4.127   4.726
 3592TIP3    H210718   7.280   4.083   4.805
 3593TIP3   OH210719   6.757   0.742   5.893
 3593TIP3    H110720   6.701   0.737   5.970
 3593TIP3    H210721   6.712   0.803   5.834
 3594TIP3   OH210722   7.180   6.572   6.864
 3594TIP3    H110723   7.227   6.614   6.792
 3594TIP3    H210724   7.173   6.480   6.839
 3595TIP3   OH210725   0.056   3.908   3.736
 3595TIP3    H110726   0.109   3.856   3.796
 3595TIP3    H210727   0.115   3.933   3.666
 3596TIP3   OH210728   0.031   3.824   0.448
 3596TIP3    H110729   0.069   3.828   0.536
 3596TIP3    H210730  -0.051   3.778   0.459
 3597TIP3   OH210731   7.855   2.581   6.238
 3597TIP3    H110732   7.854   2.615   6.148
 3597TIP3    H210733   7.914   2.505   6.234
 3598TIP3   OH210734   7.594   0.135   2.963
 3598TIP3    H110735   7.535   0.208   2.981
 3598TIP3    H210736   7.669   0.151   3.020
 3599TIP3   OH210737   6.285   6.421   5.778
 3599TIP3    H110738   6.228   6.494   5.755
 3599TIP3    H210739   6.226   6.346   5.786
 3600TIP3   OH210740   3.491   5.967   5.692
 3600TIP3    H110741   3.469   6.035   5.628
 3600TIP3    H210742   3.407   5.927   5.714
 3601TIP3   OH210743   6.443   4.208   5.117
 3601TIP3    H110744   6.423   4.116   5.101
 3601TIP3    H210745   6.364   4.243   5.159
 3602TIP3   OH210746   7.267   6.552   3.007
 3602TIP3    H110747   7.268   6.646   3.027
 3602TIP3    H210748   7.358   6.525   3.010
 3603TIP3   OH210749   2.893   5.749   4.271
 3603TIP3    H110750   2.813   5.702   4.246
 3603TIP3    H210751   2.941   5.688   4.327
 3604TIP3   OH210752   2.220   2.923   6.134
 3604TIP3    H110753   2.288   2.902   6.199
 3604TIP3    H210754   2.148   2.864   6.155
 3605TIP3   OH210755   1.629   3.601   6.563
 3605TIP3    H110756   1.723   3.607   6.544
 3605TIP3    H210757   1.624   3.597   6.658
 3606TIP3   OH210758   6.682   7.286   5.905
 3606TIP3    H110759   6.756   7.329   5.946
 3606TIP3    H210760   6.619   7.272   5.976
 3607TIP3   OH210761   0.107   0.944   6.719
 3607TIP3    H110762   0.119   0.988   6.635
 3607TIP3    H210763   0.056   0.866   6.698
 3608TIP3   OH210764   0.385   0.892   4.997
 3608TIP3    H110765   0.306   0.945   5.009
 3608TIP3    H210766   0.442   0.919   5.070
 3609TIP3   OH210767   6.202   2.301   1.650
 3609TIP3    H110768   6.111   2.285   1.675
 3609TIP3    H210769   6.198   2.373   1.587
 3610TIP3   OH210770   7.114   0.377   4.806
 3610TIP3    H110771   7.179   0.393   4.875
 3610TIP3    H210772   7.056   0.453   4.810
 3611TIP3   OH210773   1.036   7.337   3.883
 3611TIP3    H110774   1.082   7.333   3.799
 3611TIP3    H210775   0.988   7.254   3.887
 3612TIP3   OH210776   4.944   3.418   4.379
 3612TIP3    H110777   4.873   3.355   4.398
 3612TIP3    H210778   4.996   3.375   4.312
 3613TIP3   OH210779   6.098   7.272   4.713
 3613TIP3    H110780   6.089   7.209   4.783
 3613TIP3    H210781   6.063   7.354   4.749
 3614TIP3   OH210782   0.447   3.657   3.465
 3614TIP3    H110783   0.485   3.653   3.377
 3614TIP3    H210784   0.380   3.725   3.458
 3615TIP3   OH210785   0.135   6.694   0.174
 3615TIP3    H110786   0.059   6.638   0.157
 3615TIP3    H210787   0.161   6.725   0.088
 3616TIP3   OH210788   1.738   0.602   0.376
 3616TIP3    H110789   1.699   0.628   0.459
 3616TIP3    H210790   1.663   0.582   0.319
 3617TIP3   OH210791   3.443   0.297   5.151
 3617TIP3    H110792   3.399   0.354   5.088
 3617TIP3    H210793   3.424   0.335   5.237
 3618TIP3   OH210794   7.747   5.160   1.873
 3618TIP3    H110795   7.657   5.135   1.897
 3618TIP3    H210796   7.755   5.251   1.901
 3619TIP3   OH210797   5.208   4.880   4.020
 3619TIP3    H110798   5.222   4.974   4.010
 3619TIP3    H210799   5.174   4.870   4.109
 3620TIP3   OH210800   1.452   5.535   5.471
 3620TIP3    H110801   1.468   5.598   5.540
 3620TIP3    H210802   1.379   5.482   5.502
 3621TIP3   OH210803   6.113   2.846   0.636
 3621TIP3    H110804   6.043   2.809   0.581
 3621TIP3    H210805   6.191   2.841   0.582
 3622TIP3   OH210806   2.208   0.343   6.392
 3622TIP3    H110807   2.211   0.249   6.406
 3622TIP3    H210808   2.299   0.371   6.393
 3623TIP3   OH210809   6.936   6.819   6.034
 3623TIP3    H110810   6.905   6.748   6.090
 3623TIP3    H210811   6.856   6.861   6.002
 3624TIP3   OH210812   5.479   1.617   6.646
 3624TIP3    H110813   5.520   1.624   6.732
 3624TIP3    H210814   5.392   1.580   6.663
 3625TIP3   OH210815   0.966   1.932   5.737
 3625TIP3    H110816   0.984   1.946   5.830
 3625TIP3    H210817   0.912   2.007   5.712
 3626TIP3   OH210818   3.519   6.126   3.614
 3626TIP3    H110819   3.549   6.045   3.572
 3626TIP3    H210820   3.599   6.163   3.653
 3627TIP3   OH210821   0.712   0.024   0.850
 3627TIP3    H110822   0.676   0.053   0.933
 3627TIP3    H210823   0.804   0.007   0.868
 3628TIP3   OH210824   2.429   2.236   4.357
 3628TIP3    H110825   2.470   2.152   4.339
 3628TIP3    H210826   2.350   2.236   4.303
 3629TIP3   OH210827   1.605   2.572   2.481
 3629TIP3    H110828   1.585   2.593   2.390
 3629TIP3    H210829   1.612   2.657   2.525
 3630TIP3   OH210830   0.459   4.350   3.887
 3630TIP3    H110831   0.502   4.377   3.806
 3630TIP3    H210832   0.373   4.318   3.859
 3631TIP3   OH210833   1.526   6.251   0.044
 3631TIP3    H110834   1.537   6.228  -0.049
 3631TIP3    H210835   1.610   6.233   0.084
 3632TIP3   OH210836   0.605   3.690   1.924
 3632TIP3    H110837   0.627   3.648   2.007
 3632TIP3    H210838   0.658   3.770   1.923
 3633TIP3   OH210839   1.552   2.837   4.315
 3633TIP3    H110840   1.644   2.820   4.294
 3633TIP3    H210841   1.503   2.789   4.248
 3634TIP3   OH210842   7.447   1.390   5.495
 3634TIP3    H110843   7.484   1.376   5.582
 3634TIP3    H210844   7.481   1.476   5.468
 3635TIP3   OH210845   0.024   5.397   2.801
 3635TIP3    H110846  -0.056   5.442   2.776
 3635TIP3    H210847   0.010   5.372   2.892
 3636TIP3   OH210848   8.272   0.164   4.814
 3636TIP3    H110849   8.222   0.184   4.735
 3636TIP3    H210850   8.239   0.079   4.842
 3637TIP3   OH210851   3.485   7.292   1.599
 3637TIP3    H110852   3.404   7.293   1.650
 3637TIP3    H210853   3.462   7.332   1.515
 3638TIP3   OH210854   8.230   0.920   0.122
 3638TIP3    H110855   8.208   0.901   0.213
 3638TIP3    H210856   8.169   0.990   0.098
 3639TIP3   OH210857   3.310   5.354   2.050
 3639TIP3    H110858   3.335   5.387   2.137
 3639TIP3    H210859   3.251   5.420   2.015
 3640TIP3   OH210860   1.038   3.928   1.370
 3640TIP3    H110861   0.991   3.855   1.332
 3640TIP3    H210862   1.129   3.899   1.374
 3641TIP3   OH210863   1.182   1.081   2.787
 3641TIP3    H110864   1.086   1.082   2.777
 3641TIP3    H210865   1.196   1.047   2.875
 3642TIP3   OH210866   0.732   2.964   1.717
 3642TIP3    H110867   0.686   3.021   1.655
 3642TIP3    H210868   0.793   3.022   1.763
 3643TIP3   OH210869   6.555   6.774   5.362
 3643TIP3    H110870   6.631   6.809   5.407
 3643TIP3    H210871   6.485   6.775   5.428
 3644TIP3   OH210872   5.336   7.497   2.829
 3644TIP3    H110873   5.288   7.424   2.789
 3644TIP3    H210874   5.329   7.480   2.923
 3645TIP3   OH210875   5.467   2.589   6.530
 3645TIP3    H110876   5.376   2.581   6.503
 3645TIP3    H210877   5.468   2.663   6.591
 3646TIP3   OH210878   1.296   4.357   2.723
 3646TIP3    H110879   1.320   4.333   2.633
 3646TIP3    H210880   1.201   4.368   2.720
 3647TIP3   OH210881   0.441   7.132   0.667
 3647TIP3    H110882   0.354   7.162   0.694
 3647TIP3    H210883   0.484   7.211   0.633
 3648TIP3   OH210884   3.102   5.642   0.546
 3648TIP3    H110885   3.058   5.596   0.474
 3648TIP3    H210886   3.184   5.595   0.558
 3649TIP3   OH210887   6.226   0.469   5.953
 3649TIP3    H110888   6.141   0.504   5.978
 3649TIP3    H210889   6.210   0.420   5.872
 3650TIP3   OH210890   8.321   5.752   0.380
 3650TIP3    H110891   8.378   5.820   0.415
 3650TIP3    H210892   8.337   5.676   0.436
 3651TIP3   OH210893   2.151   0.450   6.661
 3651TIP3    H110894   2.229   0.505   6.651
 3651TIP3    H210895   2.151   0.394   6.583
 3652TIP3   OH210896   3.821   2.178   1.560
 3652TIP3    H110897   3.870   2.224   1.493
 3652TIP3    H210898   3.739   2.153   1.517
 3653TIP3   OH210899   4.294   3.591   0.198
 3653TIP3    H110900   4.344   3.611   0.119
 3653TIP3    H210901   4.247   3.510   0.178
 3654TIP3   OH210902   8.020   5.483   3.335
 3654TIP3    H110903   8.071   5.417   3.289
 3654TIP3    H210904   8.054   5.481   3.425
 3655TIP3   OH210905   4.347   5.326   3.138
 3655TIP3    H110906   4.300   5.406   3.160
 3655TIP3    H210907   4.408   5.351   3.068
 3656TIP3   OH210908   2.749   5.762   1.336
 3656TIP3    H110909   2.674   5.759   1.276
 3656TIP3    H210910   2.710   5.760   1.423
 3657TIP3   OH210911   8.030   1.464   5.891
 3657TIP3    H110912   8.076   1.418   5.821
 3657TIP3    H210913   8.068   1.430   5.971
 3658TIP3   OH210914   2.138   6.184   6.115
 3658TIP3    H110915   2.043   6.193   6.123
 3658TIP3    H210916   2.171   6.274   6.115
 3659TIP3   OH210917   7.674   7.249   1.461
 3659TIP3    H110918   7.763   7.281   1.444
 3659TIP3    H210919   7.687   7.175   1.521
 3660TIP3   OH210920   0.528   0.193   4.014
 3660TIP3    H110921   0.577   0.197   3.931
 3660TIP3    H210922   0.467   0.267   4.008
 3661TIP3   OH210923   7.745   1.278   4.960
 3661TIP3    H110924   7.788   1.363   4.972
 3661TIP3    H210925   7.743   1.265   4.865
 3662TIP3   OH210926   0.435   3.810   5.769
 3662TIP3    H110927   0.386   3.773   5.697
 3662TIP3    H210928   0.444   3.738   5.832
 3663TIP3   OH210929   6.749   3.889   1.000
 3663TIP3    H110930   6.817   3.918   0.938
 3663TIP3    H210931   6.707   3.970   1.029
 3664TIP3   OH210932   5.164   5.438   4.076
 3664TIP3    H110933   5.130   5.459   3.989
 3664TIP3    H210934   5.249   5.483   4.080
 3665TIP3   OH210935   5.422   3.006   4.468
 3665TIP3    H110936   5.333   2.978   4.445
 3665TIP3    H210937   5.473   2.926   4.470
 3666TIP3   OH210938   5.907   3.131   4.746
 3666TIP3    H110939   5.980   3.185   4.716
 3666TIP3    H210940   5.903   3.147   4.840
 3667TIP3   OH210941   5.452   0.758   1.655
 3667TIP3    H110942   5.504   0.741   1.734
 3667TIP3    H210943   5.513   0.745   1.583
 3668TIP3   OH210944   6.155   7.358   5.066
 3668TIP3    H110945   6.064   7.371   5.093
 3668TIP3    H210946   6.173   7.432   5.007
 3669TIP3   OH210947   4.634   7.867   4.414
 3669TIP3    H110948   4.664   7.942   4.465
 3669TIP3    H210949   4.543   7.854   4.442
 3670TIP3   OH210950   7.187   6.100   1.332
 3670TIP3    H110951   7.278   6.119   1.357
 3670TIP3    H210952   7.145   6.074   1.414
 3671TIP3   OH210953   0.597   7.884   3.895
 3671TIP3    H110954   0.600   7.824   3.820
 3671TIP3    H210955   0.689   7.899   3.917
 3672TIP3   OH210956   5.535   7.730   6.715
 3672TIP3    H110957   5.490   7.719   6.632
 3672TIP3    H210958   5.472   7.702   6.781
 3673TIP3   OH210959   4.249   4.830   1.977
 3673TIP3    H110960   4.299   4.912   1.986
 3673TIP3    H210961   4.227   4.806   2.067
 3674TIP3   OH210962   0.736   5.099   1.515
 3674TIP3    H110963   0.789   5.161   1.465
 3674TIP3    H210964   0.745   5.016   1.468
 3675TIP3   OH210965   5.757   0.467   6.732
 3675TIP3    H110966   5.761   0.562   6.731
 3675TIP3    H210967   5.692   0.445   6.666
 3676TIP3   OH210968   0.781   6.252   3.817
 3676TIP3    H110969   0.721   6.306   3.765
 3676TIP3    H210970   0.836   6.208   3.751
 3677TIP3   OH210971   4.863   6.896   5.920
 3677TIP3    H110972   4.792   6.919   5.980
 3677TIP3    H210973   4.941   6.896   5.976
 3678TIP3   OH210974   1.569   3.619   3.615
 3678TIP3    H110975   1.610   3.686   3.670
 3678TIP3    H210976   1.491   3.661   3.579
 3679TIP3   OH210977   2.272   0.866   4.633
 3679TIP3    H110978   2.177   0.865   4.616
 3679TIP3    H210979   2.284   0.800   4.701
 3680TIP3   OH210980   6.763   1.463   0.796
 3680TIP3    H110981   6.830   1.476   0.864
 3680TIP3    H210982   6.758   1.368   0.785
 3681TIP3   OH210983   1.610   6.794   0.542
 3681TIP3    H110984   1.553   6.828   0.611
 3681TIP3    H210985   1.583   6.704   0.530
 3682TIP3   OH210986   6.226   2.805   5.832
 3682TIP3    H110987   6.180   2.851   5.902
 3682TIP3    H210988   6.309   2.851   5.822
 3683TIP3   OH210989   4.578   3.859   6.516
 3683TIP3    H110990   4.573   3.883   6.424
 3683TIP3    H210991   4.605   3.767   6.515
 3684TIP3   OH210992   6.795   3.924   4.654
 3684TIP3    H110993   6.703   3.916   4.677
 3684TIP3    H210994   6.841   3.920   4.739
 3685TIP3   OH210995   4.294   5.851   6.547
 3685TIP3    H110996   4.202   5.832   6.530
 3685TIP3    H210997   4.297   5.876   6.640
 3686TIP3   OH210998   3.577   3.520   3.720
 3686TIP3    H110999   3.531   3.449   3.675
 3686TIP3    H211000   3.607   3.481   3.802
 3687TIP3   OH211001   6.636   2.501   6.483
 3687TIP3    H111002   6.600   2.484   6.570
 3687TIP3    H211003   6.724   2.534   6.499
 3688TIP3   OH211004   4.447   5.588   1.250
 3688TIP3    H111005   4.389   5.530   1.299
 3688TIP3    H211006   4.508   5.529   1.205
 3689TIP3   OH211007   7.035   1.693   0.960
 3689TIP3    H111008   6.986   1.774   0.975
 3689TIP3    H211009   7.082   1.709   0.878
 3690TIP3   OH211010   3.830   7.821   6.443
 3690TIP3    H111011   3.746   7.802   6.402
 3690TIP3    H211012   3.856   7.740   6.487
 3691TIP3   OH211013   4.826   0.325   1.726
 3691TIP3    H111014   4.752   0.277   1.763
 3691TIP3    H211015   4.792   0.414   1.711
 3692TIP3   OH211016   1.405   4.971   4.881
 3692TIP3    H111017   1.311   4.972   4.866
 3692TIP3    H211018   1.415   4.930   4.967
 3693TIP3   OH211019   3.512   0.031   6.689
 3693TIP3    H111020   3.506   0.119   6.726
 3693TIP3    H211021   3.598   0.029   6.647
 3694TIP3   OH211022   8.400   5.693   1.139
 3694TIP3    H111023   8.430   5.693   1.048
 3694TIP3    H211024   8.342   5.617   1.145
 3695TIP3   OH211025   0.532   6.489   0.942
 3695TIP3    H111026   0.436   6.492   0.940
 3695TIP3    H211027   0.553   6.433   1.017
 3696TIP3   OH211028   0.419   0.943   4.743
 3696TIP3    H111029   0.446   0.947   4.835
 3696TIP3    H211030   0.339   0.891   4.744
 3697TIP3   OH211031   0.517   3.642   4.280
 3697TIP3    H111032   0.548   3.552   4.276
 3697TIP3    H211033   0.480   3.659   4.193
 3698TIP3   OH211034   4.482   3.555   5.550
 3698TIP3    H111035   4.572   3.529   5.569
 3698TIP3    H211036   4.433   3.537   5.630
 3699TIP3   OH211037   2.368   0.931   1.662
 3699TIP3    H111038   2.446   0.888   1.697
 3699TIP3    H211039   2.309   0.939   1.736
 3700TIP3   OH211040   0.369   3.693   5.123
 3700TIP3    H111041   0.387   3.759   5.057
 3700TIP3    H211042   0.273   3.686   5.125
 3701TIP3   OH211043   3.000   4.103   2.098
 3701TIP3    H111044   2.942   4.067   2.166
 3701TIP3    H211045   2.942   4.157   2.044
 3702TIP3   OH211046   2.555   0.845   1.173
 3702TIP3    H111047   2.473   0.836   1.221
 3702TIP3    H211048   2.553   0.934   1.138
 3703TIP3   OH211049   0.196   5.991   3.514
 3703TIP3    H111050   0.110   5.952   3.526
 3703TIP3    H211051   0.250   5.950   3.582
 3704TIP3   OH211052   6.620   6.181   3.818
 3704TIP3    H111053   6.568   6.246   3.865
 3704TIP3    H211054   6.650   6.227   3.740
 3705TIP3   OH211055   0.585   4.799   1.798
 3705TIP3    H111056   0.520   4.862   1.769
 3705TIP3    H211057   0.534   4.724   1.828
 3706TIP3   OH211058   1.059   0.200   1.474
 3706TIP3    H111059   0.979   0.211   1.524
 3706TIP3    H211060   1.032   0.210   1.383
 3707TIP3   OH211061   2.081   1.036   6.700
 3707TIP3    H111062   2.117   1.002   6.782
 3707TIP3    H211063   1.987   1.026   6.709
 3708TIP3   OH211064   4.036   6.489   0.294
 3708TIP3    H111065   4.031   6.480   0.389
 3708TIP3    H211066   3.992   6.572   0.276
 3709TIP3   OH211067   1.539   2.610   0.777
 3709TIP3    H111068   1.560   2.616   0.683
 3709TIP3    H211069   1.623   2.624   0.821
 3710TIP3   OH211070   6.520   6.628   2.200
 3710TIP3    H111071   6.490   6.688   2.268
 3710TIP3    H211072   6.440   6.600   2.155
 3711TIP3   OH211073   1.502   1.469   6.038
 3711TIP3    H111074   1.569   1.474   5.970
 3711TIP3    H211075   1.512   1.550   6.088
 3712TIP3   OH211076   4.230   0.623   1.252
 3712TIP3    H111077   4.176   0.640   1.175
 3712TIP3    H211078   4.318   0.611   1.217
 3713TIP3   OH211079   1.123   3.864   6.440
 3713TIP3    H111080   1.146   3.792   6.382
 3713TIP3    H211081   1.050   3.830   6.493
 3714TIP3   OH211082   2.552   1.686   0.670
 3714TIP3    H111083   2.476   1.675   0.612
 3714TIP3    H211084   2.582   1.596   0.686
 3715TIP3   OH211085   4.706   4.541   2.604
 3715TIP3    H111086   4.723   4.447   2.602
 3715TIP3    H211087   4.638   4.552   2.671
 3716TIP3   OH211088   3.319   4.663   0.038
 3716TIP3    H111089   3.404   4.620   0.026
 3716TIP3    H211090   3.341   4.752   0.067
 3717TIP3   OH211091   6.558   0.696   3.037
 3717TIP3    H111092   6.525   0.693   3.126
 3717TIP3    H211093   6.638   0.643   3.039
 3718TIP3   OH211094   7.893   6.568   4.101
 3718TIP3    H111095   7.846   6.651   4.093
 3718TIP3    H211096   7.887   6.528   4.014
 3719TIP3   OH211097   2.386   1.251   1.062
 3719TIP3    H111098   2.324   1.259   0.990
 3719TIP3    H211099   2.440   1.175   1.040
 3720TIP3   OH211100   1.239   0.408   5.917
 3720TIP3    H111101   1.241   0.500   5.892
 3720TIP3    H211102   1.150   0.393   5.949
 3721TIP3   OH211103   6.102   1.466   5.933
 3721TIP3    H111104   6.162   1.506   5.870
 3721TIP3    H211105   6.023   1.447   5.883
 3722TIP3   OH211106   3.181   5.776   5.690
 3722TIP3    H111107   3.195   5.767   5.596
 3722TIP3    H211108   3.164   5.687   5.720
 3723TIP3   OH211109   8.354   3.865   5.812
 3723TIP3    H111110   8.282   3.869   5.750
 3723TIP3    H211111   8.341   3.782   5.858
 3724TIP3   OH211112   7.904   3.659   2.156
 3724TIP3    H111113   7.850   3.685   2.081
 3724TIP3    H211114   7.967   3.597   2.120
 3725TIP3   OH211115   5.998   1.629   6.754
 3725TIP3    H111116   5.974   1.696   6.819
 3725TIP3    H211117   6.093   1.626   6.756
 3726TIP3   OH211118   1.140   6.498   0.537
 3726TIP3    H111119   1.144   6.407   0.568
 3726TIP3    H211120   1.105   6.547   0.611
 3727TIP3   OH211121   5.401   5.732   2.856
 3727TIP3    H111122   5.378   5.823   2.874
 3727TIP3    H211123   5.367   5.683   2.931
 3728TIP3   OH211124   6.273   1.598   6.779
 3728TIP3    H111125   6.354   1.576   6.735
 3728TIP3    H211126   6.284   1.565   6.868
 3729TIP3   OH211127   0.765   5.342   4.688
 3729TIP3    H111128   0.746   5.375   4.600
 3729TIP3    H211129   0.707   5.266   4.697
 3730TIP3   OH211130   4.507   1.770   1.134
 3730TIP3    H111131   4.587   1.718   1.140
 3730TIP3    H211132   4.448   1.717   1.079
 3731TIP3   OH211133   5.534   0.805   6.684
 3731TIP3    H111134   5.507   0.843   6.600
 3731TIP3    H211135   5.470   0.737   6.701
 3732TIP3   OH211136   0.914   7.079   2.192
 3732TIP3    H111137   0.932   7.163   2.149
 3732TIP3    H211138   0.825   7.087   2.224
 3733TIP3   OH211139   5.090   7.704   4.370
 3733TIP3    H111140   5.023   7.676   4.433
 3733TIP3    H211141   5.078   7.799   4.364
 3734TIP3   OH211142   5.182   4.667   1.570
 3734TIP3    H111143   5.243   4.691   1.639
 3734TIP3    H211144   5.153   4.579   1.593
 3735TIP3   OH211145   5.570   2.209   0.061
 3735TIP3    H111146   5.500   2.145   0.076
 3735TIP3    H211147   5.585   2.207  -0.034
 3736TIP3   OH211148   6.603   7.180   3.297
 3736TIP3    H111149   6.511   7.165   3.276
 3736TIP3    H211150   6.621   7.124   3.373
 3737TIP3   OH211151   5.964   2.114   3.300
 3737TIP3    H111152   5.948   2.076   3.386
 3737TIP3    H211153   5.972   2.208   3.317
 3738TIP3   OH211154   4.936   1.610   2.092
 3738TIP3    H111155   4.862   1.667   2.070
 3738TIP3    H211156   4.958   1.633   2.182
 3739TIP3   OH211157   6.361   7.861   5.266
 3739TIP3    H111158   6.307   7.912   5.326
 3739TIP3    H211159   6.450   7.894   5.280
 3740TIP3   OH211160   5.749   7.942   3.265
 3740TIP3    H111161   5.707   8.023   3.291
 3740TIP3    H211162   5.806   7.920   3.338
 3741TIP3   OH211163   5.223   0.169   0.748
 3741TIP3    H111164   5.133   0.153   0.720
 3741TIP3    H211165   5.273   0.096   0.711
 3742TIP3   OH211166   8.242   6.635   5.508
 3742TIP3    H111167   8.180   6.705   5.526
 3742TIP3    H211168   8.286   6.662   5.427
 3743TIP3   OH211169   6.093   0.351   5.738
 3743TIP3    H111170   6.067   0.263   5.767
 3743TIP3    H211171   6.070   0.353   5.645
 3744TIP3   OH211172   1.383   0.549   2.564
 3744TIP3    H111173   1.387   0.637   2.528
 3744TIP3    H211174   1.432   0.554   2.646
 3745TIP3   OH211175   8.139   4.386   5.403
 3745TIP3    H111176   8.082   4.406   5.329
 3745TIP3    H211177   8.135   4.290   5.411
 3746TIP3   OH211178   1.176   0.448   1.267
 3746TIP3    H111179   1.248   0.424   1.325
 3746TIP3    H211180   1.214   0.447   1.179
 3747TIP3   OH211181   2.743   0.652   5.623
 3747TIP3    H111182   2.702   0.586   5.678
 3747TIP3    H211183   2.692   0.649   5.541
 3748TIP3   OH211184   6.995   6.388   3.918
 3748TIP3    H111185   6.982   6.388   3.823
 3748TIP3    H211186   6.964   6.302   3.946
 3749TIP3   OH211187   8.384   2.361   1.686
 3749TIP3    H111188   8.391   2.293   1.752
 3749TIP3    H211189   8.382   2.443   1.735
 3750TIP3   OH211190   3.244   6.004   1.025
 3750TIP3    H111191   3.334   5.975   1.043
 3750TIP3    H211192   3.252   6.098   1.009
 3751TIP3   OH211193   4.837   1.454   5.514
 3751TIP3    H111194   4.817   1.542   5.480
 3751TIP3    H211195   4.837   1.398   5.437
 3752TIP3   OH211196   3.371   0.346   6.016
 3752TIP3    H111197   3.291   0.342   5.964
 3752TIP3    H211198   3.418   0.265   5.995
 3753TIP3   OH211199   2.737   7.242   0.086
 3753TIP3    H111200   2.648   7.229   0.053
 3753TIP3    H211201   2.783   7.161   0.061
 3754TIP3   OH211202   5.427   6.806   1.921
 3754TIP3    H111203   5.401   6.759   1.999
 3754TIP3    H211204   5.478   6.880   1.953
 3755TIP3   OH211205   3.228   5.456   0.104
 3755TIP3    H111206   3.251   5.530   0.048
 3755TIP3    H211207   3.228   5.491   0.192
 3756TIP3   OH211208   3.950   3.074   0.787
 3756TIP3    H111209   4.007   3.043   0.856
 3756TIP3    H211210   3.934   3.166   0.807
 3757TIP3   OH211211   0.684   5.448   0.172
 3757TIP3    H111212   0.693   5.542   0.187
 3757TIP3    H211213   0.754   5.408   0.225
 3758TIP3   OH211214   7.828   1.582   1.147
 3758TIP3    H111215   7.807   1.512   1.084
 3758TIP3    H211216   7.745   1.627   1.162
 3759TIP3   OH211217   5.217   7.458   1.763
 3759TIP3    H111218   5.129   7.442   1.799
 3759TIP3    H211219   5.275   7.409   1.820
 3760TIP3   OH211220   3.530   6.020   6.409
 3760TIP3    H111221   3.448   6.011   6.359
 3760TIP3    H211222   3.592   5.965   6.361
 3761TIP3   OH211223   4.658   2.865   2.141
 3761TIP3    H111224   4.723   2.849   2.073
 3761TIP3    H211225   4.682   2.804   2.211
 3762TIP3   OH211226   0.808   2.563   0.989
 3762TIP3    H111227   0.783   2.507   0.916
 3762TIP3    H211228   0.877   2.515   1.034
 3763TIP3   OH211229   3.132   7.819   5.731
 3763TIP3    H111230   3.166   7.872   5.659
 3763TIP3    H211231   3.072   7.877   5.777
 3764TIP3   OH211232   7.719   6.488   2.402
 3764TIP3    H111233   7.760   6.495   2.316
 3764TIP3    H211234   7.652   6.556   2.402
 3765TIP3   OH211235   5.046   7.505   5.762
 3765TIP3    H111236   5.022   7.597   5.754
 3765TIP3    H211237   5.070   7.479   5.673
 3766TIP3   OH211238   1.022   4.268   6.784
 3766TIP3    H111239   1.062   4.194   6.739
 3766TIP3    H211240   0.945   4.290   6.731
 3767TIP3   OH211241   5.384   6.389   1.808
 3767TIP3    H111242   5.359   6.449   1.878
 3767TIP3    H211243   5.343   6.306   1.833
 3768TIP3   OH211244   5.965   1.386   3.833
 3768TIP3    H111245   5.905   1.440   3.885
 3768TIP3    H211246   5.998   1.320   3.895
 3769TIP3   OH211247   4.322   7.258   0.674
 3769TIP3    H111248   4.417   7.260   0.659
 3769TIP3    H211249   4.306   7.175   0.719
 3770TIP3   OH211250   6.560   7.745   5.541
 3770TIP3    H111251   6.491   7.800   5.579
 3770TIP3    H211252   6.538   7.740   5.448
 3771TIP3   OH211253   1.124   5.481   0.115
 3771TIP3    H111254   1.116   5.547   0.184
 3771TIP3    H211255   1.101   5.399   0.158
 3772TIP3   OH211256   5.652   0.258   0.836
 3772TIP3    H111257   5.632   0.351   0.844
 3772TIP3    H211258   5.703   0.238   0.915
 3773TIP3   OH211259   6.357   6.764   5.548
 3773TIP3    H111260   6.277   6.804   5.512
 3773TIP3    H211261   6.358   6.792   5.639
 3774TIP3   OH211262   7.753   6.995   1.592
 3774TIP3    H111263   7.773   6.944   1.671
 3774TIP3    H211264   7.774   6.936   1.520
 3775TIP3   OH211265   4.734   4.050   3.376
 3775TIP3    H111266   4.643   4.023   3.364
 3775TIP3    H211267   4.738   4.085   3.465
 3776TIP3   OH211268   2.204   0.609   4.044
 3776TIP3    H111269   2.177   0.551   3.972
 3776TIP3    H211270   2.293   0.633   4.022
 3777TIP3   OH211271   0.871   3.351   0.985
 3777TIP3    H111272   0.844   3.315   1.070
 3777TIP3    H211273   0.865   3.446   0.998
 3778TIP3   OH211274   0.839   6.149   4.273
 3778TIP3    H111275   0.906   6.098   4.318
 3778TIP3    H211276   0.864   6.240   4.290
 3779TIP3   OH211277   6.019   0.783   0.420
 3779TIP3    H111278   6.019   0.695   0.459
 3779TIP3    H211279   5.930   0.794   0.387
 3780TIP3   OH211280   3.769   6.759   4.012
 3780TIP3    H111281   3.696   6.701   3.995
 3780TIP3    H211282   3.810   6.723   4.091
 3781TIP3   OH211283   4.970   0.935   4.804
 3781TIP3    H111284   5.049   0.982   4.777
 3781TIP3    H211285   4.989   0.843   4.782
 3782TIP3   OH211286   0.150   3.125   0.371
 3782TIP3    H111287   0.184   3.055   0.426
 3782TIP3    H211288   0.210   3.127   0.296
 3783TIP3   OH211289   6.199   4.234   6.448
 3783TIP3    H111290   6.238   4.203   6.530
 3783TIP3    H211291   6.112   4.265   6.474
 3784TIP3   OH211292   2.234   3.983   6.197
 3784TIP3    H111293   2.283   4.041   6.139
 3784TIP3    H211294   2.182   3.929   6.138
 3785TIP3   OH211295   5.245   5.807   1.425
 3785TIP3    H111296   5.271   5.899   1.421
 3785TIP3    H211297   5.264   5.780   1.515
 3786TIP3   OH211298   0.494   4.915   3.802
 3786TIP3    H111299   0.437   4.977   3.847
 3786TIP3    H211300   0.471   4.923   3.710
 3787TIP3   OH211301   7.671   4.358   3.296
 3787TIP3    H111302   7.747   4.327   3.246
 3787TIP3    H211303   7.644   4.438   3.251
 3788TIP3   OH211304   2.769   6.624   3.766
 3788TIP3    H111305   2.847   6.679   3.767
 3788TIP3    H211306   2.717   6.657   3.692
 3789TIP3   OH211307   7.317   6.731   6.691
 3789TIP3    H111308   7.375   6.701   6.620
 3789TIP3    H211309   7.374   6.783   6.748
 3790TIP3   OH211310   5.310   7.407   0.413
 3790TIP3    H111311   5.346   7.496   0.416
 3790TIP3    H211312   5.360   7.362   0.346
 3791TIP3   OH211313   2.722   3.200   4.779
 3791TIP3    H111314   2.638   3.166   4.812
 3791TIP3    H211315   2.746   3.268   4.841
 3792TIP3   OH211316   4.838   4.086   6.023
 3792TIP3    H111317   4.749   4.118   6.008
 3792TIP3    H211318   4.865   4.130   6.104
 3793TIP3   OH211319   7.625   6.692   1.906
 3793TIP3    H111320   7.683   6.749   1.855
 3793TIP3    H211321   7.641   6.717   1.997
 3794TIP3   OH211322   4.289   5.050   0.348
 3794TIP3    H111323   4.344   5.086   0.278
 3794TIP3    H211324   4.351   5.018   0.413
 3795TIP3   OH211325   3.359   0.222   3.335
 3795TIP3    H111326   3.295   0.168   3.380
 3795TIP3    H211327   3.402   0.163   3.274
 3796TIP3   OH211328   5.059   7.131   0.616
 3796TIP3    H111329   5.151   7.111   0.599
 3796TIP3    H211330   5.057   7.226   0.628
 3797TIP3   OH211331   4.531   4.663   5.224
 3797TIP3    H111332   4.468   4.592   5.218
 3797TIP3    H211333   4.561   4.662   5.315
 3798TIP3   OH211334   1.511   4.774   6.716
 3798TIP3    H111335   1.570   4.819   6.776
 3798TIP3    H211336   1.549   4.788   6.630
 3799TIP3   OH211337   3.911   7.167   4.748
 3799TIP3    H111338   3.965   7.091   4.770
 3799TIP3    H211339   3.964   7.218   4.687
 3800TIP3   OH211340   1.321   5.276   2.365
 3800TIP3    H111341   1.405   5.264   2.407
 3800TIP3    H211342   1.341   5.324   2.284
 3801TIP3   OH211343   5.746   3.673   2.339
 3801TIP3    H111344   5.730   3.710   2.253
 3801TIP3    H211345   5.840   3.654   2.340
 3802TIP3   OH211346   3.882   0.482   1.196
 3802TIP3    H111347   3.953   0.425   1.167
 3802TIP3    H211348   3.891   0.485   1.291
 3803TIP3   OH211349   5.997   2.334   6.561
 3803TIP3    H111350   5.930   2.362   6.623
 3803TIP3    H211351   6.069   2.395   6.573
 3804TIP3   OH211352   6.166   1.951   0.669
 3804TIP3    H111353   6.094   1.890   0.681
 3804TIP3    H211354   6.234   1.900   0.626
 3805TIP3   OH211355   0.643   1.381   6.831
 3805TIP3    H111356   0.622   1.422   6.747
 3805TIP3    H211357   0.563   1.390   6.882
 3806TIP3   OH211358   5.268   2.929   3.109
 3806TIP3    H111359   5.283   2.935   3.015
 3806TIP3    H211360   5.349   2.892   3.144
 3807TIP3   OH211361   0.984   0.582   3.702
 3807TIP3    H111362   0.907   0.635   3.722
 3807TIP3    H211363   0.949   0.503   3.662
 3808TIP3   OH211364   3.928   1.435   5.904
 3808TIP3    H111365   3.940   1.471   5.992
 3808TIP3    H211366   3.955   1.505   5.845
 3809TIP3   OH211367   0.729   5.138   3.705
 3809TIP3    H111368   0.796   5.071   3.691
 3809TIP3    H211369   0.652   5.105   3.658
 3810TIP3   OH211370   1.080   0.235   0.492
 3810TIP3    H111371   1.114   0.320   0.466
 3810TIP3    H211372   0.987   0.240   0.471
 3811TIP3   OH211373   6.361   7.539   2.028
 3811TIP3    H111374   6.272   7.512   2.005
 3811TIP3    H211375   6.353   7.631   2.051
 3812TIP3   OH211376   3.378   6.321   1.819
 3812TIP3    H111377   3.405   6.254   1.756
 3812TIP3    H211378   3.319   6.275   1.879
 3813TIP3   OH211379   5.696   5.064   5.891
 3813TIP3    H111380   5.736   5.036   5.973
 3813TIP3    H211381   5.770   5.070   5.830
 3814TIP3   OH211382   5.357   3.303   5.795
 3814TIP3    H111383   5.373   3.290   5.701
 3814TIP3    H211384   5.444   3.317   5.832
 3815TIP3   OH211385   5.463   0.297   1.281
 3815TIP3    H111386   5.554   0.324   1.295
 3815TIP3    H211387   5.457   0.281   1.187
 3816TIP3   OH211388   1.048   1.945   2.649
 3816TIP3    H111389   1.020   1.909   2.565
 3816TIP3    H211390   1.144   1.942   2.645
 3817TIP3   OH211391   2.580   4.702   0.850
 3817TIP3    H111392   2.559   4.746   0.932
 3817TIP3    H211393   2.670   4.727   0.831
 3818TIP3   OH211394   2.505   7.063   1.855
 3818TIP3    H111395   2.541   7.024   1.776
 3818TIP3    H211396   2.541   7.151   1.857
 3819TIP3   OH211397   7.485   6.627   0.692
 3819TIP3    H111398   7.536   6.705   0.672
 3819TIP3    H211399   7.522   6.559   0.635
 3820TIP3   OH211400   6.490   1.308   6.471
 3820TIP3    H111401   6.544   1.249   6.419
 3820TIP3    H211402   6.486   1.389   6.420
 3821TIP3   OH211403   4.456   4.022   6.706
 3821TIP3    H111404   4.486   3.948   6.653
 3821TIP3    H211405   4.391   3.985   6.766
 3822TIP3   OH211406   0.964   1.523   6.792
 3822TIP3    H111407   1.044   1.574   6.806
 3822TIP3    H211408   0.937   1.544   6.702
 3823TIP3   OH211409   8.128   7.355   4.810
 3823TIP3    H111410   8.153   7.363   4.902
 3823TIP3    H211411   8.206   7.319   4.767
 3824TIP3   OH211412   7.103   5.209   4.709
 3824TIP3    H111413   7.012   5.223   4.734
 3824TIP3    H211414   7.099   5.157   4.629
 3825TIP3   OH211415   7.555   7.764   2.212
 3825TIP3    H111416   7.635   7.727   2.251
 3825TIP3    H211417   7.532   7.703   2.142
 3826TIP3   OH211418   8.172   6.304   0.623
 3826TIP3    H111419   8.152   6.219   0.662
 3826TIP3    H211420   8.211   6.355   0.694
 3827TIP3   OH211421   6.038   0.238   3.803
 3827TIP3    H111422   6.093   0.195   3.868
 3827TIP3    H211423   5.962   0.269   3.852
 3828TIP3   OH211424   5.419   7.824   0.844
 3828TIP3    H111425   5.418   7.866   0.758
 3828TIP3    H211426   5.440   7.732   0.827
 3829TIP3   OH211427   1.798   3.681   4.050
 3829TIP3    H111428   1.854   3.617   4.006
 3829TIP3    H211429   1.830   3.683   4.140
 3830TIP3   OH211430   1.192   2.995   3.436
 3830TIP3    H111431   1.205   3.055   3.509
 3830TIP3    H211432   1.129   2.931   3.468
 3831TIP3   OH211433   2.964   0.779   3.737
 3831TIP3    H111434   2.927   0.732   3.662
 3831TIP3    H211435   2.984   0.866   3.703
 3832TIP3   OH211436   3.248   4.525   4.763
 3832TIP3    H111437   3.337   4.491   4.762
 3832TIP3    H211438   3.242   4.580   4.686
 3833TIP3   OH211439   4.155   7.378   5.616
 3833TIP3    H111440   4.208   7.446   5.657
 3833TIP3    H211441   4.211   7.341   5.548
 3834TIP3   OH211442   5.026   2.119   2.553
 3834TIP3    H111443   4.937   2.146   2.578
 3834TIP3    H211444   5.012   2.047   2.491
 3835TIP3   OH211445   3.336   6.786   5.929
 3835TIP3    H111446   3.293   6.703   5.947
 3835TIP3    H211447   3.356   6.783   5.835
 3836TIP3   OH211448   1.826   1.667   3.533
 3836TIP3    H111449   1.917   1.641   3.548
 3836TIP3    H211450   1.777   1.584   3.532
 3837TIP3   OH211451   3.894   3.550   4.302
 3837TIP3    H111452   3.808   3.515   4.324
 3837TIP3    H211453   3.955   3.502   4.359
 3838TIP3   OH211454   1.293   5.046   4.191
 3838TIP3    H111455   1.202   5.035   4.219
 3838TIP3    H211456   1.292   5.024   4.098
 3839TIP3   OH211457   6.878   1.919   0.975
 3839TIP3    H111458   6.805   1.964   0.932
 3839TIP3    H211459   6.939   1.990   0.997
 3840TIP3   OH211460   3.546   3.341   1.434
 3840TIP3    H111461   3.459   3.348   1.394
 3840TIP3    H211462   3.605   3.325   1.360
 3841TIP3   OH211463   2.045   0.805   0.842
 3841TIP3    H111464   1.978   0.816   0.910
 3841TIP3    H211465   1.996   0.779   0.764
 3842TIP3   OH211466   6.115   0.671   2.976
 3842TIP3    H111467   6.114   0.634   2.888
 3842TIP3    H211468   6.147   0.761   2.963
 3843TIP3   OH211469   7.121   7.709   3.264
 3843TIP3    H111470   7.114   7.787   3.210
 3843TIP3    H211471   7.030   7.678   3.273
 3844TIP3   OH211472   0.875   1.084   6.056
 3844TIP3    H111473   0.850   1.176   6.060
 3844TIP3    H211474   0.917   1.067   6.140
 3845TIP3   OH211475   0.669   2.620   6.705
 3845TIP3    H111476   0.754   2.656   6.731
 3845TIP3    H211477   0.667   2.533   6.745
 3846TIP3   OH211478   5.675   7.276   4.668
 3846TIP3    H111479   5.722   7.205   4.625
 3846TIP3    H211480   5.670   7.249   4.760
 3847TIP3   OH211481   4.121   0.551   0.796
 3847TIP3    H111482   4.178   0.490   0.750
 3847TIP3    H211483   4.087   0.609   0.728
 3848TIP3   OH211484   1.031   5.973   1.312
 3848TIP3    H111485   0.968   5.929   1.255
 3848TIP3    H211486   1.115   5.966   1.265
 3849TIP3   OH211487   0.634   7.614   2.666
 3849TIP3    H111488   0.573   7.548   2.632
 3849TIP3    H211489   0.581   7.694   2.672
 3850TIP3   OH211490   2.117   2.445   0.706
 3850TIP3    H111491   2.153   2.356   0.706
 3850TIP3    H211492   2.024   2.434   0.726
 3851TIP3   OH211493   7.687   4.910   1.095
 3851TIP3    H111494   7.608   4.915   1.149
 3851TIP3    H211495   7.736   4.836   1.131
 3852TIP3   OH211496   2.706   1.035   3.833
 3852TIP3    H111497   2.762   0.979   3.887
 3852TIP3    H211498   2.676   1.103   3.893
 3853TIP3   OH211499   1.840   2.458   2.469
 3853TIP3    H111500   1.747   2.476   2.460
 3853TIP3    H211501   1.879   2.542   2.491
 3854TIP3   OH211502   2.540   2.132   4.955
 3854TIP3    H111503   2.622   2.095   4.986
 3854TIP3    H211504   2.550   2.227   4.965
 3855TIP3   OH211505   4.076   4.606   4.085
 3855TIP3    H111506   4.078   4.678   4.148
 3855TIP3    H211507   4.152   4.621   4.029
 3856TIP3   OH211508   6.035   6.504   4.690
 3856TIP3    H111509   6.006   6.578   4.744
 3856TIP3    H211510   6.060   6.544   4.606
 3857TIP3   OH211511   7.817   0.351   3.333
 3857TIP3    H111512   7.801   0.445   3.335
 3857TIP3    H211513   7.741   0.312   3.377
 3858TIP3   OH211514   4.416   4.903   3.158
 3858TIP3    H111515   4.401   4.814   3.127
 3858TIP3    H211516   4.388   4.958   3.086
 3859TIP3   OH211517   7.146   7.784   4.283
 3859TIP3    H111518   7.181   7.873   4.277
 3859TIP3    H211519   7.054   7.795   4.304
 3860TIP3   OH211520   2.585   7.441   3.529
 3860TIP3    H111521   2.531   7.425   3.451
 3860TIP3    H211522   2.542   7.391   3.598
 3861TIP3   OH211523   7.542   2.565   2.440
 3861TIP3    H111524   7.480   2.530   2.376
 3861TIP3    H211525   7.627   2.562   2.397
 3862TIP3   OH211526   0.119   3.583   1.353
 3862TIP3    H111527   0.138   3.617   1.440
 3862TIP3    H211528   0.034   3.541   1.361
 3863TIP3   OH211529   6.707   5.973   0.738
 3863TIP3    H111530   6.765   6.048   0.723
 3863TIP3    H211531   6.757   5.898   0.706
 3864TIP3   OH211532   3.360   6.584   3.909
 3864TIP3    H111533   3.265   6.574   3.912
 3864TIP3    H211534   3.385   6.602   4.000
 3865TIP3   OH211535   0.117   5.563   6.784
 3865TIP3    H111536   0.049   5.505   6.749
 3865TIP3    H211537   0.076   5.650   6.784
 3866TIP3   OH211538   3.928   3.515   3.164
 3866TIP3    H111539   3.961   3.426   3.150
 3866TIP3    H211540   3.841   3.503   3.202
 3867TIP3   OH211541   4.747   5.975   5.891
 3867TIP3    H111542   4.827   5.979   5.945
 3867TIP3    H211543   4.698   6.053   5.915
 3868TIP3   OH211544   7.968   2.173   6.416
 3868TIP3    H111545   8.042   2.113   6.419
 3868TIP3    H211546   7.895   2.119   6.385
 3869TIP3   OH211547   5.416   7.791   1.493
 3869TIP3    H111548   5.405   7.747   1.578
 3869TIP3    H211549   5.337   7.768   1.444
 3870TIP3   OH211550   7.245   0.803   3.794
 3870TIP3    H111551   7.199   0.881   3.765
 3870TIP3    H211552   7.188   0.765   3.861
 3871TIP3   OH211553   4.977   1.754   4.522
 3871TIP3    H111554   5.037   1.720   4.456
 3871TIP3    H211555   4.975   1.687   4.590
 3872TIP3   OH211556   2.960   0.041   4.048
 3872TIP3    H111557   3.029  -0.026   4.047
 3872TIP3    H211558   2.977   0.094   3.970
 3873TIP3   OH211559   4.237   0.492   1.503
 3873TIP3    H111560   4.161   0.435   1.490
 3873TIP3    H211561   4.241   0.545   1.424
 3874TIP3   OH211562   5.087   6.214   0.819
 3874TIP3    H111563   5.169   6.249   0.854
 3874TIP3    H211564   5.096   6.119   0.825
 3875TIP3   OH211565   2.582   1.798   0.933
 3875TIP3    H111566   2.541   1.884   0.929
 3875TIP3    H211567   2.599   1.774   0.842
 3876TIP3   OH211568   5.371   7.127   4.419
 3876TIP3    H111569   5.398   7.046   4.462
 3876TIP3    H211570   5.276   7.121   4.415
 3877TIP3   OH211571   2.825   4.311   1.987
 3877TIP3    H111572   2.731   4.313   1.971
 3877TIP3    H211573   2.836   4.350   2.073
 3878TIP3   OH211574   5.369   7.105   5.038
 3878TIP3    H111575   5.352   7.163   5.113
 3878TIP3    H211576   5.456   7.070   5.054
 3879TIP3   OH211577   7.395   7.276   0.992
 3879TIP3    H111578   7.429   7.276   0.903
 3879TIP3    H211579   7.453   7.215   1.040
 3880TIP3   OH211580   0.415   7.873   5.277
 3880TIP3    H111581   0.446   7.914   5.358
 3880TIP3    H211582   0.366   7.796   5.306
 3881TIP3   OH211583   5.737   5.965   1.515
 3881TIP3    H111584   5.699   5.918   1.441
 3881TIP3    H211585   5.699   6.053   1.509
 3882TIP3   OH211586   6.651   2.498   4.640
 3882TIP3    H111587   6.569   2.490   4.593
 3882TIP3    H211588   6.714   2.447   4.588
 3883TIP3   OH211589   4.325   5.755   4.188
 3883TIP3    H111590   4.300   5.821   4.123
 3883TIP3    H211591   4.392   5.798   4.241
 3884TIP3   OH211592   0.399   2.635   2.993
 3884TIP3    H111593   0.438   2.548   2.982
 3884TIP3    H211594   0.330   2.638   2.926
 3885TIP3   OH211595   5.020   5.621   6.444
 3885TIP3    H111596   4.949   5.583   6.496
 3885TIP3    H211597   5.037   5.705   6.486
 3886TIP3   OH211598   1.800   4.048   6.309
 3886TIP3    H111599   1.719   4.091   6.280
 3886TIP3    H211600   1.789   3.957   6.284
 3887TIP3   OH211601   7.306   2.655   2.775
 3887TIP3    H111602   7.303   2.599   2.697
 3887TIP3    H211603   7.378   2.716   2.757
 3888TIP3   OH211604   7.724   0.234   5.118
 3888TIP3    H111605   7.668   0.254   5.043
 3888TIP3    H211606   7.717   0.312   5.174
 3889TIP3   OH211607   5.751   4.839   0.177
 3889TIP3    H111608   5.710   4.834   0.264
 3889TIP3    H211609   5.758   4.747   0.149
 3890TIP3   OH211610   6.166   5.213   1.473
 3890TIP3    H111611   6.094   5.198   1.412
 3890TIP3    H211612   6.232   5.148   1.448
 3891TIP3   OH211613   6.015   6.992   5.184
 3891TIP3    H111614   5.979   7.080   5.199
 3891TIP3    H211615   5.944   6.933   5.211
 3892TIP3   OH211616   1.849   1.184   5.841
 3892TIP3    H111617   1.765   1.222   5.868
 3892TIP3    H211618   1.862   1.216   5.752
 3893TIP3   OH211619   1.312   4.279   2.456
 3893TIP3    H111620   1.354   4.358   2.421
 3893TIP3    H211621   1.360   4.207   2.414
 3894TIP3   OH211622   4.348   0.734   0.955
 3894TIP3    H111623   4.442   0.714   0.960
 3894TIP3    H211624   4.316   0.680   0.883
 3895TIP3   OH211625   5.221   1.623   3.784
 3895TIP3    H111626   5.272   1.594   3.708
 3895TIP3    H211627   5.268   1.700   3.816
 3896TIP3   OH211628   4.415   6.801   2.288
 3896TIP3    H111629   4.362   6.879   2.268
 3896TIP3    H211630   4.355   6.743   2.335
 3897TIP3   OH211631   6.944   1.139   2.832
 3897TIP3    H111632   6.994   1.189   2.767
 3897TIP3    H211633   6.856   1.135   2.796
 3898TIP3   OH211634   5.181   1.421   5.303
 3898TIP3    H111635   5.253   1.375   5.261
 3898TIP3    H211636   5.103   1.374   5.275
 3899TIP3   OH211637   0.623   0.979   1.243
 3899TIP3    H111638   0.592   0.985   1.333
 3899TIP3    H211639   0.711   1.015   1.245
 3900TIP3   OH211640   7.055   7.063   5.941
 3900TIP3    H111641   7.135   7.015   5.922
 3900TIP3    H211642   7.012   7.013   6.010
 3901TIP3   OH211643   5.272   6.817   1.111
 3901TIP3    H111644   5.254   6.822   1.205
 3901TIP3    H211645   5.350   6.871   1.099
 3902TIP3   OH211646   8.297   0.847   4.860
 3902TIP3    H111647   8.319   0.803   4.942
 3902TIP3    H211648   8.232   0.790   4.819
 3903TIP3   OH211649   4.278   6.549   2.334
 3903TIP3    H111650   4.342   6.520   2.399
 3903TIP3    H211651   4.313   6.518   2.251
 3904TIP3   OH211652   3.556   4.559   5.647
 3904TIP3    H111653   3.514   4.612   5.579
 3904TIP3    H211654   3.501   4.482   5.655
 3905TIP3   OH211655   6.998   2.098   3.322
 3905TIP3    H111656   6.969   2.080   3.233
 3905TIP3    H211657   6.957   2.181   3.345
 3906TIP3   OH211658   5.590   3.460   3.748
 3906TIP3    H111659   5.659   3.494   3.806
 3906TIP3    H211660   5.626   3.378   3.715
 3907TIP3   OH211661   3.054   6.560   1.025
 3907TIP3    H111662   3.133   6.612   1.036
 3907TIP3    H211663   3.043   6.551   0.930
 3908TIP3   OH211664   2.946   1.685   0.337
 3908TIP3    H111665   2.862   1.698   0.380
 3908TIP3    H211666   2.958   1.764   0.284
 3909TIP3   OH211667   4.015   3.162   5.728
 3909TIP3    H111668   4.008   3.112   5.646
 3909TIP3    H211669   4.053   3.246   5.702
 3910TIP3   OH211670   6.015   3.979   0.117
 3910TIP3    H111671   6.072   4.054   0.134
 3910TIP3    H211672   5.934   3.999   0.164
 3911TIP3   OH211673   1.775   1.455   3.143
 3911TIP3    H111674   1.782   1.450   3.048
 3911TIP3    H211675   1.844   1.398   3.175
 3912TIP3   OH211676   3.870   2.412   6.254
 3912TIP3    H111677   3.851   2.487   6.311
 3912TIP3    H211678   3.887   2.451   6.168
 3913TIP3   OH211679   5.619   1.234   5.465
 3913TIP3    H111680   5.566   1.266   5.539
 3913TIP3    H211681   5.649   1.147   5.492
 3914TIP3   OH211682   8.396   6.592   4.447
 3914TIP3    H111683   8.336   6.635   4.508
 3914TIP3    H211684   8.359   6.505   4.435
 3915TIP3   OH211685   6.469   2.238   2.352
 3915TIP3    H111686   6.549   2.192   2.326
 3915TIP3    H211687   6.401   2.171   2.350
 3916TIP3   OH211688   2.923   0.462   2.228
 3916TIP3    H111689   2.980   0.418   2.165
 3916TIP3    H211690   2.889   0.392   2.283
 3917TIP3   OH211691   1.634   1.885   2.325
 3917TIP3    H111692   1.638   1.980   2.321
 3917TIP3    H211693   1.663   1.863   2.413
 3918TIP3   OH211694   7.342   4.698   1.248
 3918TIP3    H111695   7.317   4.641   1.321
 3918TIP3    H211696   7.282   4.674   1.177
 3919TIP3   OH211697   1.326   1.220   6.271
 3919TIP3    H111698   1.411   1.230   6.229
 3919TIP3    H211699   1.346   1.179   6.356
 3920TIP3   OH211700   4.127   6.015   5.210
 3920TIP3    H111701   4.167   5.963   5.141
 3920TIP3    H211702   4.168   5.983   5.291
 3921TIP3   OH211703   2.826   1.465   5.326
 3921TIP3    H111704   2.895   1.467   5.259
 3921TIP3    H211705   2.794   1.555   5.330
 3922TIP3   OH211706   6.012   2.215   0.350
 3922TIP3    H111707   6.098   2.202   0.309
 3922TIP3    H211708   6.030   2.263   0.430
 3923TIP3   OH211709   3.110   4.206   1.575
 3923TIP3    H111710   3.148   4.136   1.629
 3923TIP3    H211711   3.034   4.236   1.625
 3924TIP3   OH211712   5.181   3.285   5.470
 3924TIP3    H111713   5.262   3.273   5.519
 3924TIP3    H211714   5.187   3.222   5.398
 3925TIP3   OH211715   6.865   0.666   2.368
 3925TIP3    H111716   6.820   0.716   2.300
 3925TIP3    H211717   6.912   0.597   2.320
 3926TIP3   OH211718   3.338   6.216   5.589
 3926TIP3    H111719   3.324   6.151   5.521
 3926TIP3    H211720   3.251   6.250   5.609
 3927TIP3   OH211721   7.295   3.311   2.236
 3927TIP3    H111722   7.258   3.318   2.147
 3927TIP3    H211723   7.390   3.314   2.223
 3928TIP3   OH211724   4.177   7.494   4.418
 3928TIP3    H111725   4.100   7.518   4.366
 3928TIP3    H211726   4.176   7.554   4.492
 3929TIP3   OH211727   0.051   4.560   6.543
 3929TIP3    H111728   0.004   4.570   6.626
 3929TIP3    H211729  -0.013   4.583   6.476
 3930TIP3   OH211730   4.398   7.531   3.992
 3930TIP3    H111731   4.478   7.569   3.956
 3930TIP3    H211732   4.340   7.607   4.005
 3931TIP3   OH211733   2.311   1.654   0.550
 3931TIP3    H111734   2.284   1.675   0.461
 3931TIP3    H211735   2.277   1.727   0.603
 3932TIP3   OH211736   8.444   5.842   5.119
 3932TIP3    H111737   8.390   5.851   5.041
 3932TIP3    H211738   8.386   5.862   5.192
 3933TIP3   OH211739   3.505   3.895   1.624
 3933TIP3    H111740   3.535   3.966   1.567
 3933TIP3    H211741   3.541   3.915   1.710
 3934TIP3   OH211742   3.956   4.341   4.544
 3934TIP3    H111743   4.004   4.348   4.461
 3934TIP3    H211744   3.876   4.293   4.520
 3935TIP3   OH211745   2.875   3.381   1.696
 3935TIP3    H111746   2.875   3.293   1.733
 3935TIP3    H211747   2.957   3.387   1.647
 3936TIP3   OH211748   1.320   7.287   2.690
 3936TIP3    H111749   1.272   7.204   2.686
 3936TIP3    H211750   1.332   7.311   2.598
 3937TIP3   OH211751   0.921   3.109   5.664
 3937TIP3    H111752   0.863   3.036   5.682
 3937TIP3    H211753   0.892   3.143   5.579
 3938TIP3   OH211754   8.053   2.609   4.476
 3938TIP3    H111755   8.064   2.671   4.404
 3938TIP3    H211756   8.059   2.523   4.435
 3939TIP3   OH211757   0.449   2.356   3.243
 3939TIP3    H111758   0.512   2.325   3.309
 3939TIP3    H211759   0.364   2.340   3.282
 3940TIP3   OH211760   6.834   3.617   3.786
 3940TIP3    H111761   6.851   3.550   3.719
 3940TIP3    H211762   6.840   3.570   3.869
 3941TIP3   OH211763   5.879   7.824   0.509
 3941TIP3    H111764   5.834   7.818   0.593
 3941TIP3    H211765   5.826   7.884   0.457
 3942TIP3   OH211766   4.270   0.950   5.746
 3942TIP3    H111767   4.180   0.977   5.762
 3942TIP3    H211768   4.312   1.028   5.708
 3943TIP3   OH211769   5.202   3.111   5.262
 3943TIP3    H111770   5.130   3.118   5.199
 3943TIP3    H211771   5.257   3.187   5.245
 3944TIP3   OH211772   7.842   2.068   4.871
 3944TIP3    H111773   7.790   2.080   4.950
 3944TIP3    H211774   7.810   2.136   4.811
 3945TIP3   OH211775   0.150   2.046   4.497
 3945TIP3    H111776   0.198   2.026   4.577
 3945TIP3    H211777   0.102   2.126   4.517
 3946TIP3   OH211778   8.177   0.897   0.430
 3946TIP3    H111779   8.218   0.957   0.493
 3946TIP3    H211780   8.131   0.833   0.485
 3947TIP3   OH211781   7.134   2.092   3.542
 3947TIP3    H111782   7.114   2.114   3.451
 3947TIP3    H211783   7.228   2.109   3.551
 3948TIP3   OH211784   4.871   3.795   0.219
 3948TIP3    H111785   4.940   3.749   0.171
 3948TIP3    H211786   4.852   3.739   0.294
 3949TIP3   OH211787   2.424   0.165   4.505
 3949TIP3    H111788   2.434   0.247   4.457
 3949TIP3    H211789   2.449   0.098   4.441
 3950TIP3   OH211790   5.025   0.851   2.884
 3950TIP3    H111791   5.063   0.935   2.906
 3950TIP3    H211792   5.029   0.800   2.965
 3951TIP3   OH211793   4.691   7.731   0.593
 3951TIP3    H111794   4.668   7.791   0.522
 3951TIP3    H211795   4.607   7.704   0.630
 3952TIP3   OH211796   0.604   5.861   1.942
 3952TIP3    H111797   0.536   5.878   2.008
 3952TIP3    H211798   0.655   5.941   1.938
 3953TIP3   OH211799   7.923   3.898   2.258
 3953TIP3    H111800   7.888   3.810   2.242
 3953TIP3    H211801   7.936   3.902   2.352
 3954TIP3   OH211802   1.427   5.601   4.088
 3954TIP3    H111803   1.413   5.516   4.047
 3954TIP3    H211804   1.438   5.581   4.181
 3955TIP3   OH211805   5.361   3.228   4.258
 3955TIP3    H111806   5.325   3.161   4.201
 3955TIP3    H211807   5.429   3.183   4.308
 3956TIP3   OH211808   4.610   7.475   4.810
 3956TIP3    H111809   4.698   7.505   4.787
 3956TIP3    H211810   4.556   7.497   4.734
 3957TIP3   OH211811   6.362   2.508   3.703
 3957TIP3    H111812   6.305   2.571   3.658
 3957TIP3    H211813   6.450   2.532   3.677
 3958TIP3   OH211814   2.319   2.742   5.035
 3958TIP3    H111815   2.322   2.733   4.940
 3958TIP3    H211816   2.327   2.836   5.051
 3959TIP3   OH211817   4.147   5.584   4.045
 3959TIP3    H111818   4.098   5.655   4.003
 3959TIP3    H211819   4.218   5.628   4.091
 3960TIP3   OH211820   1.187   1.234   3.724
 3960TIP3    H111821   1.147   1.236   3.637
 3960TIP3    H211822   1.197   1.141   3.744
 3961TIP3   OH211823   0.807   5.057   3.383
 3961TIP3    H111824   0.875   5.077   3.447
 3961TIP3    H211825   0.851   5.005   3.316
 3962TIP3   OH211826   3.022   4.492   2.653
 3962TIP3    H111827   3.059   4.453   2.733
 3962TIP3    H211828   2.970   4.423   2.614
 3963TIP3   OH211829   2.799   4.605   6.598
 3963TIP3    H111830   2.785   4.563   6.513
 3963TIP3    H211831   2.722   4.581   6.650
 3964TIP3   OH211832   1.601   2.220   1.000
 3964TIP3    H111833   1.654   2.289   1.039
 3964TIP3    H211834   1.561   2.261   0.923
 3965TIP3   OH211835   3.778   2.205   5.309
 3965TIP3    H111836   3.865   2.243   5.319
 3965TIP3    H211837   3.766   2.152   5.388
 3966TIP3   OH211838   3.787   6.784   1.978
 3966TIP3    H111839   3.772   6.692   1.954
 3966TIP3    H211840   3.798   6.783   2.073
 3967TIP3   OH211841   3.895   0.982   3.815
 3967TIP3    H111842   3.969   0.949   3.763
 3967TIP3    H211843   3.863   1.058   3.766
 3968TIP3   OH211844   2.797   6.583   6.477
 3968TIP3    H111845   2.889   6.608   6.473
 3968TIP3    H211846   2.779   6.544   6.391
 3969TIP3   OH211847   2.981   5.940   3.416
 3969TIP3    H111848   2.931   5.873   3.463
 3969TIP3    H211849   2.995   6.009   3.481
 3970TIP3   OH211850   6.236   1.971   5.934
 3970TIP3    H111851   6.206   2.056   5.967
 3970TIP3    H211852   6.165   1.911   5.955
 3971TIP3   OH211853   5.891   5.383   0.940
 3971TIP3    H111854   5.949   5.322   0.894
 3971TIP3    H211855   5.842   5.327   1.001
 3972TIP3   OH211856   7.029   2.953   0.585
 3972TIP3    H111857   7.014   3.013   0.658
 3972TIP3    H211858   7.122   2.930   0.592
 3973TIP3   OH211859   5.932   6.016   4.324
 3973TIP3    H111860   6.013   6.062   4.347
 3973TIP3    H211861   5.959   5.957   4.253
 3974TIP3   OH211862   4.284   3.580   0.485
 3974TIP3    H111863   4.214   3.524   0.519
 3974TIP3    H211864   4.262   3.595   0.393
 3975TIP3   OH211865   7.155   5.537   2.010
 3975TIP3    H111866   7.102   5.458   1.997
 3975TIP3    H211867   7.194   5.525   2.097
 3976TIP3   OH211868   7.498   2.862   4.864
 3976TIP3    H111869   7.474   2.779   4.824
 3976TIP3    H211870   7.508   2.923   4.791
 3977TIP3   OH211871   4.483   2.307   3.520
 3977TIP3    H111872   4.412   2.259   3.477
 3977TIP3    H211873   4.520   2.243   3.581
 3978TIP3   OH211874   6.418   2.775   5.149
 3978TIP3    H111875   6.430   2.702   5.211
 3978TIP3    H211876   6.339   2.751   5.100
 3979TIP3   OH211877   4.057   7.304   6.352
 3979TIP3    H111878   4.059   7.397   6.328
 3979TIP3    H211879   4.080   7.302   6.444
 3980TIP3   OH211880   7.141   3.963   1.505
 3980TIP3    H111881   7.075   3.947   1.572
 3980TIP3    H211882   7.118   3.904   1.434
 3981TIP3   OH211883   6.542   3.144   4.411
 3981TIP3    H111884   6.606   3.197   4.365
 3981TIP3    H211885   6.568   3.150   4.503
 3982TIP3   OH211886   2.726   7.459   2.941
 3982TIP3    H111887   2.640   7.500   2.948
 3982TIP3    H211888   2.708   7.365   2.941
 3983TIP3   OH211889   7.844   3.559   4.156
 3983TIP3    H111890   7.829   3.615   4.232
 3983TIP3    H211891   7.914   3.500   4.183
 3984TIP3   OH211892   1.166   4.863   6.805
 3984TIP3    H111893   1.148   4.771   6.785
 3984TIP3    H211894   1.100   4.888   6.869
 3985TIP3   OH211895   6.668   3.561   3.215
 3985TIP3    H111896   6.638   3.648   3.244
 3985TIP3    H211897   6.616   3.544   3.136
 3986TIP3   OH211898   0.414   2.803   1.812
 3986TIP3    H111899   0.375   2.716   1.813
 3986TIP3    H211900   0.475   2.802   1.885
 3987TIP3   OH211901   5.411   3.536   3.026
 3987TIP3    H111902   5.358   3.611   2.999
 3987TIP3    H211903   5.376   3.511   3.111
 3988TIP3   OH211904   0.061   2.738   3.151
 3988TIP3    H111905   0.062   2.827   3.187
 3988TIP3    H211906   0.069   2.750   3.056
 3989TIP3   OH211907   6.497   0.494   5.451
 3989TIP3    H111908   6.508   0.568   5.511
 3989TIP3    H211909   6.458   0.426   5.505
 3990TIP3   OH211910   5.186   1.841   5.637
 3990TIP3    H111911   5.205   1.888   5.718
 3990TIP3    H211912   5.217   1.752   5.653
 3991TIP3   OH211913   4.948   7.655   1.684
 3991TIP3    H111914   4.985   7.691   1.764
 3991TIP3    H211915   4.904   7.575   1.712
 3992TIP3   OH211916   7.275   3.267   0.373
 3992TIP3    H111917   7.241   3.356   0.387
 3992TIP3    H211918   7.211   3.226   0.315
 3993TIP3   OH211919   0.187   4.176   2.156
 3993TIP3    H111920   0.218   4.244   2.217
 3993TIP3    H211921   0.118   4.130   2.204
 3994TIP3   OH211922   6.444   2.926   4.043
 3994TIP3    H111923   6.378   2.873   3.997
 3994TIP3    H211924   6.527   2.884   4.023
 3995TIP3   OH211925   3.849   6.145   5.468
 3995TIP3    H111926   3.929   6.161   5.417
 3995TIP3    H211927   3.852   6.209   5.539
 3996TIP3   OH211928   6.713   7.865   5.907
 3996TIP3    H111929   6.648   7.931   5.881
 3996TIP3    H211930   6.678   7.782   5.873
 3997TIP3   OH211931   1.584   4.729   1.997
 3997TIP3    H111932   1.588   4.790   2.070
 3997TIP3    H211933   1.531   4.775   1.931
 3998TIP3   OH211934   6.590   0.638   6.107
 3998TIP3    H111935   6.630   0.550   6.104
 3998TIP3    H211936   6.563   0.648   6.199
 3999TIP3   OH211937   7.270   1.890   6.330
 3999TIP3    H111938   7.234   1.967   6.285
 3999TIP3    H211939   7.364   1.905   6.331
 4000TIP3   OH211940   3.011   0.294   2.026
 4000TIP3    H111941   2.935   0.243   1.997
 4000TIP3    H211942   3.050   0.326   1.945
 4001TIP3   OH211943   5.943   5.447   2.674
 4001TIP3    H111944   6.030   5.408   2.685
 4001TIP3    H211945   5.958   5.542   2.682
 4002TIP3   OH211946   8.320   5.061   1.160
 4002TIP3    H111947   8.319   5.117   1.237
 4002TIP3    H211948   8.337   4.973   1.194
 4003TIP3   OH211949   5.803   4.607   6.468
 4003TIP3    H111950   5.751   4.678   6.431
 4003TIP3    H211951   5.742   4.534   6.478
 4004TIP3   OH211952   2.168   2.932   1.360
 4004TIP3    H111953   2.204   2.912   1.446
 4004TIP3    H211954   2.245   2.946   1.304
 4005TIP3   OH211955   4.856   1.546   0.901
 4005TIP3    H111956   4.939   1.504   0.882
 4005TIP3    H211957   4.796   1.511   0.835
 4006TIP3   OH211958   1.132   6.762   1.553
 4006TIP3    H111959   1.218   6.804   1.553
 4006TIP3    H211960   1.147   6.674   1.519
 4007TIP3   OH211961   5.504   7.039   5.640
 4007TIP3    H111962   5.514   7.080   5.726
 4007TIP3    H211963   5.431   6.978   5.651
 4008TIP3   OH211964   0.210   4.413   3.415
 4008TIP3    H111965   0.173   4.343   3.469
 4008TIP3    H211966   0.197   4.493   3.467
 4009TIP3   OH211967   5.528   5.428   0.739
 4009TIP3    H111968   5.493   5.512   0.769
 4009TIP3    H211969   5.605   5.451   0.687
 4010TIP3   OH211970   3.718   2.511   1.195
 4010TIP3    H111971   3.644   2.520   1.254
 4010TIP3    H211972   3.795   2.533   1.248
 4011TIP3   OH211973   4.277   1.695   1.263
 4011TIP3    H111974   4.357   1.729   1.223
 4011TIP3    H211975   4.285   1.600   1.257
 4012TIP3   OH211976   5.934   3.792   1.158
 4012TIP3    H111977   5.899   3.714   1.200
 4012TIP3    H211978   5.945   3.768   1.066
 4013TIP3   OH211979   3.279   2.193   0.989
 4013TIP3    H111980   3.204   2.193   0.930
 4013TIP3    H211981   3.289   2.285   1.014
 4014TIP3   OH211982   3.474   1.227   3.506
 4014TIP3    H111983   3.518   1.146   3.478
 4014TIP3    H211984   3.515   1.296   3.453
 4015TIP3   OH211985   3.095   4.831   5.082
 4015TIP3    H111986   3.024   4.889   5.109
 4015TIP3    H211987   3.067   4.744   5.109
 4016TIP3   OH211988   6.970   3.607   3.210
 4016TIP3    H111989   6.893   3.656   3.238
 4016TIP3    H211990   6.939   3.517   3.200
 4017TIP3   OH211991   0.205   5.694   5.636
 4017TIP3    H111992   0.188   5.616   5.584
 4017TIP3    H211993   0.156   5.764   5.591
 4018TIP3   OH211994   1.723   2.159   5.643
 4018TIP3    H111995   1.754   2.107   5.569
 4018TIP3    H211996   1.645   2.204   5.610
 4019TIP3   OH211997   4.431   2.490   0.826
 4019TIP3    H111998   4.353   2.460   0.873
 4019TIP3    H211999   4.467   2.411   0.787
 4020TIP3   OH212000   6.327   7.879   3.830
 4020TIP3    H112001   6.329   7.819   3.904
 4020TIP3    H212002   6.385   7.839   3.765
 4021TIP3   OH212003   0.268   2.232   3.467
 4021TIP3    H112004   0.188   2.196   3.427
 4021TIP3    H212005   0.251   2.326   3.474
 4022TIP3   OH212006   4.319   0.345   6.475
 4022TIP3    H112007   4.405   0.385   6.479
 4022TIP3    H212008   4.335   0.252   6.491
 4023TIP3   OH212009   2.640   1.482   2.524
 4023TIP3    H112010   2.575   1.532   2.475
 4023TIP3    H212011   2.610   1.488   2.615
 4024TIP3   OH212012   7.721   1.503   3.682
 4024TIP3    H112013   7.625   1.509   3.677
 4024TIP3    H212014   7.746   1.457   3.602
 4025TIP3   OH212015   7.227   2.352   4.478
 4025TIP3    H112016   7.305   2.308   4.445
 4025TIP3    H212017   7.177   2.283   4.521
 4026TIP3   OH212018   2.887   1.322   1.316
 4026TIP3    H112019   2.898   1.417   1.325
 4026TIP3    H212020   2.794   1.310   1.297
 4027TIP3   OH212021   5.635   0.335   3.607
 4027TIP3    H112022   5.664   0.339   3.516
 4027TIP3    H212023   5.673   0.254   3.641
 4028TIP3   OH212024   2.377   1.862   3.144
 4028TIP3    H112025   2.468   1.862   3.115
 4028TIP3    H212026   2.352   1.955   3.141
 4029TIP3   OH212027   4.412   5.635   2.958
 4029TIP3    H112028   4.359   5.589   3.024
 4029TIP3    H212029   4.452   5.565   2.907
 4030TIP3   OH212030   0.820   1.167   1.230
 4030TIP3    H112031   0.907   1.141   1.200
 4030TIP3    H212032   0.803   1.250   1.184
 4031TIP3   OH212033   2.614   1.252   1.285
 4031TIP3    H112034   2.608   1.178   1.345
 4031TIP3    H212035   2.566   1.224   1.207
 4032TIP3   OH212036   6.019   4.506   4.606
 4032TIP3    H112037   6.059   4.419   4.612
 4032TIP3    H212038   6.055   4.555   4.679
 4033TIP3   OH212039   7.456   4.478   6.809
 4033TIP3    H112040   7.473   4.462   6.716
 4033TIP3    H212041   7.379   4.535   6.809
 4034TIP3   OH212042   4.538   7.702   4.951
 4034TIP3    H112043   4.519   7.626   4.896
 4034TIP3    H212044   4.621   7.682   4.993
 4035TIP3   OH212045   0.436   6.670   4.698
 4035TIP3    H112046   0.367   6.634   4.642
 4035TIP3    H212047   0.403   6.755   4.726
 4036TIP3   OH212048   5.843   4.158   5.713
 4036TIP3    H112049   5.792   4.207   5.648
 4036TIP3    H212050   5.811   4.189   5.797
 4037TIP3   OH212051   0.141   4.368   5.605
 4037TIP3    H112052   0.115   4.457   5.630
 4037TIP3    H212053   0.234   4.364   5.625
 4038TIP3   OH212054   8.420   6.340   2.971
 4038TIP3    H112055   8.332   6.370   2.951
 4038TIP3    H212056   8.411   6.295   3.055
 4039TIP3   OH212057   0.553   1.222   3.529
 4039TIP3    H112058   0.623   1.241   3.467
 4039TIP3    H212059   0.595   1.228   3.615
 4040TIP3   OH212060   2.053   3.218   0.818
 4040TIP3    H112061   2.107   3.176   0.885
 4040TIP3    H212062   1.963   3.195   0.841
 4041TIP3   OH212063   5.293   0.120   1.755
 4041TIP3    H112064   5.328   0.074   1.832
 4041TIP3    H212065   5.210   0.157   1.785
 4042TIP3   OH212066   5.632   6.787   1.088
 4042TIP3    H112067   5.601   6.709   1.041
 4042TIP3    H212068   5.659   6.847   1.018
 4043TIP3   OH212069   6.216  -0.023   2.630
 4043TIP3    H112070   6.144  -0.043   2.690
 4043TIP3    H212071   6.183   0.049   2.576
 4044TIP3   OH212072   1.849   3.340   4.639
 4044TIP3    H112073   1.900   3.325   4.718
 4044TIP3    H212074   1.762   3.304   4.659
 4045TIP3   OH212075   2.765   7.833   1.427
 4045TIP3    H112076   2.840   7.893   1.433
 4045TIP3    H212077   2.689   7.891   1.426
 4046TIP3   OH212078   6.197   7.230   5.677
 4046TIP3    H112079   6.290   7.238   5.694
 4046TIP3    H212080   6.185   7.139   5.649
 4047TIP3   OH212081   6.542   1.738   1.703
 4047TIP3    H112082   6.598   1.809   1.672
 4047TIP3    H212083   6.487   1.716   1.628
 4048TIP3   OH212084   0.894   4.881   5.076
 4048TIP3    H112085   0.926   4.820   5.143
 4048TIP3    H212086   0.847   4.825   5.013
 4049TIP3   OH212087   2.412   2.614   2.959
 4049TIP3    H112088   2.461   2.570   2.890
 4049TIP3    H212089   2.325   2.574   2.956
 4050TIP3   OH212090   0.008   2.065   6.424
 4050TIP3    H112091  -0.071   2.013   6.439
 4050TIP3    H212092   0.075   2.001   6.402
 4051TIP3   OH212093   0.992   1.831   1.417
 4051TIP3    H112094   1.048   1.851   1.492
 4051TIP3    H212095   0.909   1.804   1.456
 4052TIP3   OH212096   8.135   7.379   3.592
 4052TIP3    H112097   8.091   7.323   3.527
 4052TIP3    H212098   8.116   7.468   3.563
 4053TIP3   OH212099   7.745   5.644   2.833
 4053TIP3    H112100   7.838   5.666   2.835
 4053TIP3    H212101   7.700   5.728   2.840
 4054TIP3   OH212102   4.045   3.046   0.189
 4054TIP3    H112103   3.962   3.092   0.177
 4054TIP3    H212104   4.058   3.045   0.284
 4055TIP3   OH212105   5.484   1.803   3.885
 4055TIP3    H112106   5.464   1.864   3.956
 4055TIP3    H212107   5.504   1.859   3.811
 4056TIP3   OH212108   2.018   0.357   6.186
 4056TIP3    H112109   1.934   0.384   6.222
 4056TIP3    H212110   2.079   0.359   6.260
 4057TIP3   OH212111   8.232   4.074   3.820
 4057TIP3    H112112   8.303   4.028   3.775
 4057TIP3    H212113   8.277   4.132   3.882
 4058TIP3   OH212114   8.271   1.770   5.088
 4058TIP3    H112115   8.182   1.742   5.063
 4058TIP3    H212116   8.311   1.798   5.005
 4059TIP3   OH212117   3.428   4.785   4.202
 4059TIP3    H112118   3.499   4.728   4.172
 4059TIP3    H212119   3.348   4.734   4.188
 4060TIP3   OH212120   1.454   5.322   4.988
 4060TIP3    H112121   1.501   5.343   5.068
 4060TIP3    H212122   1.399   5.247   5.012
 4061TIP3   OH212123   0.695   2.239   1.075
 4061TIP3    H112124   0.741   2.185   1.139
 4061TIP3    H212125   0.639   2.178   1.027
 4062TIP3   OH212126   2.195   2.568   5.257
 4062TIP3    H112127   2.245   2.597   5.181
 4062TIP3    H212128   2.257   2.575   5.330
 4063TIP3   OH212129   7.168   2.458   1.151
 4063TIP3    H112130   7.087   2.493   1.114
 4063TIP3    H212131   7.236   2.484   1.089
 4064TIP3   OH212132   6.460   0.973   2.756
 4064TIP3    H112133   6.450   1.054   2.706
 4064TIP3    H212134   6.470   1.002   2.847
 4065TIP3   OH212135   4.604   2.017   3.473
 4065TIP3    H112136   4.525   2.061   3.442
 4065TIP3    H212137   4.659   2.009   3.395
 4066TIP3   OH212138   0.075   1.554   2.653
 4066TIP3    H112139   0.118   1.639   2.652
 4066TIP3    H212140   0.018   1.556   2.730
 4067TIP3   OH212141   6.742   2.202   4.229
 4067TIP3    H112142   6.821   2.157   4.257
 4067TIP3    H212143   6.770   2.292   4.213
 4068TIP3   OH212144   3.023   0.290   0.900
 4068TIP3    H112145   2.968   0.289   0.821
 4068TIP3    H212146   2.987   0.361   0.953
 4069TIP3   OH212147   1.295   2.035   0.710
 4069TIP3    H112148   1.281   2.042   0.804
 4069TIP3    H212149   1.386   2.005   0.701
 4070TIP3   OH212150   4.541   5.418   0.655
 4070TIP3    H112151   4.530   5.331   0.691
 4070TIP3    H212152   4.512   5.477   0.724
 4071TIP3   OH212153   7.814   0.225   4.758
 4071TIP3    H112154   7.891   0.243   4.705
 4071TIP3    H212155   7.847   0.173   4.832
 4072TIP3   OH212156   3.275   1.413   4.093
 4072TIP3    H112157   3.207   1.425   4.027
 4072TIP3    H212158   3.244   1.341   4.147
 4073TIP3   OH212159   2.248   1.712   2.134
 4073TIP3    H112160   2.208   1.673   2.057
 4073TIP3    H212161   2.271   1.801   2.106
 4074TIP3   OH212162   8.092   0.277   0.395
 4074TIP3    H112163   8.086   0.342   0.465
 4074TIP3    H212164   8.041   0.315   0.323
 4075TIP3   OH212165   2.318   2.160   6.431
 4075TIP3    H112166   2.358   2.132   6.513
 4075TIP3    H212167   2.367   2.114   6.363
 4076TIP3   OH212168   5.180   6.291   1.574
 4076TIP3    H112169   5.134   6.367   1.539
 4076TIP3    H212170   5.115   6.247   1.629
 4077TIP3   OH212171   2.362   5.154   1.148
 4077TIP3    H112172   2.300   5.219   1.114
 4077TIP3    H212173   2.380   5.097   1.074
 4078TIP3   OH212174   1.259   4.019   4.674
 4078TIP3    H112175   1.215   3.952   4.621
 4078TIP3    H212176   1.266   3.979   4.761
 4079TIP3   OH212177   1.645   4.320   5.500
 4079TIP3    H112178   1.738   4.318   5.525
 4079TIP3    H212179   1.627   4.233   5.465
 4080TIP3   OH212180   6.336   1.654   6.078
 4080TIP3    H112181   6.404   1.643   6.011
 4080TIP3    H212182   6.289   1.733   6.051
 4081TIP3   OH212183   6.686   7.925   3.171
 4081TIP3    H112184   6.625   7.853   3.184
 4081TIP3    H212185   6.631   8.000   3.148
 4082TIP3   OH212186   7.597   3.659   6.288
 4082TIP3    H112187   7.507   3.627   6.293
 4082TIP3    H212188   7.634   3.641   6.374
 4083TIP3   OH212189   7.738   7.626   4.279
 4083TIP3    H112190   7.684   7.699   4.309
 4083TIP3    H212191   7.747   7.570   4.356
 4084TIP3   OH212192   6.803   6.037   3.117
 4084TIP3    H112193   6.786   5.954   3.163
 4084TIP3    H212194   6.767   6.104   3.175
 4085TIP3   OH212195   4.145   0.327   6.745
 4085TIP3    H112196   4.176   0.301   6.658
 4085TIP3    H212197   4.219   0.373   6.784
 4086TIP3   OH212198   1.779   7.611   3.060
 4086TIP3    H112199   1.766   7.622   2.965
 4086TIP3    H212200   1.841   7.538   3.067
 4087TIP3   OH212201   3.719   3.176   5.647
 4087TIP3    H112202   3.777   3.216   5.582
 4087TIP3    H212203   3.631   3.198   5.617
 4088TIP3   OH212204   3.712   5.479   3.173
 4088TIP3    H112205   3.692   5.526   3.254
 4088TIP3    H212206   3.743   5.547   3.113
 4089TIP3   OH212207   5.754   4.232   2.239
 4089TIP3    H112208   5.842   4.246   2.273
 4089TIP3    H212209   5.701   4.300   2.281
 4090TIP3   OH212210   8.169   3.089   6.308
 4090TIP3    H112211   8.139   3.166   6.355
 4090TIP3    H212212   8.101   3.023   6.326
 4091TIP3   OH212213   7.853   5.217   4.299
 4091TIP3    H112214   7.906   5.264   4.364
 4091TIP3    H212215   7.763   5.227   4.329
 4092TIP3   OH212216   7.966   6.734   6.650
 4092TIP3    H112217   7.893   6.672   6.646
 4092TIP3    H212218   8.039   6.682   6.684
 4093TIP3   OH212219   7.737   3.236   6.416
 4093TIP3    H112220   7.657   3.283   6.441
 4093TIP3    H212221   7.799   3.257   6.486
 4094TIP3   OH212222   3.680   5.147   4.157
 4094TIP3    H112223   3.738   5.114   4.225
 4094TIP3    H212224   3.593   5.141   4.195
 4095TIP3   OH212225   2.303   4.805   4.736
 4095TIP3    H112226   2.365   4.835   4.803
 4095TIP3    H212227   2.292   4.712   4.754
 4096TIP3   OH212228   3.838   2.461   6.583
 4096TIP3    H112229   3.805   2.550   6.576
 4096TIP3    H212230   3.932   2.469   6.567
 4097TIP3   OH212231   0.081   5.955   4.159
 4097TIP3    H112232   0.018   5.937   4.229
 4097TIP3    H212233   0.064   6.045   4.134
 4098TIP3   OH212234   6.773   1.216   1.100
 4098TIP3    H112235   6.821   1.293   1.072
 4098TIP3    H212236   6.824   1.142   1.067
 4099TIP3   OH212237   3.847   7.622   6.170
 4099TIP3    H112238   3.918   7.619   6.234
 4099TIP3    H212239   3.776   7.573   6.211
 4100TIP3   OH212240   2.306   5.559   4.754
 4100TIP3    H112241   2.328   5.488   4.814
 4100TIP3    H212242   2.253   5.619   4.806
 4101TIP3   OH212243   5.673   5.048   5.454
 4101TIP3    H112244   5.611   4.979   5.475
 4101TIP3    H212245   5.645   5.123   5.506
 4102TIP3   OH212246   1.014   4.503   5.807
 4102TIP3    H112247   0.956   4.567   5.767
 4102TIP3    H212248   1.088   4.495   5.746
 4103TIP3   OH212249   7.023   0.881   4.434
 4103TIP3    H112250   6.978   0.964   4.422
 4103TIP3    H212251   7.092   0.899   4.497
 4104TIP3   OH212252   3.691   0.117   4.903
 4104TIP3    H112253   3.620   0.054   4.918
 4104TIP3    H212254   3.723   0.137   4.991
 4105TIP3   OH212255   1.228   6.170   0.616
 4105TIP3    H112256   1.232   6.081   0.651
 4105TIP3    H212257   1.311   6.181   0.569
 4106TIP3   OH212258   4.908   0.749   0.119
 4106TIP3    H112259   4.975   0.753   0.188
 4106TIP3    H212260   4.924   0.665   0.075
 4107TIP3   OH212261   1.459   0.552   6.524
 4107TIP3    H112262   1.532   0.614   6.521
 4107TIP3    H212263   1.481   0.485   6.459
 4108TIP3   OH212264   7.671   1.760   4.114
 4108TIP3    H112265   7.594   1.817   4.115
 4108TIP3    H212266   7.711   1.776   4.028
 4109TIP3   OH212267   3.465   7.522   2.582
 4109TIP3    H112268   3.403   7.465   2.629
 4109TIP3    H212269   3.495   7.584   2.649
 4110TIP3   OH212270   3.652   2.476   1.993
 4110TIP3    H112271   3.710   2.444   2.062
 4110TIP3    H212272   3.689   2.440   1.912
 4111TIP3   OH212273   4.299   5.039   4.612
 4111TIP3    H112274   4.329   4.976   4.677
 4111TIP3    H212275   4.215   5.005   4.582
 4112TIP3   OH212276   1.586   5.112   1.322
 4112TIP3    H112277   1.550   5.197   1.298
 4112TIP3    H212278   1.530   5.049   1.275
 4113TIP3   OH212279   2.909   5.395   4.716
 4113TIP3    H112280   2.997   5.389   4.753
 4113TIP3    H212281   2.870   5.309   4.733
 4114TIP3   OH212282   4.143   4.378   4.760
 4114TIP3    H112283   4.081   4.336   4.699
 4114TIP3    H212284   4.200   4.431   4.704
 4115TIP3   OH212285   6.266   3.734   6.046
 4115TIP3    H112286   6.204   3.785   5.993
 4115TIP3    H212287   6.226   3.648   6.054
 4116TIP3   OH212288   4.004   4.314   3.962
 4116TIP3    H112289   4.000   4.387   4.024
 4116TIP3    H212290   4.056   4.348   3.889
 4117TIP3   OH212291   0.045   3.583   1.838
 4117TIP3    H112292   0.022   3.653   1.899
 4117TIP3    H212293  -0.039   3.543   1.815
 4118TIP3   OH212294   1.315   5.985   4.938
 4118TIP3    H112295   1.298   6.061   4.882
 4118TIP3    H212296   1.241   5.926   4.921
 4119TIP3   OH212297   0.578   1.023   4.080
 4119TIP3    H112298   0.618   0.942   4.112
 4119TIP3    H212299   0.549   1.068   4.159
 4120TIP3   OH212300   2.205   7.498   0.388
 4120TIP3    H112301   2.113   7.471   0.393
 4120TIP3    H212302   2.232   7.505   0.480
 4121TIP3   OH212303   6.985   0.531   0.434
 4121TIP3    H112304   7.033   0.456   0.399
 4121TIP3    H212305   6.906   0.537   0.379
 4122TIP3   OH212306   3.674   7.642   3.303
 4122TIP3    H112307   3.705   7.654   3.213
 4122TIP3    H212308   3.694   7.725   3.346
 4123TIP3   OH212309   0.493   3.309   3.669
 4123TIP3    H112310   0.397   3.304   3.676
 4123TIP3    H212311   0.524   3.254   3.740
 4124TIP3   OH212312   1.827   0.739   3.214
 4124TIP3    H112313   1.851   0.762   3.304
 4124TIP3    H212314   1.812   0.645   3.217
 4125TIP3   OH212315   4.316   2.137   0.489
 4125TIP3    H112316   4.283   2.068   0.547
 4125TIP3    H212317   4.258   2.212   0.505
 4126TIP3   OH212318   8.151   0.185   0.885
 4126TIP3    H112319   8.130   0.275   0.858
 4126TIP3    H212320   8.186   0.145   0.806
 4127TIP3   OH212321   1.567   0.974   6.095
 4127TIP3    H112322   1.472   0.979   6.086
 4127TIP3    H212323   1.586   0.880   6.095
 4128TIP3   OH212324   3.087   7.582   3.454
 4128TIP3    H112325   3.027   7.648   3.421
 4128TIP3    H212326   3.119   7.617   3.537
 4129TIP3   OH212327   4.861   4.738   1.243
 4129TIP3    H112328   4.803   4.748   1.319
 4129TIP3    H212329   4.804   4.757   1.168
 4130TIP3   OH212330   0.273   7.770   5.938
 4130TIP3    H112331   0.226   7.689   5.917
 4130TIP3    H212332   0.356   7.741   5.977
 4131TIP3   OH212333   7.129   2.714   6.400
 4131TIP3    H112334   7.156   2.677   6.484
 4131TIP3    H212335   7.158   2.650   6.336
 4132TIP3   OH212336   5.293   7.843   6.581
 4132TIP3    H112337   5.197   7.839   6.577
 4132TIP3    H212338   5.312   7.925   6.626
 4133TIP3   OH212339   7.393   3.572   6.545
 4133TIP3    H112340   7.348   3.603   6.623
 4133TIP3    H212341   7.486   3.580   6.566
 4134TIP3   OH212342   2.075   2.906   5.522
 4134TIP3    H112343   2.031   2.867   5.597
 4134TIP3    H212344   2.040   2.858   5.446
 4135TIP3   OH212345   2.169   3.061   1.668
 4135TIP3    H112346   2.226   2.984   1.669
 4135TIP3    H212347   2.229   3.135   1.680
 4136TIP3   OH212348   2.268   2.867   4.542
 4136TIP3    H112349   2.180   2.838   4.517
 4136TIP3    H212350   2.318   2.864   4.460
 4137TIP3   OH212351   7.871   3.850   4.972
 4137TIP3    H112352   7.803   3.859   5.038
 4137TIP3    H212353   7.909   3.938   4.965
 4138TIP3   OH212354   8.291   3.025   0.856
 4138TIP3    H112355   8.242   3.083   0.914
 4138TIP3    H212356   8.314   2.950   0.911
 4139TIP3   OH212357   7.982   1.568   2.722
 4139TIP3    H112358   7.902   1.614   2.744
 4139TIP3    H212359   8.049   1.606   2.779
 4140TIP3   OH212360   3.409   0.574   6.329
 4140TIP3    H112361   3.330   0.568   6.276
 4140TIP3    H212362   3.441   0.664   6.315
 4141TIP3   OH212363   3.382   2.539   0.380
 4141TIP3    H112364   3.385   2.579   0.293
 4141TIP3    H212365   3.419   2.606   0.438
 4142TIP3   OH212366   2.582   0.469   1.502
 4142TIP3    H112367   2.496   0.502   1.528
 4142TIP3    H212368   2.622   0.439   1.583
 4143TIP3   OH212369   1.695   3.844   5.987
 4143TIP3    H112370   1.760   3.860   5.919
 4143TIP3    H212371   1.629   3.790   5.944
 4144TIP3   OH212372   7.105   2.606   0.882
 4144TIP3    H112373   7.165   2.656   0.827
 4144TIP3    H212374   7.051   2.672   0.926
 4145TIP3   OH212375   3.436   4.601   3.331
 4145TIP3    H112376   3.474   4.633   3.250
 4145TIP3    H212377   3.498   4.535   3.362
 4146TIP3   OH212378   5.527   5.903   5.734
 4146TIP3    H112379   5.491   5.892   5.822
 4146TIP3    H212380   5.589   5.831   5.724
 4147TIP3   OH212381   8.395   4.422   1.851
 4147TIP3    H112382   8.304   4.396   1.868
 4147TIP3    H212383   8.419   4.475   1.927
 4148TIP3   OH212384   5.435   4.865   4.295
 4148TIP3    H112385   5.412   4.957   4.309
 4148TIP3    H212386   5.451   4.858   4.201
 4149TIP3   OH212387   3.753   1.105   1.069
 4149TIP3    H112388   3.668   1.109   1.026
 4149TIP3    H212389   3.797   1.031   1.027
 4150TIP3   OH212390   1.460   0.485   0.294
 4150TIP3    H112391   1.449   0.400   0.337
 4150TIP3    H212392   1.435   0.549   0.360
 4151TIP3   OH212393   7.842   6.052   6.516
 4151TIP3    H112394   7.929   6.012   6.504
 4151TIP3    H212395   7.850   6.139   6.478
 4152TIP3   OH212396   8.155   2.015   4.518
 4152TIP3    H112397   8.171   1.929   4.556
 4152TIP3    H212398   8.158   2.075   4.593
 4153TIP3   OH212399   0.930   2.859   0.618
 4153TIP3    H112400   0.879   2.801   0.675
 4153TIP3    H212401   0.971   2.922   0.678
 4154TIP3   OH212402   3.314   6.047   4.616
 4154TIP3    H112403   3.274   5.962   4.600
 4154TIP3    H212404   3.377   6.032   4.687
 4155TIP3   OH212405   1.389   4.552   3.291
 4155TIP3    H112406   1.461   4.600   3.252
 4155TIP3    H212407   1.431   4.489   3.349
 4156TIP3   OH212408   6.548   2.704   2.270
 4156TIP3    H112409   6.492   2.767   2.316
 4156TIP3    H212410   6.532   2.621   2.315
 4157TIP3   OH212411   0.378   5.812   6.093
 4157TIP3    H112412   0.430   5.892   6.105
 4157TIP3    H212413   0.363   5.807   5.999
 4158TIP3   OH212414   5.725   1.381   5.255
 4158TIP3    H112415   5.788   1.451   5.270
 4158TIP3    H212416   5.710   1.343   5.342
 4159TIP3   OH212417   3.258   6.554   2.654
 4159TIP3    H112418   3.199   6.529   2.725
 4159TIP3    H212419   3.201   6.589   2.585
 4160TIP3   OH212420   3.860   0.093   1.969
 4160TIP3    H112421   3.813   0.010   1.977
 4160TIP3    H212422   3.794   0.160   1.988
 4161TIP3   OH212423   2.271   7.799   5.593
 4161TIP3    H112424   2.361   7.830   5.594
 4161TIP3    H212425   2.277   7.704   5.586
 4162TIP3   OH212426   4.476   1.038   2.003
 4162TIP3    H112427   4.537   0.993   2.061
 4162TIP3    H212428   4.512   1.127   1.994
 4163TIP3   OH212429   0.957   7.226   2.711
 4163TIP3    H112430   1.000   7.141   2.711
 4163TIP3    H212431   1.005   7.278   2.776
 4164TIP3   OH212432   1.300   1.502   0.495
 4164TIP3    H112433   1.213   1.524   0.528
 4164TIP3    H212434   1.314   1.564   0.423
 4165TIP3   OH212435   3.487   3.828   6.057
 4165TIP3    H112436   3.440   3.762   6.109
 4165TIP3    H212437   3.431   3.905   6.062
 4166TIP3   OH212438   8.024   0.660   0.507
 4166TIP3    H112439   8.035   0.646   0.601
 4166TIP3    H212440   7.930   0.668   0.494
 4167TIP3   OH212441   3.692   5.072   6.128
 4167TIP3    H112442   3.700   5.060   6.034
 4167TIP3    H212443   3.758   5.012   6.165
 4168TIP3   OH212444   7.349   4.308   0.105
 4168TIP3    H112445   7.321   4.308   0.196
 4168TIP3    H212446   7.331   4.219   0.074
 4169TIP3   OH212447   1.657   3.881   2.310
 4169TIP3    H112448   1.735   3.920   2.269
 4169TIP3    H212449   1.628   3.815   2.248
 4170TIP3   OH212450   2.805   3.914   5.571
 4170TIP3    H112451   2.797   3.990   5.513
 4170TIP3    H212452   2.873   3.939   5.633
 4171TIP3   OH212453   0.088   6.485   5.275
 4171TIP3    H112454   0.106   6.401   5.233
 4171TIP3    H212455   0.002   6.510   5.241
 4172TIP3   OH212456   1.810   4.995   5.399
 4172TIP3    H112457   1.821   4.900   5.409
 4172TIP3    H212458   1.857   5.032   5.474
 4173TIP3   OH212459   1.465   6.384   0.312
 4173TIP3    H112460   1.446   6.388   0.219
 4173TIP3    H212461   1.494   6.294   0.326
 4174TIP3   OH212462   1.375   6.203   5.158
 4174TIP3    H112463   1.375   6.155   5.240
 4174TIP3    H212464   1.372   6.135   5.090
 4175TIP3   OH212465   4.378   3.001   0.757
 4175TIP3    H112466   4.438   2.959   0.819
 4175TIP3    H212467   4.380   2.945   0.680
 4176TIP3   OH212468   4.301   2.185   1.063
 4176TIP3    H112469   4.367   2.234   1.112
 4176TIP3    H212470   4.333   2.185   0.973
 4177TIP3   OH212471   3.279   3.504   5.509
 4177TIP3    H112472   3.325   3.503   5.425
 4177TIP3    H212473   3.193   3.542   5.488
 4178TIP3   OH212474   1.367   7.562   1.521
 4178TIP3    H112475   1.453   7.524   1.503
 4178TIP3    H212476   1.305   7.490   1.507
 4179TIP3   OH212477   3.976   0.149   2.579
 4179TIP3    H112478   3.923   0.229   2.579
 4179TIP3    H212479   3.912   0.078   2.582
 4180TIP3   OH212480   0.168   0.719   2.052
 4180TIP3    H112481   0.108   0.645   2.042
 4180TIP3    H212482   0.245   0.695   1.999
 4181TIP3   OH212483   6.947   7.181   0.371
 4181TIP3    H112484   6.865   7.174   0.321
 4181TIP3    H212485   7.008   7.222   0.310
 4182TIP3   OH212486   8.337   3.509   4.920
 4182TIP3    H112487   8.332   3.465   5.005
 4182TIP3    H212488   8.314   3.600   4.939
 4183TIP3   OH212489   0.470   2.083   0.359
 4183TIP3    H112490   0.451   2.154   0.420
 4183TIP3    H212491   0.394   2.078   0.302
 4184TIP3   OH212492   1.148   3.591   3.423
 4184TIP3    H112493   1.066   3.547   3.399
 4184TIP3    H212494   1.216   3.526   3.406
 4185TIP3   OH212495   6.975   5.268   0.923
 4185TIP3    H112496   7.043   5.311   0.975
 4185TIP3    H212497   6.896   5.279   0.975
 4186TIP3   OH212498   1.381   1.719   0.873
 4186TIP3    H112499   1.454   1.658   0.869
 4186TIP3    H212500   1.407   1.792   0.816
 4187TIP3   OH212501   4.736   2.371   5.773
 4187TIP3    H112502   4.738   2.355   5.867
 4187TIP3    H212503   4.686   2.298   5.737
 4188TIP3   OH212504   8.361   5.147   1.910
 4188TIP3    H112505   8.450   5.129   1.939
 4188TIP3    H212506   8.309   5.146   1.990
 4189TIP3   OH212507   8.085   6.345   6.046
 4189TIP3    H112508   8.078   6.279   5.977
 4189TIP3    H212509   8.015   6.407   6.028
 4190TIP3   OH212510   6.259   4.482   1.934
 4190TIP3    H112511   6.343   4.523   1.913
 4190TIP3    H212512   6.221   4.461   1.848
 4191TIP3   OH212513   2.105   7.002   0.274
 4191TIP3    H112514   2.047   6.927   0.269
 4191TIP3    H212515   2.047   7.077   0.287
 4192TIP3   OH212516   1.854   2.677   1.245
 4192TIP3    H112517   1.860   2.657   1.339
 4192TIP3    H212518   1.802   2.758   1.242
 4193TIP3   OH212519   1.048   5.566   3.786
 4193TIP3    H112520   0.988   5.492   3.783
 4193TIP3    H212521   1.059   5.585   3.879
 4194TIP3   OH212522   7.136   2.373   0.180
 4194TIP3    H112523   7.215   2.414   0.144
 4194TIP3    H212524   7.066   2.436   0.163
 4195TIP3   OH212525   7.436   6.129   4.912
 4195TIP3    H112526   7.532   6.134   4.911
 4195TIP3    H212527   7.417   6.035   4.910
 4196TIP3   OH212528   1.394   3.629   2.660
 4196TIP3    H112529   1.347   3.652   2.580
 4196TIP3    H212530   1.477   3.677   2.653
 4197TIP3   OH212531   0.141   3.389   2.161
 4197TIP3    H112532   0.071   3.450   2.183
 4197TIP3    H212533   0.169   3.415   2.074
 4198TIP3   OH212534   3.780   3.071   3.088
 4198TIP3    H112535   3.743   3.065   3.177
 4198TIP3    H212536   3.852   3.133   3.097
 4199TIP3   OH212537   6.367   1.912   5.014
 4199TIP3    H112538   6.346   1.851   4.944
 4199TIP3    H212539   6.412   1.859   5.080
 4200TIP3   OH212540   4.103   7.399   2.572
 4200TIP3    H112541   4.050   7.425   2.648
 4200TIP3    H212542   4.074   7.458   2.502
 4201TIP3   OH212543   7.832   3.721   4.365
 4201TIP3    H112544   7.759   3.782   4.350
 4201TIP3    H212545   7.878   3.758   4.440
 4202TIP3   OH212546   7.207   6.531   1.149
 4202TIP3    H112547   7.195   6.451   1.200
 4202TIP3    H212548   7.296   6.524   1.113
 4203TIP3   OH212549   3.963   4.828   2.947
 4203TIP3    H112550   4.057   4.831   2.931
 4203TIP3    H212551   3.954   4.845   3.041
 4204TIP3   OH212552   2.603   3.880   1.976
 4204TIP3    H112553   2.634   3.847   2.060
 4204TIP3    H212554   2.671   3.856   1.913
 4205TIP3   OH212555   7.027   0.692   2.085
 4205TIP3    H112556   6.938   0.663   2.065
 4205TIP3    H212557   7.016   0.762   2.149
 4206TIP3   OH212558   1.979   6.047   4.768
 4206TIP3    H112559   2.044   6.108   4.732
 4206TIP3    H212560   1.913   6.039   4.699
 4207TIP3   OH212561   5.093   4.209   2.176
 4207TIP3    H112562   5.032   4.159   2.229
 4207TIP3    H212563   5.082   4.300   2.205
 4208TIP3   OH212564   2.083   4.401   3.651
 4208TIP3    H112565   2.050   4.449   3.727
 4208TIP3    H212566   2.072   4.308   3.675
 4209TIP3   OH212567   2.017   5.852   1.347
 4209TIP3    H112568   1.998   5.760   1.363
 4209TIP3    H212569   1.933   5.897   1.360
 4210TIP3   OH212570   6.911   3.968   6.164
 4210TIP3    H112571   6.939   4.059   6.171
 4210TIP3    H212572   6.992   3.918   6.163
 4211TIP3   OH212573   6.232   7.873   4.991
 4211TIP3    H112574   6.283   7.896   5.068
 4211TIP3    H212575   6.141   7.888   5.017
 4212TIP3   OH212576   5.141   2.585   2.312
 4212TIP3    H112577   5.219   2.639   2.300
 4212TIP3    H212578   5.160   2.504   2.265
 4213TIP3   OH212579   1.520   0.701   5.083
 4213TIP3    H112580   1.541   0.747   5.001
 4213TIP3    H212581   1.492   0.771   5.142
 4214TIP3   OH212582   1.160   2.015   4.023
 4214TIP3    H112583   1.235   1.957   4.010
 4214TIP3    H212584   1.147   2.057   3.938
 4215TIP3   OH212585   0.872   7.129   6.592
 4215TIP3    H112586   0.912   7.191   6.653
 4215TIP3    H212587   0.944   7.070   6.568
 4216TIP3   OH212588   7.802   2.017   2.955
 4216TIP3    H112589   7.894   2.036   2.974
 4216TIP3    H212590   7.760   2.012   3.041
 4217TIP3   OH212591   1.419   2.786   6.804
 4217TIP3    H112592   1.324   2.787   6.794
 4217TIP3    H212593   1.451   2.854   6.745
 4218TIP3   OH212594   5.572   3.902   3.414
 4218TIP3    H112595   5.656   3.912   3.369
 4218TIP3    H212596   5.554   3.989   3.450
 4219TIP3   OH212597   6.607   1.790   6.169
 4219TIP3    H112598   6.532   1.786   6.228
 4219TIP3    H212599   6.571   1.822   6.087
 4220TIP3   OH212600   6.098   6.581   5.633
 4220TIP3    H112601   6.125   6.531   5.556
 4220TIP3    H212602   6.079   6.669   5.600
 4221TIP3   OH212603   7.776   2.245   0.813
 4221TIP3    H112604   7.816   2.158   0.822
 4221TIP3    H212605   7.688   2.228   0.780
 4222TIP3   OH212606   1.736   5.815   0.153
 4222TIP3    H112607   1.779   5.846   0.073
 4222TIP3    H212608   1.754   5.721   0.155
 4223TIP3   OH212609   4.386   5.299   5.502
 4223TIP3    H112610   4.303   5.341   5.480
 4223TIP3    H212611   4.409   5.247   5.425
 4224TIP3   OH212612   3.136   7.612   3.083
 4224TIP3    H112613   3.176   7.582   3.165
 4224TIP3    H212614   3.047   7.576   3.085
 4225TIP3   OH212615   1.716   4.624   4.628
 4225TIP3    H112616   1.810   4.617   4.643
 4225TIP3    H212617   1.677   4.609   4.714
 4226TIP3   OH212618   5.749   5.633   2.419
 4226TIP3    H112619   5.735   5.548   2.378
 4226TIP3    H212620   5.809   5.615   2.491
 4227TIP3   OH212621   2.030   5.588   1.437
 4227TIP3    H112622   1.941   5.582   1.471
 4227TIP3    H212623   2.023   5.561   1.345
 4228TIP3   OH212624   8.246   7.926   0.081
 4228TIP3    H112625   8.217   7.890  -0.003
 4228TIP3    H212626   8.254   7.850   0.139
 4229TIP3   OH212627   7.197   2.827   3.281
 4229TIP3    H112628   7.112   2.828   3.238
 4229TIP3    H212629   7.229   2.917   3.272
 4230TIP3   OH212630   2.174   7.185   3.697
 4230TIP3    H112631   2.194   7.134   3.776
 4230TIP3    H212632   2.100   7.140   3.657
 4231TIP3   OH212633   3.365   4.565   5.345
 4231TIP3    H112634   3.425   4.498   5.312
 4231TIP3    H212635   3.348   4.621   5.270
 4232TIP3   OH212636   5.959   4.915   5.960
 4232TIP3    H112637   5.936   4.916   6.052
 4232TIP3    H212638   5.989   5.004   5.942
 4233TIP3   OH212639   6.858   2.470   1.522
 4233TIP3    H112640   6.832   2.492   1.433
 4233TIP3    H212641   6.869   2.554   1.566
 4234TIP3   OH212642   0.802   4.855   0.189
 4234TIP3    H112643   0.769   4.940   0.161
 4234TIP3    H212644   0.748   4.832   0.264
 4235TIP3   OH212645   6.977   1.854   4.002
 4235TIP3    H112646   7.051   1.841   3.943
 4235TIP3    H212647   6.900   1.858   3.945
 4236TIP3   OH212648   4.616   0.972   0.172
 4236TIP3    H112649   4.710   0.969   0.189
 4236TIP3    H212650   4.577   0.925   0.246
 4237TIP3   OH212651   7.000   2.918   1.249
 4237TIP3    H112652   7.076   2.908   1.306
 4237TIP3    H212653   7.037   2.920   1.161
 4238TIP3   OH212654   6.954   1.259   2.539
 4238TIP3    H112655   6.868   1.220   2.524
 4238TIP3    H212656   6.945   1.350   2.508
 4239TIP3   OH212657   3.987   2.379   5.241
 4239TIP3    H112658   3.986   2.440   5.315
 4239TIP3    H212659   3.947   2.429   5.169
 4240TIP3   OH212660   5.778   4.607   6.144
 4240TIP3    H112661   5.715   4.659   6.193
 4240TIP3    H212662   5.781   4.523   6.190
 4241TIP3   OH212663   2.127   7.463   4.403
 4241TIP3    H112664   2.140   7.397   4.335
 4241TIP3    H212665   2.076   7.532   4.361
 4242TIP3   OH212666   6.731   7.143   2.619
 4242TIP3    H112667   6.681   7.169   2.541
 4242TIP3    H212668   6.815   7.114   2.585
 4243TIP3   OH212669   1.942   0.742   5.327
 4243TIP3    H112670   1.922   0.798   5.401
 4243TIP3    H212671   1.906   0.788   5.251
 4244TIP3   OH212672   7.278   1.789   0.308
 4244TIP3    H112673   7.243   1.785   0.397
 4244TIP3    H212674   7.343   1.718   0.305
 4245TIP3   OH212675   6.311   0.835   5.527
 4245TIP3    H112676   6.291   0.765   5.465
 4245TIP3    H212677   6.378   0.797   5.584
 4246TIP3   OH212678   1.884   2.221   4.902
 4246TIP3    H112679   1.810   2.199   4.957
 4246TIP3    H212680   1.937   2.142   4.900
 4247TIP3   OH212681   4.256   5.365   6.256
 4247TIP3    H112682   4.308   5.424   6.201
 4247TIP3    H212683   4.172   5.358   6.210
 4248TIP3   OH212684   0.961   6.034   6.341
 4248TIP3    H112685   0.942   5.951   6.297
 4248TIP3    H212686   0.875   6.068   6.364
 4249TIP3   OH212687   0.720   2.018   1.729
 4249TIP3    H112688   0.687   2.108   1.732
 4249TIP3    H212689   0.815   2.027   1.722
 4250TIP3   OH212690   6.474   7.218   4.127
 4250TIP3    H112691   6.496   7.203   4.219
 4250TIP3    H212692   6.551   7.262   4.090
 4251TIP3   OH212693   4.305   0.775   5.533
 4251TIP3    H112694   4.278   0.845   5.591
 4251TIP3    H212695   4.389   0.804   5.497
 4252TIP3   OH212696   6.254   4.907   1.116
 4252TIP3    H112697   6.248   4.861   1.032
 4252TIP3    H212698   6.164   4.912   1.147
 4253TIP3   OH212699   3.762   3.917   4.330
 4253TIP3    H112700   3.728   3.834   4.297
 4253TIP3    H212701   3.856   3.912   4.314
 4254TIP3   OH212702   7.623   5.165   3.201
 4254TIP3    H112703   7.688   5.171   3.131
 4254TIP3    H212704   7.559   5.101   3.169
 4255TIP3   OH212705   5.606   1.448   0.162
 4255TIP3    H112706   5.671   1.446   0.092
 4255TIP3    H212707   5.646   1.397   0.233
 4256TIP3   OH212708   2.539   5.194   4.671
 4256TIP3    H112709   2.632   5.173   4.681
 4256TIP3    H212710   2.539   5.279   4.626
 4257TIP3   OH212711   3.630   4.877   0.710
 4257TIP3    H112712   3.596   4.899   0.623
 4257TIP3    H212713   3.675   4.957   0.739
 4258TIP3   OH212714   2.710   6.298   2.037
 4258TIP3    H112715   2.627   6.341   2.018
 4258TIP3    H212716   2.701   6.263   2.125
 4259TIP3   OH212717   1.941   1.441   5.138
 4259TIP3    H112718   2.000   1.434   5.213
 4259TIP3    H212719   1.950   1.531   5.108
 4260TIP3   OH212720   2.902   6.106   6.745
 4260TIP3    H112721   2.833   6.051   6.709
 4260TIP3    H212722   2.887   6.106   6.839
 4261TIP3   OH212723   1.920   2.009   2.410
 4261TIP3    H112724   1.863   2.071   2.364
 4261TIP3    H212725   1.866   1.974   2.481
 4262TIP3   OH212726   6.759   5.874   0.057
 4262TIP3    H112727   6.755   5.868   0.152
 4262TIP3    H212728   6.671   5.851   0.028
 4263TIP3   OH212729   3.881   6.274   1.168
 4263TIP3    H112730   3.841   6.332   1.103
 4263TIP3    H212731   3.900   6.194   1.119
 4264TIP3   OH212732   3.108   4.422   1.860
 4264TIP3    H112733   3.109   4.326   1.865
 4264TIP3    H212734   3.019   4.443   1.831
 4265TIP3   OH212735   2.706   7.609   6.772
 4265TIP3    H112736   2.721   7.675   6.840
 4265TIP3    H212737   2.741   7.528   6.809
 4266TIP3   OH212738   0.407   2.659   0.515
 4266TIP3    H112739   0.468   2.611   0.572
 4266TIP3    H212740   0.388   2.739   0.564
 4267TIP3   OH212741   2.056   0.305   0.163
 4267TIP3    H112742   1.997   0.240   0.124
 4267TIP3    H212743   2.012   0.331   0.244
 4268TIP3   OH212744   6.941   5.326   0.228
 4268TIP3    H112745   6.869   5.375   0.187
 4268TIP3    H212746   6.954   5.250   0.171
 4269TIP3   OH212747   5.929   6.367   3.021
 4269TIP3    H112748   5.962   6.278   3.027
 4269TIP3    H212749   5.999   6.421   3.059
 4270TIP3   OH212750   6.140   0.267   3.377
 4270TIP3    H112751   6.160   0.356   3.407
 4270TIP3    H212752   6.159   0.268   3.283
 4271TIP3   OH212753   2.903   1.117   5.948
 4271TIP3    H112754   2.881   1.045   5.889
 4271TIP3    H212755   2.907   1.194   5.891
 4272TIP3   OH212756   3.107   2.741   5.064
 4272TIP3    H112757   3.192   2.754   5.022
 4272TIP3    H212758   3.045   2.733   4.992
 4273TIP3   OH212759   0.197   7.551   4.138
 4273TIP3    H112760   0.287   7.556   4.170
 4273TIP3    H212761   0.188   7.463   4.104
 4274TIP3   OH212762   0.785   5.767   1.277
 4274TIP3    H112763   0.715   5.815   1.322
 4274TIP3    H212764   0.753   5.677   1.275
 4275TIP3   OH212765   0.154   7.258   6.659
 4275TIP3    H112766   0.091   7.221   6.597
 4275TIP3    H212767   0.234   7.207   6.645
 4276TIP3   OH212768   6.278   6.346   1.620
 4276TIP3    H112769   6.277   6.259   1.660
 4276TIP3    H212770   6.276   6.329   1.526
 4277TIP3   OH212771   3.312   5.102   3.222
 4277TIP3    H112772   3.368   5.176   3.199
 4277TIP3    H212773   3.224   5.139   3.226
 4278TIP3   OH212774   3.539   0.436   6.523
 4278TIP3    H112775   3.493   0.472   6.448
 4278TIP3    H212776   3.632   0.441   6.499
 4279TIP3   OH212777   7.764   5.428   1.998
 4279TIP3    H112778   7.758   5.513   1.954
 4279TIP3    H212779   7.851   5.427   2.037
 4280TIP3   OH212780   2.876   0.221   2.396
 4280TIP3    H112781   2.868   0.257   2.484
 4280TIP3    H212782   2.821   0.143   2.396
 4281TIP3   OH212783   0.137   6.541   6.392
 4281TIP3    H112784   0.182   6.624   6.411
 4281TIP3    H212785   0.119   6.545   6.298
 4282TIP3   OH212786   5.625   6.525   3.417
 4282TIP3    H112787   5.676   6.601   3.388
 4282TIP3    H212788   5.548   6.525   3.359
 4283TIP3   OH212789   3.838   6.781   3.238
 4283TIP3    H112790   3.848   6.755   3.146
 4283TIP3    H212791   3.745   6.770   3.256
 4284TIP3   OH212792   0.684   0.078   5.882
 4284TIP3    H112793   0.679   0.147   5.948
 4284TIP3    H212794   0.719   0.002   5.929
 4285TIP3   OH212795   4.663   7.812   3.503
 4285TIP3    H112796   4.752   7.841   3.483
 4285TIP3    H212797   4.609   7.891   3.495
 4286TIP3   OH212798   7.274   0.645   2.204
 4286TIP3    H112799   7.188   0.668   2.169
 4286TIP3    H212800   7.260   0.560   2.246
 4287TIP3   OH212801   3.959   5.553   4.720
 4287TIP3    H112802   3.930   5.643   4.739
 4287TIP3    H212803   3.888   5.516   4.669
 4288TIP3   OH212804   5.390   5.059   4.641
 4288TIP3    H112805   5.365   5.124   4.575
 4288TIP3    H212806   5.483   5.043   4.625
 4289TIP3   OH212807   4.471   0.699   5.091
 4289TIP3    H112808   4.503   0.788   5.083
 4289TIP3    H212809   4.487   0.676   5.183
 4290TIP3   OH212810   3.053   7.437   5.674
 4290TIP3    H112811   3.025   7.502   5.738
 4290TIP3    H212812   3.108   7.376   5.724
 4291TIP3   OH212813   2.868   4.693   6.286
 4291TIP3    H112814   2.943   4.634   6.284
 4291TIP3    H212815   2.805   4.655   6.224
 4292TIP3   OH212816   0.533   4.949   4.907
 4292TIP3    H112817   0.573   5.002   4.976
 4292TIP3    H212818   0.439   4.969   4.913
 4293TIP3   OH212819   5.411   3.118   0.622
 4293TIP3    H112820   5.347   3.162   0.679
 4293TIP3    H212821   5.361   3.097   0.543
 4294TIP3   OH212822   4.324   4.994   4.275
 4294TIP3    H112823   4.418   4.977   4.285
 4294TIP3    H212824   4.309   5.076   4.322
 4295TIP3   OH212825   3.918   5.621   3.689
 4295TIP3    H112826   3.913   5.567   3.610
 4295TIP3    H212827   3.893   5.562   3.760
 4296TIP3   OH212828   0.543   3.515   4.947
 4296TIP3    H112829   0.566   3.603   4.914
 4296TIP3    H212830   0.481   3.532   5.018
 4297TIP3   OH212831   2.261   2.178   5.045
 4297TIP3    H112832   2.263   2.259   4.994
 4297TIP3    H212833   2.342   2.133   5.022
 4298TIP3   OH212834   6.818   6.865   0.210
 4298TIP3    H112835   6.834   6.856   0.304
 4298TIP3    H212836   6.807   6.959   0.196
 4299TIP3   OH212837   5.004   1.803   3.600
 4299TIP3    H112838   4.950   1.835   3.672
 4299TIP3    H212839   4.941   1.769   3.536
 4300TIP3   OH212840   1.505   7.448   3.893
 4300TIP3    H112841   1.419   7.489   3.901
 4300TIP3    H212842   1.566   7.521   3.887
 4301TIP3   OH212843   0.533   2.920   1.408
 4301TIP3    H112844   0.519   3.007   1.371
 4301TIP3    H212845   0.478   2.918   1.486
 4302TIP3   OH212846   7.360   7.462   1.371
 4302TIP3    H112847   7.333   7.516   1.298
 4302TIP3    H212848   7.278   7.433   1.411
 4303TIP3   OH212849   7.973   1.418   1.856
 4303TIP3    H112850   8.063   1.413   1.825
 4303TIP3    H212851   7.973   1.368   1.938
 4304TIP3   OH212852   4.820   4.257   4.095
 4304TIP3    H112853   4.758   4.286   4.162
 4304TIP3    H212854   4.817   4.161   4.099
 4305TIP3   OH212855   5.430   2.857   2.003
 4305TIP3    H112856   5.487   2.843   2.079
 4305TIP3    H212857   5.470   2.805   1.934
 4306TIP3   OH212858   3.259   4.322   2.210
 4306TIP3    H112859   3.164   4.317   2.223
 4306TIP3    H212860   3.277   4.416   2.204
 4307TIP3   OH212861   3.008   2.526   1.154
 4307TIP3    H112862   2.926   2.573   1.138
 4307TIP3    H212863   2.981   2.434   1.161
 4308TIP3   OH212864   4.763   7.717   0.902
 4308TIP3    H112865   4.698   7.760   0.957
 4308TIP3    H212866   4.730   7.727   0.813
 4309TIP3   OH212867   4.125   3.853   2.104
 4309TIP3    H112868   4.070   3.819   2.034
 4309TIP3    H212869   4.105   3.947   2.107
 4310TIP3   OH212870   7.278   6.537   3.737
 4310TIP3    H112871   7.260   6.452   3.698
 4310TIP3    H212872   7.288   6.519   3.830
 4311TIP3   OH212873   5.823   5.561   4.127
 4311TIP3    H112874   5.876   5.484   4.150
 4311TIP3    H212875   5.744   5.524   4.087
 4312TIP3   OH212876   4.824   1.002   0.326
 4312TIP3    H112877   4.814   0.918   0.370
 4312TIP3    H212878   4.916   1.025   0.338
 4313TIP3   OH212879   7.439   5.684   3.242
 4313TIP3    H112880   7.352   5.654   3.267
 4313TIP3    H212881   7.457   5.641   3.159
 4314TIP3   OH212882   3.737   5.378   6.082
 4314TIP3    H112883   3.775   5.419   6.005
 4314TIP3    H212884   3.745   5.443   6.152
 4315TIP3   OH212885   4.879   3.712   2.002
 4315TIP3    H112886   4.805   3.772   2.011
 4315TIP3    H212887   4.912   3.701   2.091
 4316TIP3   OH212888   3.248   2.634   1.172
 4316TIP3    H112889   3.237   2.687   1.093
 4316TIP3    H212890   3.173   2.575   1.172
 4317TIP3   OH212891   2.627   1.277   4.259
 4317TIP3    H112892   2.544   1.229   4.267
 4317TIP3    H212893   2.676   1.253   4.338
 4318TIP3   OH212894   4.220   5.569   4.388
 4318TIP3    H112895   4.181   5.645   4.347
 4318TIP3    H212896   4.149   5.505   4.393
 4319TIP3   OH212897   4.754   6.760   1.277
 4319TIP3    H112898   4.789   6.723   1.358
 4319TIP3    H212899   4.757   6.688   1.214
 4320TIP3   OH212900   8.324   1.239   0.228
 4320TIP3    H112901   8.381   1.296   0.177
 4320TIP3    H212902   8.344   1.150   0.197
 4321TIP3   OH212903   8.149   7.030   5.583
 4321TIP3    H112904   8.086   6.971   5.543
 4321TIP3    H212905   8.232   7.011   5.540
 4322TIP3   OH212906   8.414   0.516   6.230
 4322TIP3    H112907   8.438   0.609   6.239
 4322TIP3    H212908   8.395   0.488   6.320
 4323TIP3   OH212909   5.037   3.776   1.293
 4323TIP3    H112910   4.962   3.825   1.258
 4323TIP3    H212911   5.015   3.762   1.385
 4324TIP3   OH212912   6.602   6.535   2.566
 4324TIP3    H112913   6.644   6.603   2.514
 4324TIP3    H212914   6.674   6.484   2.602
 4325TIP3   OH212915   3.910   1.403   4.126
 4325TIP3    H112916   3.848   1.470   4.156
 4325TIP3    H212917   3.857   1.324   4.118
 4326TIP3   OH212918   4.812   5.589   3.128
 4326TIP3    H112919   4.808   5.610   3.221
 4326TIP3    H212920   4.822   5.494   3.126
 4327TIP3   OH212921   2.094   5.907   2.930
 4327TIP3    H112922   2.026   5.856   2.887
 4327TIP3    H212923   2.096   5.875   3.020
 4328TIP3   OH212924   0.720   6.739   0.162
 4328TIP3    H112925   0.806   6.697   0.167
 4328TIP3    H212926   0.704   6.750   0.068
 4329TIP3   OH212927   0.048   6.637   1.473
 4329TIP3    H112928   0.099   6.590   1.407
 4329TIP3    H212929  -0.009   6.695   1.423
 4330TIP3   OH212930   3.435   4.109   2.243
 4330TIP3    H112931   3.366   4.176   2.243
 4330TIP3    H212932   3.503   4.146   2.299
 4331TIP3   OH212933   0.802   3.943   5.809
 4331TIP3    H112934   0.730   3.964   5.869
 4331TIP3    H212935   0.760   3.936   5.723
 4332TIP3   OH212936   7.156   2.540   6.204
 4332TIP3    H112937   7.062   2.558   6.202
 4332TIP3    H212938   7.185   2.556   6.114
 4333TIP3   OH212939   5.498   7.232   2.245
 4333TIP3    H112940   5.490   7.307   2.303
 4333TIP3    H212941   5.586   7.238   2.209
 4334TIP3   OH212942   3.892   3.670   4.051
 4334TIP3    H112943   3.887   3.667   4.147
 4334TIP3    H212944   3.948   3.596   4.028
 4335TIP3   OH212945   2.640   3.091   6.249
 4335TIP3    H112946   2.564   3.142   6.222
 4335TIP3    H212947   2.714   3.135   6.208
 4336TIP3   OH212948   7.831   2.258   2.316
 4336TIP3    H112949   7.869   2.277   2.230
 4336TIP3    H212950   7.743   2.225   2.296
 4337TIP3   OH212951   7.051   1.502   1.866
 4337TIP3    H112952   7.112   1.504   1.940
 4337TIP3    H212953   7.108   1.502   1.789
 4338TIP3   OH212954   6.102   0.798   5.741
 4338TIP3    H112955   6.116   0.892   5.733
 4338TIP3    H212956   6.136   0.762   5.659
 4339TIP3   OH212957   7.266   6.189   6.341
 4339TIP3    H112958   7.193   6.241   6.307
 4339TIP3    H212959   7.226   6.106   6.366
 4340TIP3   OH212960   1.043   2.375   3.281
 4340TIP3    H112961   1.058   2.296   3.229
 4340TIP3    H212962   1.075   2.446   3.225
 4341TIP3   OH212963   4.914   2.117   5.707
 4341TIP3    H112964   4.869   2.132   5.790
 4341TIP3    H212965   5.006   2.132   5.726
 4342TIP3   OH212966   2.539   2.904   3.978
 4342TIP3    H112967   2.504   2.856   3.903
 4342TIP3    H212968   2.603   2.965   3.941
 4343TIP3   OH212969   0.305   6.789   5.971
 4343TIP3    H112970   0.352   6.739   5.903
 4343TIP3    H212971   0.264   6.722   6.026
 4344TIP3   OH212972   3.959   5.128   0.319
 4344TIP3    H112973   3.992   5.187   0.387
 4344TIP3    H212974   3.877   5.169   0.290
 4345TIP3   OH212975   0.825   0.308   1.645
 4345TIP3    H112976   0.802   0.280   1.734
 4345TIP3    H212977   0.741   0.332   1.606
 4346TIP3   OH212978   7.008   0.674   6.067
 4346TIP3    H112979   6.955   0.665   5.988
 4346TIP3    H212980   7.081   0.730   6.042
 4347TIP3   OH212981   7.108   6.027   4.347
 4347TIP3    H112982   7.184   6.047   4.401
 4347TIP3    H212983   7.143   5.977   4.273
 4348TIP3   OH212984   0.136   7.345   0.386
 4348TIP3    H112985   0.054   7.351   0.337
 4348TIP3    H212986   0.108   7.329   0.477
 4349TIP3   OH212987   3.708   7.828   5.384
 4349TIP3    H112988   3.797   7.794   5.387
 4349TIP3    H212989   3.717   7.921   5.403
 4350TIP3   OH212990   3.392   3.572   4.817
 4350TIP3    H112991   3.302   3.603   4.806
 4350TIP3    H212992   3.439   3.648   4.852
 4351TIP3   OH212993   8.268   6.887   3.945
 4351TIP3    H112994   8.349   6.932   3.923
 4351TIP3    H212995   8.201   6.956   3.946
 4352TIP3   OH212996   3.047   2.049   3.278
 4352TIP3    H112997   3.086   2.062   3.364
 4352TIP3    H212998   3.093   1.974   3.242
 4353TIP3   OH212999   3.248   1.847   2.673
 4353TIP3    H113000   3.242   1.753   2.657
 4353TIP3    H213001   3.159   1.880   2.656
 4354TIP3   OH213002   1.456   2.341   0.793
 4354TIP3    H113003   1.446   2.314   0.702
 4354TIP3    H213004   1.474   2.435   0.789
 4355TIP3   OH213005   1.933   3.007   3.562
 4355TIP3    H113006   2.012   3.060   3.575
 4355TIP3    H213007   1.871   3.039   3.628
 4356TIP3   OH213008   3.951   4.822   3.432
 4356TIP3    H113009   3.929   4.729   3.429
 4356TIP3    H213010   4.046   4.826   3.426
 4357TIP3   OH213011   3.710   4.806   6.661
 4357TIP3    H113012   3.647   4.765   6.721
 4357TIP3    H213013   3.791   4.756   6.674
 4358TIP3   OH213014   2.696   5.181   2.943
 4358TIP3    H113015   2.716   5.275   2.941
 4358TIP3    H213016   2.782   5.138   2.945
 4359TIP3   OH213017   0.734   1.506   1.632
 4359TIP3    H113018   0.826   1.522   1.653
 4359TIP3    H213019   0.693   1.485   1.716
 4360TIP3   OH213020   2.565   1.190   0.580
 4360TIP3    H113021   2.655   1.157   0.578
 4360TIP3    H213022   2.573   1.280   0.610
 4361TIP3   OH213023   0.803   1.236   4.151
 4361TIP3    H113024   0.844   1.193   4.227
 4361TIP3    H213025   0.718   1.193   4.143
 4362TIP3   OH213026   6.476   4.808   3.531
 4362TIP3    H113027   6.550   4.760   3.568
 4362TIP3    H213028   6.483   4.896   3.568
 4363TIP3   OH213029   0.869   3.274   2.254
 4363TIP3    H113030   0.910   3.232   2.330
 4363TIP3    H213031   0.919   3.241   2.179
 4364TIP3   OH213032   6.655   1.097   4.025
 4364TIP3    H113033   6.694   1.163   4.082
 4364TIP3    H213034   6.621   1.030   4.085
 4365TIP3   OH213035   2.154   3.120   0.553
 4365TIP3    H113036   2.094   3.148   0.622
 4365TIP3    H213037   2.118   3.036   0.523
 4366TIP3   OH213038   4.258   4.802   4.799
 4366TIP3    H113039   4.320   4.745   4.844
 4366TIP3    H213040   4.194   4.742   4.760
 4367TIP3   OH213041   6.052   1.227   6.332
 4367TIP3    H113042   6.117   1.187   6.389
 4367TIP3    H213043   6.101   1.253   6.254
 4368TIP3   OH213044   2.583   6.862   5.611
 4368TIP3    H113045   2.668   6.905   5.615
 4368TIP3    H213046   2.602   6.773   5.584
 4369TIP3   OH213047   8.425   5.008   6.164
 4369TIP3    H113048   8.333   4.982   6.172
 4369TIP3    H213049   8.422   5.102   6.145
 4370TIP3   OH213050   3.656   4.629   1.534
 4370TIP3    H113051   3.600   4.552   1.522
 4370TIP3    H213052   3.716   4.627   1.459
 4371TIP3   OH213053   6.601   0.745   0.656
 4371TIP3    H113054   6.611   0.836   0.627
 4371TIP3    H213055   6.547   0.705   0.588
 4372TIP3   OH213056   3.271   3.840   2.598
 4372TIP3    H113057   3.229   3.889   2.669
 4372TIP3    H213058   3.222   3.758   2.593
 4373TIP3   OH213059   2.742   4.608   2.493
 4373TIP3    H113060   2.691   4.678   2.453
 4373TIP3    H213061   2.799   4.653   2.556
 4374TIP3   OH213062   8.383   3.800   1.136
 4374TIP3    H113063   8.391   3.804   1.231
 4374TIP3    H213064   8.294   3.830   1.118
 4375TIP3   OH213065   1.556   6.449   1.848
 4375TIP3    H113066   1.575   6.356   1.854
 4375TIP3    H213067   1.561   6.481   1.938
 4376TIP3   OH213068   2.810   4.079   4.016
 4376TIP3    H113069   2.787   4.110   4.104
 4376TIP3    H213070   2.740   4.018   3.993
 4377TIP3   OH213071   0.933   3.576   2.315
 4377TIP3    H113072   0.952   3.521   2.392
 4377TIP3    H213073   0.887   3.652   2.351
 4378TIP3   OH213074   2.897   4.628   3.441
 4378TIP3    H113075   2.897   4.541   3.402
 4378TIP3    H213076   2.870   4.614   3.532
 4379TIP3   OH213077   6.310   7.201   1.609
 4379TIP3    H113078   6.223   7.223   1.642
 4379TIP3    H213079   6.328   7.266   1.542
 4380TIP3   OH213080   3.244   6.887   2.400
 4380TIP3    H113081   3.210   6.798   2.409
 4380TIP3    H213082   3.337   6.879   2.420
 4381TIP3   OH213083   4.388   1.405   5.209
 4381TIP3    H113084   4.350   1.404   5.122
 4381TIP3    H213085   4.334   1.467   5.258
 4382TIP3   OH213086   4.414   4.820   2.273
 4382TIP3    H113087   4.333   4.776   2.247
 4382TIP3    H213088   4.417   4.810   2.368
 4383TIP3   OH213089   3.771   2.709   6.313
 4383TIP3    H113090   3.862   2.709   6.282
 4383TIP3    H213091   3.772   2.763   6.392
 4384TIP3   OH213092   4.706   3.061   5.553
 4384TIP3    H113093   4.649   3.003   5.502
 4384TIP3    H213094   4.646   3.123   5.595
 4385TIP3   OH213095   4.167   1.205   5.967
 4385TIP3    H113096   4.197   1.128   6.015
 4385TIP3    H213097   4.219   1.277   6.002
 4386TIP3   OH213098   5.785   5.699   5.189
 4386TIP3    H113099   5.731   5.645   5.131
 4386TIP3    H213100   5.810   5.640   5.260
 4387TIP3   OH213101   6.557   0.228   0.790
 4387TIP3    H113102   6.609   0.303   0.760
 4387TIP3    H213103   6.604   0.194   0.866
 4388TIP3   OH213104   4.695   0.588   1.621
 4388TIP3    H113105   4.668   0.662   1.565
 4388TIP3    H213106   4.712   0.628   1.706
 4389TIP3   OH213107   1.805   7.428   0.852
 4389TIP3    H113108   1.882   7.372   0.863
 4389TIP3    H213109   1.837   7.517   0.871
 4390TIP3   OH213110   6.321   4.496   6.440
 4390TIP3    H113111   6.297   4.497   6.347
 4390TIP3    H213112   6.304   4.406   6.467
 4391TIP3   OH213113   7.662   6.998   6.580
 4391TIP3    H113114   7.596   6.964   6.640
 4391TIP3    H213115   7.746   6.968   6.616
 4392TIP3   OH213116   7.794   1.872   2.284
 4392TIP3    H113117   7.749   1.883   2.200
 4392TIP3    H213118   7.791   1.777   2.300
 4393TIP3   OH213119   5.682   5.465   0.439
 4393TIP3    H113120   5.718   5.552   0.458
 4393TIP3    H213121   5.758   5.413   0.415
 4394TIP3   OH213122   3.523   5.896   6.650
 4394TIP3    H113123   3.479   5.814   6.624
 4394TIP3    H213124   3.522   5.950   6.571
 4395TIP3   OH213125   7.444   5.888   6.834
 4395TIP3    H113126   7.398   5.889   6.750
 4395TIP3    H213127   7.395   5.825   6.887
 4396TIP3   OH213128   2.912   6.144   3.834
 4396TIP3    H113129   2.892   6.150   3.928
 4396TIP3    H213130   2.830   6.164   3.791
 4397TIP3   OH213131   4.705   0.612   0.259
 4397TIP3    H113132   4.741   0.649   0.177
 4397TIP3    H213133   4.670   0.688   0.305
 4398TIP3   OH213134   1.280   2.525   5.615
 4398TIP3    H113135   1.268   2.431   5.602
 4398TIP3    H213136   1.194   2.557   5.642
 4399TIP3   OH213137   6.329   2.248   6.328
 4399TIP3    H113138   6.303   2.338   6.348
 4399TIP3    H213139   6.408   2.256   6.274
 4400TIP3   OH213140   2.277   0.668   2.968
 4400TIP3    H113141   2.231   0.712   2.897
 4400TIP3    H213142   2.213   0.663   3.040
 4401TIP3   OH213143   3.938   2.866   3.405
 4401TIP3    H113144   4.024   2.862   3.362
 4401TIP3    H213145   3.875   2.852   3.334
 4402TIP3   OH213146   5.830   7.121   1.875
 4402TIP3    H113147   5.907   7.070   1.896
 4402TIP3    H213148   5.812   7.101   1.783
 4403TIP3   OH213149   4.397   7.515   6.386
 4403TIP3    H113150   4.304   7.533   6.398
 4403TIP3    H213151   4.429   7.588   6.333
 4404TIP3   OH213152   5.609   4.857   2.797
 4404TIP3    H113153   5.680   4.794   2.811
 4404TIP3    H213154   5.532   4.815   2.835
 4405TIP3   OH213155   6.124   1.248   0.337
 4405TIP3    H113156   6.092   1.224   0.424
 4405TIP3    H213157   6.167   1.168   0.305
 4406TIP3   OH213158   6.290   0.601   2.231
 4406TIP3    H113159   6.197   0.579   2.234
 4406TIP3    H213160   6.300   0.675   2.291
 4407TIP3   OH213161   7.557   2.894   2.432
 4407TIP3    H113162   7.477   2.842   2.422
 4407TIP3    H213163   7.573   2.929   2.345
 4408TIP3   OH213164   2.242   5.108   0.057
 4408TIP3    H113165   2.161   5.102   0.007
 4408TIP3    H213166   2.250   5.201   0.078
 4409TIP3   OH213167   1.007   3.889   3.308
 4409TIP3    H113168   0.926   3.899   3.359
 4409TIP3    H213169   0.981   3.836   3.233
 4410TIP3   OH213170   6.319   3.960   1.913
 4410TIP3    H113171   6.313   3.917   1.998
 4410TIP3    H213172   6.276   4.044   1.925
 4411TIP3   OH213173   2.847   4.195   1.403
 4411TIP3    H113174   2.903   4.163   1.332
 4411TIP3    H213175   2.901   4.188   1.481
 4412TIP3   OH213176   2.067   4.832   3.922
 4412TIP3    H113177   2.041   4.843   3.831
 4412TIP3    H213178   2.076   4.737   3.933
 4413TIP3   OH213179   4.127   0.374   1.747
 4413TIP3    H113180   4.186   0.304   1.776
 4413TIP3    H213181   4.177   0.424   1.683
 4414TIP3   OH213182   2.915   7.333   3.357
 4414TIP3    H113183   2.991   7.356   3.412
 4414TIP3    H213184   2.847   7.310   3.420
 4415TIP3   OH213185   0.446   4.639   4.508
 4415TIP3    H113186   0.464   4.700   4.437
 4415TIP3    H213187   0.471   4.685   4.588
 4416TIP3   OH213188   7.894   4.516   2.132
 4416TIP3    H113189   7.920   4.603   2.161
 4416TIP3    H213190   7.866   4.472   2.212
 4417TIP3   OH213191   4.041   6.735   2.438
 4417TIP3    H113192   4.098   6.714   2.363
 4417TIP3    H213193   4.085   6.696   2.513
 4418TIP3   OH213194   6.124   6.174   5.797
 4418TIP3    H113195   6.145   6.104   5.735
 4418TIP3    H213196   6.170   6.149   5.877
 4419TIP3   OH213197   3.809   3.303   6.537
 4419TIP3    H113198   3.855   3.373   6.582
 4419TIP3    H213199   3.845   3.222   6.574
 4420TIP3   OH213200   6.573   3.370   6.582
 4420TIP3    H113201   6.601   3.309   6.649
 4420TIP3    H213202   6.612   3.454   6.607
 4421TIP3   OH213203   1.814   0.265   6.624
 4421TIP3    H113204   1.718   0.262   6.627
 4421TIP3    H213205   1.834   0.271   6.530
 4422TIP3   OH213206   5.850   1.084   1.459
 4422TIP3    H113207   5.762   1.080   1.420
 4422TIP3    H213208   5.853   1.171   1.500
 4423TIP3   OH213209   6.631   3.194   5.868
 4423TIP3    H113210   6.685   3.119   5.891
 4423TIP3    H213211   6.674   3.269   5.908
 4424TIP3   OH213212   1.636   7.814   6.263
 4424TIP3    H113213   1.567   7.760   6.226
 4424TIP3    H213214   1.667   7.868   6.189
 4425TIP3   OH213215   0.100   5.111   3.196
 4425TIP3    H113216   0.122   5.022   3.221
 4425TIP3    H213217   0.165   5.166   3.240
 4426TIP3   OH213218   5.228   6.691   6.269
 4426TIP3    H113219   5.233   6.596   6.279
 4426TIP3    H213220   5.319   6.719   6.257
 4427TIP3   OH213221   3.671   6.702   1.152
 4427TIP3    H113222   3.731   6.765   1.112
 4427TIP3    H213223   3.598   6.755   1.184
 4428TIP3   OH213224   3.752   2.462   4.805
 4428TIP3    H113225   3.819   2.393   4.808
 4428TIP3    H213226   3.730   2.470   4.712
 4429TIP3   OH213227   2.171   5.984   0.638
 4429TIP3    H113228   2.253   6.025   0.612
 4429TIP3    H213229   2.116   5.989   0.559
 4430TIP3   OH213230   2.631   4.526   4.884
 4430TIP3    H113231   2.627   4.473   4.804
 4430TIP3    H213232   2.574   4.479   4.946
 4431TIP3   OH213233   7.460   0.690   2.681
 4431TIP3    H113234   7.477   0.665   2.772
 4431TIP3    H213235   7.543   0.676   2.636
 4432TIP3   OH213236   0.639   2.672   2.557
 4432TIP3    H113237   0.731   2.684   2.533
 4432TIP3    H213238   0.642   2.635   2.645
 4433TIP3   OH213239   1.071   6.458   2.813
 4433TIP3    H113240   1.134   6.492   2.750
 4433TIP3    H213241   0.992   6.441   2.760
 4434TIP3   OH213242   8.371   6.710   3.482
 4434TIP3    H113243   8.361   6.802   3.456
 4434TIP3    H213244   8.286   6.686   3.516
 4435TIP3   OH213245   3.651   3.280   6.298
 4435TIP3    H113246   3.667   3.185   6.297
 4435TIP3    H213247   3.695   3.310   6.377
 4436TIP3   OH213248   3.910   5.100   5.269
 4436TIP3    H113249   3.967   5.158   5.218
 4436TIP3    H213250   3.870   5.042   5.204
 4437TIP3   OH213251   3.262   0.745   5.665
 4437TIP3    H113252   3.281   0.728   5.573
 4437TIP3    H213253   3.204   0.821   5.664
 4438TIP3   OH213254   6.912   6.589   2.102
 4438TIP3    H113255   6.896   6.567   2.010
 4438TIP3    H213256   6.975   6.524   2.132
 4439TIP3   OH213257   2.167   2.025   5.486
 4439TIP3    H113258   2.163   2.095   5.552
 4439TIP3    H213259   2.239   1.969   5.514
 4440TIP3   OH213260   0.499   5.259   6.629
 4440TIP3    H113261   0.432   5.204   6.670
 4440TIP3    H213262   0.450   5.334   6.594
 4441TIP3   OH213263   3.946   0.926   4.445
 4441TIP3    H113264   3.952   0.934   4.350
 4441TIP3    H213265   3.921   1.014   4.475
 4442TIP3   OH213266   7.015   1.975   5.765
 4442TIP3    H113267   6.975   2.046   5.715
 4442TIP3    H213268   6.946   1.909   5.771
 4443TIP3   OH213269   1.695   6.847   4.331
 4443TIP3    H113270   1.736   6.930   4.306
 4443TIP3    H213271   1.768   6.793   4.361
 4444TIP3   OH213272   0.409   4.114   1.522
 4444TIP3    H113273   0.337   4.082   1.578
 4444TIP3    H213274   0.486   4.109   1.578
 4445TIP3   OH213275   4.030   4.442   3.452
 4445TIP3    H113276   3.939   4.471   3.449
 4445TIP3    H213277   4.025   4.348   3.468
 4446TIP3   OH213278   5.787   3.120   6.238
 4446TIP3    H113279   5.803   3.203   6.193
 4446TIP3    H213280   5.804   3.053   6.172
 4447TIP3   OH213281   2.033   6.630   4.108
 4447TIP3    H113282   1.940   6.617   4.126
 4447TIP3    H213283   2.034   6.692   4.035
 4448TIP3   OH213284   3.344   2.891   4.548
 4448TIP3    H113285   3.352   2.951   4.621
 4448TIP3    H213286   3.267   2.837   4.569
 4449TIP3   OH213287   7.756   7.656   5.563
 4449TIP3    H113288   7.793   7.660   5.651
 4449TIP3    H213289   7.767   7.745   5.528
 4450TIP3   OH213290   4.257   6.490   6.000
 4450TIP3    H113291   4.318   6.559   5.975
 4450TIP3    H213292   4.253   6.494   6.095
 4451TIP3   OH213293   5.014   6.039   3.300
 4451TIP3    H113294   4.926   6.017   3.333
 4451TIP3    H213295   5.065   5.959   3.315
 4452TIP3   OH213296   4.489   5.819   3.796
 4452TIP3    H113297   4.544   5.744   3.818
 4452TIP3    H213298   4.425   5.784   3.734
 4453TIP3   OH213299   0.924   7.506   4.489
 4453TIP3    H113300   0.977   7.473   4.416
 4453TIP3    H213301   0.852   7.553   4.446
 4454TIP3   OH213302   1.913   3.712   2.668
 4454TIP3    H113303   1.827   3.729   2.629
 4454TIP3    H213304   1.973   3.711   2.594
 4455TIP3   OH213305   3.729   4.427   1.798
 4455TIP3    H113306   3.694   4.449   1.884
 4455TIP3    H213307   3.657   4.383   1.753
 4456TIP3   OH213308   3.072   1.432   3.913
 4456TIP3    H113309   3.039   1.522   3.914
 4456TIP3    H213310   3.002   1.382   3.871
 4457TIP3   OH213311   5.990   3.272   6.797
 4457TIP3    H113312   6.041   3.353   6.797
 4457TIP3    H213313   5.985   3.247   6.889
 4458TIP3   OH213314   3.160   5.438   0.882
 4458TIP3    H113315   3.231   5.380   0.908
 4458TIP3    H213316   3.187   5.525   0.910
 4459TIP3   OH213317   2.571   7.779   3.588
 4459TIP3    H113318   2.664   7.800   3.582
 4459TIP3    H213319   2.567   7.703   3.646
 4460TIP3   OH213320   5.031   0.175   5.491
 4460TIP3    H113321   4.968   0.216   5.550
 4460TIP3    H213322   5.015   0.081   5.501
 4461TIP3   OH213323   4.431   4.777   3.618
 4461TIP3    H113324   4.426   4.871   3.635
 4461TIP3    H213325   4.512   4.748   3.660
 4462TIP3   OH213326   0.739   2.755   5.404
 4462TIP3    H113327   0.731   2.664   5.432
 4462TIP3    H213328   0.692   2.805   5.471
 4463TIP3   OH213329   0.174   4.930   6.730
 4463TIP3    H113330   0.128   4.940   6.814
 4463TIP3    H213331   0.228   4.852   6.742
 4464TIP3   OH213332   6.548   6.902   4.398
 4464TIP3    H113333   6.636   6.908   4.434
 4464TIP3    H213334   6.561   6.875   4.307
 4465TIP3   OH213335   7.197   2.671   2.249
 4465TIP3    H113336   7.107   2.650   2.228
 4465TIP3    H213337   7.239   2.685   2.164
 4466TIP3   OH213338   1.465   2.059   6.034
 4466TIP3    H113339   1.491   2.134   6.088
 4466TIP3    H213340   1.419   2.001   6.094
 4467TIP3   OH213341   4.501   1.358   1.428
 4467TIP3    H113342   4.440   1.284   1.431
 4467TIP3    H213343   4.560   1.338   1.356
 4468TIP3   OH213344   2.622   0.506   2.405
 4468TIP3    H113345   2.709   0.466   2.408
 4468TIP3    H213346   2.591   0.504   2.495
 4469TIP3   OH213347   1.063   0.985   3.793
 4469TIP3    H113348   1.051   0.921   3.863
 4469TIP3    H213349   1.137   0.952   3.742
 4470TIP3   OH213350   3.249   0.839   2.016
 4470TIP3    H113351   3.207   0.761   1.981
 4470TIP3    H213352   3.324   0.805   2.066
 4471TIP3   OH213353   8.224   6.179   4.230
 4471TIP3    H113354   8.279   6.166   4.308
 4471TIP3    H213355   8.168   6.102   4.228
 4472TIP3   OH213356   0.627   2.589   4.305
 4472TIP3    H113357   0.679   2.669   4.296
 4472TIP3    H213358   0.578   2.602   4.386
 4473TIP3   OH213359   1.190   7.477   3.291
 4473TIP3    H113360   1.211   7.513   3.205
 4473TIP3    H213361   1.246   7.525   3.352
 4474TIP3   OH213362   7.509   1.546   1.497
 4474TIP3    H113363   7.424   1.546   1.452
 4474TIP3    H213364   7.487   1.552   1.590
 4475TIP3   OH213365   3.138   6.601   4.394
 4475TIP3    H113366   3.187   6.547   4.456
 4475TIP3    H213367   3.121   6.682   4.441
 4476TIP3   OH213368   3.443   2.159   3.944
 4476TIP3    H113369   3.385   2.108   3.888
 4476TIP3    H213370   3.429   2.123   4.032
 4477TIP3   OH213371   5.277   7.071   2.544
 4477TIP3    H113372   5.348   7.105   2.598
 4477TIP3    H213373   5.253   7.144   2.488
 4478TIP3   OH213374   6.065   4.999   4.073
 4478TIP3    H113375   6.094   5.080   4.116
 4478TIP3    H213376   6.120   4.931   4.112
 4479TIP3   OH213377   3.844   4.912   0.214
 4479TIP3    H113378   3.758   4.955   0.210
 4479TIP3    H213379   3.899   4.972   0.264
 4480TIP3   OH213380   1.343   3.481   0.205
 4480TIP3    H113381   1.408   3.432   0.256
 4480TIP3    H213382   1.360   3.572   0.226
 4481TIP3   OH213383   1.596   6.118   2.615
 4481TIP3    H113384   1.638   6.109   2.530
 4481TIP3    H213385   1.667   6.117   2.679
 4482TIP3   OH213386   5.904   5.436   5.610
 4482TIP3    H113387   6.000   5.433   5.619
 4482TIP3    H213388   5.871   5.410   5.695
 4483TIP3   OH213389   4.680   4.834   2.890
 4483TIP3    H113390   4.761   4.819   2.842
 4483TIP3    H213391   4.685   4.774   2.965
 4484TIP3   OH213392   3.619   2.087   5.068
 4484TIP3    H113393   3.651   2.144   5.138
 4484TIP3    H213394   3.530   2.064   5.095
 4485TIP3   OH213395   6.208   4.508   0.366
 4485TIP3    H113396   6.277   4.539   0.424
 4485TIP3    H213397   6.244   4.516   0.278
 4486TIP3   OH213398   4.105   6.482   0.703
 4486TIP3    H113399   4.119   6.463   0.796
 4486TIP3    H213400   4.193   6.489   0.666
 4487TIP3   OH213401   3.384   7.835   4.965
 4487TIP3    H113402   3.343   7.909   5.010
 4487TIP3    H213403   3.343   7.758   5.004
 4488TIP3   OH213404   6.250   0.124   4.804
 4488TIP3    H113405   6.159   0.147   4.787
 4488TIP3    H213406   6.246   0.038   4.846
 4489TIP3   OH213407   6.700   0.408   5.278
 4489TIP3    H113408   6.627   0.469   5.274
 4489TIP3    H213409   6.679   0.350   5.352
 4490TIP3   OH213410   4.163   4.097   3.820
 4490TIP3    H113411   4.131   4.174   3.866
 4490TIP3    H213412   4.192   4.038   3.889
 4491TIP3   OH213413   6.461   4.801   6.190
 4491TIP3    H113414   6.465   4.727   6.129
 4491TIP3    H213415   6.392   4.858   6.156
 4492TIP3   OH213416   7.280   2.669   6.692
 4492TIP3    H113417   7.242   2.582   6.682
 4492TIP3    H213418   7.373   2.657   6.675
 4493TIP3   OH213419   2.936   0.624   0.193
 4493TIP3    H113420   2.952   0.620   0.287
 4493TIP3    H213421   2.885   0.704   0.180
 4494TIP3   OH213422   4.712   4.993   6.519
 4494TIP3    H113423   4.737   4.909   6.558
 4494TIP3    H213424   4.622   4.980   6.490
 4495TIP3   OH213425   7.428   2.932   5.798
 4495TIP3    H113426   7.383   2.998   5.745
 4495TIP3    H213427   7.509   2.914   5.750
 4496TIP3   OH213428   6.946   4.682   0.734
 4496TIP3    H113429   7.033   4.672   0.774
 4496TIP3    H213430   6.964   4.699   0.642
 4497TIP3   OH213431   4.857   4.876   4.964
 4497TIP3    H113432   4.842   4.863   5.058
 4497TIP3    H213433   4.928   4.815   4.942
 4498TIP3   OH213434   7.696   2.900   5.360
 4498TIP3    H113435   7.753   2.824   5.347
 4498TIP3    H213436   7.757   2.972   5.379
 4499TIP3   OH213437   2.271   6.392   1.588
 4499TIP3    H113438   2.339   6.460   1.588
 4499TIP3    H213439   2.262   6.367   1.496
 4500TIP3   OH213440   6.195   4.211   0.182
 4500TIP3    H113441   6.164   4.263   0.256
 4500TIP3    H213442   6.250   4.272   0.132
 4501TIP3   OH213443   5.907   1.313   6.811
 4501TIP3    H113444   5.836   1.281   6.754
 4501TIP3    H213445   5.863   1.330   6.894
 4502TIP3   OH213446   0.174   4.023   6.336
 4502TIP3    H113447   0.116   3.947   6.330
 4502TIP3    H213448   0.116   4.098   6.327
 4503TIP3   OH213449   2.710   0.112   3.837
 4503TIP3    H113450   2.755   0.171   3.777
 4503TIP3    H213451   2.769   0.038   3.847
 4504TIP3   OH213452   5.605   4.053   4.092
 4504TIP3    H113453   5.534   4.117   4.090
 4504TIP3    H213454   5.578   3.990   4.158
 4505TIP3   OH213455   4.946   7.319   1.513
 4505TIP3    H113456   5.039   7.326   1.530
 4505TIP3    H213457   4.910   7.278   1.592
 4506TIP3   OH213458   1.025   5.766   5.113
 4506TIP3    H113459   0.968   5.840   5.093
 4506TIP3    H213460   1.054   5.734   5.027
 4507TIP3   OH213461   3.944   1.292   3.410
 4507TIP3    H113462   3.863   1.283   3.360
 4507TIP3    H213463   4.013   1.265   3.350
 4508TIP3   OH213464   5.268   5.479   6.521
 4508TIP3    H113465   5.351   5.523   6.536
 4508TIP3    H213466   5.229   5.526   6.447
 4509TIP3   OH213467   6.311   0.029   4.501
 4509TIP3    H113468   6.367   0.018   4.577
 4509TIP3    H213469   6.370   0.060   4.431
 4510TIP3   OH213470   8.054   5.138   2.687
 4510TIP3    H113471   8.047   5.167   2.778
 4510TIP3    H213472   8.082   5.046   2.692
 4511TIP3   OH213473   7.004   2.221   1.448
 4511TIP3    H113474   6.948   2.288   1.487
 4511TIP3    H213475   7.085   2.266   1.426
 4512TIP3   OH213476   5.468   1.743   4.943
 4512TIP3    H113477   5.409   1.772   5.013
 4512TIP3    H213478   5.521   1.820   4.923
 4513TIP3   OH213479   3.114   4.115   6.578
 4513TIP3    H113480   3.042   4.067   6.539
 4513TIP3    H213481   3.164   4.049   6.626
 4514TIP3   OH213482   6.469   0.273   3.444
 4514TIP3    H113483   6.548   0.324   3.428
 4514TIP3    H213484   6.404   0.309   3.384
 4515TIP3   OH213485   1.764   7.642   6.711
 4515TIP3    H113486   1.812   7.644   6.794
 4515TIP3    H213487   1.827   7.673   6.646
 4516TIP3   OH213488   0.867   6.720   1.624
 4516TIP3    H113489   0.881   6.690   1.714
 4516TIP3    H213490   0.956   6.723   1.586
 4517TIP3   OH213491   1.788   6.630   4.860
 4517TIP3    H113492   1.812   6.555   4.915
 4517TIP3    H213493   1.811   6.707   4.913
 4518TIP3   OH213494   4.043   6.628   3.294
 4518TIP3    H113495   4.005   6.552   3.250
 4518TIP3    H213496   3.978   6.697   3.282
 4519TIP3   OH213497   7.276   4.895   1.861
 4519TIP3    H113498   7.294   4.830   1.929
 4519TIP3    H213499   7.350   4.957   1.867
 4520TIP3   OH213500   3.202   6.858   2.855
 4520TIP3    H113501   3.287   6.815   2.862
 4520TIP3    H213502   3.223   6.949   2.833
 4521TIP3   OH213503   0.996   0.240   6.107
 4521TIP3    H113504   1.029   0.166   6.158
 4521TIP3    H213505   1.023   0.317   6.156
 4522TIP3   OH213506   2.007   3.118   2.812
 4522TIP3    H113507   1.943   3.133   2.743
 4522TIP3    H213508   1.986   3.031   2.847
 4523TIP3   OH213509   2.531   2.339   2.206
 4523TIP3    H113510   2.541   2.426   2.169
 4523TIP3    H213511   2.597   2.285   2.162
 4524TIP3   OH213512   6.088   1.382   5.443
 4524TIP3    H113513   6.169   1.390   5.393
 4524TIP3    H213514   6.062   1.291   5.432
 4525TIP3   OH213515   1.896   3.737   6.512
 4525TIP3    H113516   1.869   3.796   6.443
 4525TIP3    H213517   1.933   3.794   6.579
 4526TIP3   OH213518   6.927   1.792   0.270
 4526TIP3    H113519   6.910   1.700   0.289
 4526TIP3    H213520   7.014   1.792   0.228
 4527TIP3   OH213521   2.774   3.342   0.228
 4527TIP3    H113522   2.849   3.369   0.282
 4527TIP3    H213523   2.716   3.418   0.229
 4528TIP3   OH213524   3.507   6.840   6.478
 4528TIP3    H113525   3.475   6.751   6.468
 4528TIP3    H213526   3.602   6.833   6.470
 4529TIP3   OH213527   3.275   1.910   2.959
 4529TIP3    H113528   3.213   1.983   2.964
 4529TIP3    H213529   3.258   1.868   2.875
 4530TIP3   OH213530   6.900   2.573   6.142
 4530TIP3    H113531   6.934   2.648   6.092
 4530TIP3    H213532   6.816   2.604   6.177
 4531TIP3   OH213533   0.816   5.935   6.754
 4531TIP3    H113534   0.827   5.857   6.808
 4531TIP3    H213535   0.847   6.007   6.809
 4532TIP3   OH213536   0.115   3.939   0.947
 4532TIP3    H113537   0.066   3.887   1.012
 4532TIP3    H213538   0.099   4.030   0.972
 4533TIP3   OH213539   3.897   7.877   1.233
 4533TIP3    H113540   3.898   7.845   1.323
 4533TIP3    H213541   3.807   7.908   1.220
 4534TIP3   OH213542   7.964   7.875   6.802
 4534TIP3    H113543   7.906   7.819   6.852
 4534TIP3    H213544   7.961   7.959   6.848
 4535TIP3   OH213545   7.770   0.530   6.427
 4535TIP3    H113546   7.725   0.484   6.497
 4535TIP3    H213547   7.822   0.597   6.471
 4536TIP3   OH213548   4.857   4.682   0.488
 4536TIP3    H113549   4.773   4.705   0.446
 4536TIP3    H213550   4.870   4.590   0.465
 4537TIP3   OH213551   3.521   0.976   3.465
 4537TIP3    H113552   3.603   0.926   3.468
 4537TIP3    H213553   3.464   0.933   3.529
 4538TIP3   OH213554   7.847   2.142   0.109
 4538TIP3    H113555   7.931   2.135   0.064
 4538TIP3    H213556   7.870   2.141   0.202
 4539TIP3   OH213557   6.612   3.762   4.874
 4539TIP3    H113558   6.543   3.778   4.809
 4539TIP3    H213559   6.620   3.667   4.877
 4540TIP3   OH213560   3.403   6.495   0.247
 4540TIP3    H113561   3.320   6.543   0.243
 4540TIP3    H213562   3.378   6.407   0.274
 4541TIP3   OH213563   5.459   5.440   1.837
 4541TIP3    H113564   5.513   5.365   1.812
 4541TIP3    H213565   5.523   5.508   1.859
 4542TIP3   OH213566   7.737   5.016   1.654
 4542TIP3    H113567   7.721   4.943   1.713
 4542TIP3    H213568   7.779   5.083   1.709
 4543TIP3   OH213569   1.966   7.725   4.013
 4543TIP3    H113570   1.980   7.768   3.929
 4543TIP3    H213571   1.906   7.783   4.060
 4544TIP3   OH213572   5.404   6.729   3.445
 4544TIP3    H113573   5.365   6.813   3.470
 4544TIP3    H213574   5.498   6.742   3.456
 4545TIP3   OH213575   6.667   2.015   5.768
 4545TIP3    H113576   6.665   2.073   5.845
 4545TIP3    H213577   6.629   2.067   5.698
 4546TIP3   OH213578   1.585   3.847   0.457
 4546TIP3    H113579   1.573   3.915   0.523
 4546TIP3    H213580   1.666   3.871   0.412
 4547TIP3   OH213581   6.876   3.545   1.818
 4547TIP3    H113582   6.824   3.582   1.746
 4547TIP3    H213583   6.823   3.472   1.851
 4548TIP3   OH213584   4.426   2.717   5.679
 4548TIP3    H113585   4.452   2.784   5.616
 4548TIP3    H213586   4.508   2.675   5.705
 4549TIP3   OH213587   4.268   5.686   0.479
 4549TIP3    H113588   4.255   5.771   0.437
 4549TIP3    H213589   4.229   5.696   0.566
 4550TIP3   OH213590   1.782   6.279   4.889
 4550TIP3    H113591   1.843   6.231   4.944
 4550TIP3    H213592   1.718   6.317   4.950
 4551TIP3   OH213593   6.789   1.175   3.565
 4551TIP3    H113594   6.819   1.245   3.507
 4551TIP3    H213595   6.861   1.164   3.627
 4552TIP3   OH213596   0.196   7.509   1.839
 4552TIP3    H113597   0.254   7.521   1.764
 4552TIP3    H213598   0.148   7.591   1.846
 4553TIP3   OH213599   7.956   3.904   4.533
 4553TIP3    H113600   7.976   3.928   4.442
 4553TIP3    H213601   8.038   3.868   4.567
 4554TIP3   OH213602   7.524   0.941   4.054
 4554TIP3    H113603   7.550   0.985   4.135
 4554TIP3    H213604   7.502   0.852   4.081
 4555TIP3   OH213605   2.302   3.531   4.218
 4555TIP3    H113606   2.358   3.602   4.251
 4555TIP3    H213607   2.328   3.521   4.126
 4556TIP3   OH213608   8.341   0.166   1.946
 4556TIP3    H113609   8.391   0.139   2.023
 4556TIP3    H213610   8.348   0.262   1.944
 4557TIP3   OH213611   5.660   2.971   4.812
 4557TIP3    H113612   5.722   2.915   4.858
 4557TIP3    H213613   5.680   2.959   4.719
 4558TIP3   OH213614   5.385   1.796   2.466
 4558TIP3    H113615   5.360   1.889   2.464
 4558TIP3    H213616   5.450   1.791   2.536
 4559TIP3   OH213617   5.174   3.777   4.611
 4559TIP3    H113618   5.197   3.865   4.641
 4559TIP3    H213619   5.244   3.721   4.646
 4560TIP3   OH213620   6.481   6.297   2.529
 4560TIP3    H113621   6.456   6.319   2.439
 4560TIP3    H213622   6.497   6.382   2.571
 4561TIP3   OH213623   2.919   2.384   2.417
 4561TIP3    H113624   2.859   2.449   2.454
 4561TIP3    H213625   3.006   2.413   2.444
 4562TIP3   OH213626   0.830   0.899   4.430
 4562TIP3    H113627   0.871   0.984   4.413
 4562TIP3    H213628   0.902   0.835   4.420
 4563TIP3   OH213629   7.244   2.499   5.948
 4563TIP3    H113630   7.321   2.542   5.912
 4563TIP3    H213631   7.263   2.405   5.941
 4564TIP3   OH213632   4.495   4.379   4.844
 4564TIP3    H113633   4.581   4.421   4.840
 4564TIP3    H213634   4.463   4.397   4.932
 4565TIP3   OH213635   3.268   3.040   5.059
 4565TIP3    H113636   3.283   3.130   5.030
 4565TIP3    H213637   3.176   3.039   5.088
 4566TIP3   OH213638   7.252   6.480   1.873
 4566TIP3    H113639   7.196   6.501   1.798
 4566TIP3    H213640   7.297   6.562   1.892
 4567TIP3   OH213641   0.120   0.817   0.129
 4567TIP3    H113642   0.033   0.855   0.140
 4567TIP3    H213643   0.161   0.829   0.215
 4568TIP3   OH213644   6.765   4.839   6.097
 4568TIP3    H113645   6.789   4.917   6.047
 4568TIP3    H213646   6.682   4.863   6.139
 4569TIP3   OH213647   7.114   0.653   5.338
 4569TIP3    H113648   7.116   0.749   5.337
 4569TIP3    H213649   7.193   0.627   5.291
 4570TIP3   OH213650   1.262   3.636   5.919
 4570TIP3    H113651   1.211   3.555   5.920
 4570TIP3    H213652   1.197   3.706   5.916
 4571TIP3   OH213653   0.699   3.339   4.493
 4571TIP3    H113654   0.658   3.330   4.579
 4571TIP3    H213655   0.626   3.329   4.431
 4572TIP3   OH213656   8.175   6.347   1.093
 4572TIP3    H113657   8.190   6.377   1.003
 4572TIP3    H213658   8.141   6.258   1.084
 4573TIP3   OH213659   6.693   2.573   4.190
 4573TIP3    H113660   6.620   2.573   4.252
 4573TIP3    H213661   6.676   2.647   4.132
 4574TIP3   OH213662   4.515   2.609   6.868
 4574TIP3    H113663   4.447   2.578   6.807
 4574TIP3    H213664   4.590   2.626   6.812
 4575TIP3   OH213665   1.399   2.250   5.690
 4575TIP3    H113666   1.465   2.315   5.715
 4575TIP3    H213667   1.326   2.266   5.749
 4576TIP3   OH213668   5.599   0.735   5.503
 4576TIP3    H113669   5.640   0.675   5.565
 4576TIP3    H213670   5.624   0.822   5.533
 4577TIP3   OH213671   1.187   5.842   2.202
 4577TIP3    H113672   1.110   5.784   2.203
 4577TIP3    H213673   1.252   5.796   2.255
 4578TIP3   OH213674   5.280   2.998   6.092
 4578TIP3    H113675   5.294   2.982   5.999
 4578TIP3    H213676   5.214   3.067   6.095
 4579TIP3   OH213677   6.335   4.045   5.660
 4579TIP3    H113678   6.390   4.006   5.593
 4579TIP3    H213679   6.394   4.061   5.734
 4580TIP3   OH213680   7.900   6.117   5.065
 4580TIP3    H113681   7.977   6.124   5.008
 4580TIP3    H213682   7.835   6.070   5.013
 4581TIP3   OH213683   6.394   7.746   4.768
 4581TIP3    H113684   6.356   7.814   4.824
 4581TIP3    H213685   6.419   7.676   4.828
 4582TIP3   OH213686   2.420   5.222   6.645
 4582TIP3    H113687   2.451   5.311   6.627
 4582TIP3    H213688   2.342   5.234   6.698
 4583TIP3   OH213689   1.536   0.239   2.611
 4583TIP3    H113690   1.625   0.255   2.645
 4583TIP3    H213691   1.479   0.259   2.685
 4584TIP3   OH213692   2.564   6.244   6.320
 4584TIP3    H113693   2.535   6.263   6.231
 4584TIP3    H213694   2.499   6.286   6.376
 4585TIP3   OH213695   1.509   4.978   6.438
 4585TIP3    H113696   1.533   5.004   6.527
 4585TIP3    H213697   1.417   4.954   6.444
 4586TIP3   OH213698   8.126   3.008   2.450
 4586TIP3    H113699   8.172   2.944   2.396
 4586TIP3    H213700   8.038   3.011   2.413
 4587TIP3   OH213701   5.194   3.229   0.754
 4587TIP3    H113702   5.123   3.196   0.810
 4587TIP3    H213703   5.181   3.324   0.753
 4588TIP3   OH213704   4.083   1.049   1.170
 4588TIP3    H113705   4.169   1.011   1.188
 4588TIP3    H213706   4.092   1.089   1.084
 4589TIP3   OH213707   7.343   5.783   0.018
 4589TIP3    H113708   7.340   5.786   0.113
 4589TIP3    H213709   7.309   5.697  -0.005
 4590TIP3   OH213710   7.326   1.939   4.374
 4590TIP3    H113711   7.265   1.990   4.320
 4590TIP3    H213712   7.389   2.003   4.407
 4591TIP3   OH213713   4.779   0.689   2.478
 4591TIP3    H113714   4.849   0.724   2.533
 4591TIP3    H213715   4.788   0.734   2.395
 4592TIP3   OH213716   6.366   5.967   2.208
 4592TIP3    H113717   6.419   6.037   2.171
 4592TIP3    H213718   6.426   5.917   2.263
 4593TIP3   OH213719   5.157   2.796   0.635
 4593TIP3    H113720   5.077   2.775   0.684
 4593TIP3    H213721   5.228   2.769   0.693
 4594TIP3   OH213722   6.376   7.069   6.267
 4594TIP3    H113723   6.399   7.162   6.273
 4594TIP3    H213724   6.458   7.022   6.276
 4595TIP3   OH213725   7.708   0.377   2.069
 4595TIP3    H113726   7.649   0.452   2.072
 4595TIP3    H213727   7.789   0.408   2.109
 4596TIP3   OH213728   0.801   6.170   2.521
 4596TIP3    H113729   0.857   6.230   2.569
 4596TIP3    H213730   0.719   6.168   2.571
 4597TIP3   OH213731   2.749   2.195   2.041
 4597TIP3    H113732   2.823   2.187   1.981
 4597TIP3    H213733   2.695   2.118   2.021
 4598TIP3   OH213734   5.488   4.169   3.233
 4598TIP3    H113735   5.502   4.084   3.190
 4598TIP3    H213736   5.460   4.227   3.163
 4599TIP3   OH213737   5.644   2.461   5.834
 4599TIP3    H113738   5.577   2.504   5.887
 4599TIP3    H213739   5.642   2.508   5.750
 4600TIP3   OH213740   2.517   5.499   5.839
 4600TIP3    H113741   2.558   5.529   5.758
 4600TIP3    H213742   2.479   5.578   5.877
 4601TIP3   OH213743   5.544   5.007   4.907
 4601TIP3    H113744   5.449   5.013   4.899
 4601TIP3    H213745   5.559   4.982   4.998
 4602TIP3   OH213746   0.638   7.635   3.451
 4602TIP3    H113747   0.702   7.706   3.456
 4602TIP3    H213748   0.559   7.676   3.417
 4603TIP3   OH213749   0.784   5.636   3.370
 4603TIP3    H113750   0.861   5.620   3.425
 4603TIP3    H213751   0.717   5.665   3.432
 4604TIP3   OH213752   4.371   0.587   4.293
 4604TIP3    H113753   4.429   0.515   4.269
 4604TIP3    H213754   4.323   0.554   4.369
 4605TIP3   OH213755   6.270   2.513   5.743
 4605TIP3    H113756   6.358   2.537   5.714
 4605TIP3    H213757   6.238   2.590   5.790
 4606TIP3   OH213758   4.186   5.927   1.170
 4606TIP3    H113759   4.224   5.999   1.120
 4606TIP3    H213760   4.133   5.970   1.237
 4607TIP3   OH213761   1.050   5.164   5.707
 4607TIP3    H113762   1.037   5.071   5.727
 4607TIP3    H213763   1.055   5.207   5.792
 4608TIP3   OH213764   2.575   4.408   1.261
 4608TIP3    H113765   2.657   4.434   1.220
 4608TIP3    H213766   2.588   4.317   1.287
 4609TIP3   OH213767   2.750   2.809   4.810
 4609TIP3    H113768   2.689   2.853   4.750
 4609TIP3    H213769   2.723   2.838   4.897
 4610TIP3   OH213770   7.881   1.275   0.540
 4610TIP3    H113771   7.852   1.193   0.500
 4610TIP3    H213772   7.974   1.280   0.519
 4611TIP3   OH213773   3.075   1.791   0.568
 4611TIP3    H113774   3.053   1.764   0.479
 4611TIP3    H213775   3.163   1.829   0.560
 4612TIP3   OH213776   1.967   4.419   0.977
 4612TIP3    H113777   1.872   4.421   0.963
 4612TIP3    H213778   1.982   4.486   1.044
 4613TIP3   OH213779   5.551   6.345   0.039
 4613TIP3    H113780   5.462   6.376   0.023
 4613TIP3    H213781   5.597   6.360  -0.044
 4614TIP3   OH213782   6.867   1.065   1.596
 4614TIP3    H113783   6.819   1.146   1.609
 4614TIP3    H213784   6.819   1.020   1.527
 4615TIP3   OH213785   3.258   3.105   0.310
 4615TIP3    H113786   3.221   3.071   0.228
 4615TIP3    H213787   3.347   3.131   0.287
 4616TIP3   OH213788   4.924   0.813   2.249
 4616TIP3    H113789   4.948   0.787   2.161
 4616TIP3    H213790   4.933   0.909   2.249
 4617TIP3   OH213791   4.681   2.642   5.777
 4617TIP3    H113792   4.747   2.694   5.732
 4617TIP3    H213793   4.698   2.552   5.749
 4618TIP3   OH213794   8.211   3.163   3.634
 4618TIP3    H113795   8.259   3.122   3.562
 4618TIP3    H213796   8.149   3.096   3.663
 4619TIP3   OH213797   7.984   6.199   0.329
 4619TIP3    H113798   7.944   6.157   0.253
 4619TIP3    H213799   7.963   6.142   0.403
 4620TIP3   OH213800   7.846   1.896   1.629
 4620TIP3    H113801   7.915   1.829   1.626
 4620TIP3    H213802   7.784   1.870   1.560
 4621TIP3   OH213803   5.405   5.996   0.917
 4621TIP3    H113804   5.468   6.024   0.983
 4621TIP3    H213805   5.432   6.042   0.838
 4622TIP3   OH213806   2.722   7.161   2.910
 4622TIP3    H113807   2.646   7.103   2.901
 4622TIP3    H213808   2.743   7.158   3.003
 4623TIP3   OH213809   2.985   5.342   4.286
 4623TIP3    H113810   2.957   5.400   4.356
 4623TIP3    H213811   2.912   5.343   4.224
 4624TIP3   OH213812   6.187   0.048   6.011
 4624TIP3    H113813   6.167   0.107   6.083
 4624TIP3    H213814   6.283   0.042   6.010
 4625TIP3   OH213815   6.958   5.973   6.676
 4625TIP3    H113816   6.951   6.023   6.757
 4625TIP3    H213817   6.869   5.939   6.662
 4626TIP3   OH213818   5.347   2.704   4.654
 4626TIP3    H113819   5.345   2.762   4.729
 4626TIP3    H213820   5.281   2.638   4.672
 4627TIP3   OH213821   2.009   2.002   4.626
 4627TIP3    H113822   2.001   2.022   4.719
 4627TIP3    H213823   2.104   1.999   4.611
 4628TIP3   OH213824   2.895   2.551   4.407
 4628TIP3    H113825   2.954   2.555   4.483
 4628TIP3    H213826   2.849   2.468   4.417
 4629TIP3   OH213827   1.434   2.383   4.439
 4629TIP3    H113828   1.352   2.422   4.411
 4629TIP3    H213829   1.413   2.343   4.524
 4630TIP3   OH213830   5.575   3.326   3.051
 4630TIP3    H113831   5.537   3.243   3.022
 4630TIP3    H213832   5.512   3.393   3.022
 4631TIP3   OH213833   6.541   5.593   0.187
 4631TIP3    H113834   6.516   5.684   0.202
 4631TIP3    H213835   6.458   5.548   0.169
 4632TIP3   OH213836   6.959   1.186   6.821
 4632TIP3    H113837   7.049   1.217   6.827
 4632TIP3    H213838   6.937   1.195   6.728
 4633TIP3   OH213839   2.609   4.650   3.618
 4633TIP3    H113840   2.595   4.725   3.561
 4633TIP3    H213841   2.521   4.623   3.644
 4634TIP3   OH213842   5.204   3.286   1.908
 4634TIP3    H113843   5.241   3.290   1.819
 4634TIP3    H213844   5.110   3.299   1.895
 4635TIP3   OH213845   1.446   3.784   5.608
 4635TIP3    H113846   1.398   3.729   5.546
 4635TIP3    H213847   1.485   3.853   5.553
 4636TIP3   OH213848   5.696   4.907   1.065
 4636TIP3    H113849   5.624   4.904   1.002
 4636TIP3    H213850   5.754   4.835   1.039
 4637TIP3   OH213851   4.766   5.981   4.620
 4637TIP3    H113852   4.773   5.977   4.525
 4637TIP3    H213853   4.845   5.936   4.652
 4638TIP3   OH213854   0.062   0.461   5.921
 4638TIP3    H113855   0.046   0.475   6.014
 4638TIP3    H213856  -0.024   0.439   5.885
 4639TIP3   OH213857   6.798   7.079   3.122
 4639TIP3    H113858   6.740   7.140   3.169
 4639TIP3    H213859   6.882   7.125   3.119
 4640TIP3   OH213860   1.780   1.060   3.501
 4640TIP3    H113861   1.780   0.966   3.516
 4640TIP3    H213862   1.822   1.097   3.578
 4641TIP3   OH213863   7.622   4.974   4.787
 4641TIP3    H113864   7.691   4.927   4.834
 4641TIP3    H213865   7.638   4.955   4.694
 4642TIP3   OH213866   4.267   7.842   5.192
 4642TIP3    H113867   4.274   7.840   5.288
 4642TIP3    H213868   4.321   7.768   5.163
 4643TIP3   OH213869   7.529   3.122   4.275
 4643TIP3    H113870   7.608   3.094   4.323
 4643TIP3    H213871   7.563   3.179   4.206
 4644TIP3   OH213872   5.973   1.457   6.166
 4644TIP3    H113873   5.900   1.400   6.142
 4644TIP3    H213874   6.034   1.449   6.092
 4645TIP3   OH213875   0.902   0.482   1.304
 4645TIP3    H113876   0.918   0.497   1.397
 4645TIP3    H213877   0.989   0.478   1.264
 4646TIP3   OH213878   5.737   5.058   4.384
 4646TIP3    H113879   5.716   5.077   4.293
 4646TIP3    H213880   5.833   5.061   4.389
 4647TIP3   OH213881   4.543   4.124   1.243
 4647TIP3    H113882   4.495   4.105   1.163
 4647TIP3    H213883   4.531   4.046   1.297
 4648TIP3   OH213884   1.334   1.695   4.511
 4648TIP3    H113885   1.320   1.602   4.497
 4648TIP3    H213886   1.404   1.700   4.576
 4649TIP3   OH213887   5.140   1.035   5.258
 4649TIP3    H113888   5.227   1.075   5.268
 4649TIP3    H213889   5.088   1.102   5.215
 4650TIP3   OH213890   0.183   0.717   3.103
 4650TIP3    H113891   0.265   0.681   3.135
 4650TIP3    H213892   0.160   0.786   3.166
 4651TIP3   OH213893   1.482   2.511   0.267
 4651TIP3    H113894   1.550   2.444   0.254
 4651TIP3    H213895   1.511   2.585   0.214
 4652TIP3   OH213896   0.764   0.510   5.552
 4652TIP3    H113897   0.714   0.588   5.578
 4652TIP3    H213898   0.705   0.461   5.495
 4653TIP3   OH213899   2.523   7.078   0.440
 4653TIP3    H113900   2.580   7.155   0.435
 4653TIP3    H213901   2.492   7.065   0.350
 4654TIP3   OH213902   3.255   5.022   4.422
 4654TIP3    H113903   3.275   4.984   4.508
 4654TIP3    H213904   3.199   4.958   4.380
 4655TIP3   OH213905   4.637   5.454   0.281
 4655TIP3    H113906   4.561   5.456   0.339
 4655TIP3    H213907   4.685   5.534   0.302
 4656TIP3   OH213908   5.193   3.684   0.271
 4656TIP3    H113909   5.185   3.589   0.271
 4656TIP3    H213910   5.264   3.703   0.208
 4657TIP3   OH213911   4.720   7.375   1.658
 4657TIP3    H113912   4.713   7.379   1.563
 4657TIP3    H213913   4.679   7.456   1.688
 4658TIP3   OH213914   2.425   3.774   5.908
 4658TIP3    H113915   2.349   3.730   5.946
 4658TIP3    H213916   2.387   3.834   5.843
 4659TIP3   OH213917   3.555   4.523   3.612
 4659TIP3    H113918   3.588   4.481   3.691
 4659TIP3    H213919   3.543   4.615   3.636
 4660TIP3   OH213920   3.070   3.344   0.061
 4660TIP3    H113921   3.028   3.398   0.128
 4660TIP3    H213922   3.140   3.399   0.027
 4661TIP3   OH213923   1.580   2.777   6.234
 4661TIP3    H113924   1.598   2.852   6.291
 4661TIP3    H213925   1.660   2.765   6.184
 4662TIP3   OH213926   5.821   1.473   4.055
 4662TIP3    H113927   5.892   1.531   4.083
 4662TIP3    H213928   5.745   1.530   4.046
 4663TIP3   OH213929   6.306   4.253   5.989
 4663TIP3    H113930   6.233   4.262   5.927
 4663TIP3    H213931   6.369   4.197   5.944
 4664TIP3   OH213932   5.390   0.531   0.153
 4664TIP3    H113933   5.319   0.511   0.093
 4664TIP3    H213934   5.435   0.606   0.113
 4665TIP3   OH213935   3.814   2.485   5.792
 4665TIP3    H113936   3.720   2.498   5.803
 4665TIP3    H213937   3.838   2.548   5.724
 4666TIP3   OH213938   0.449   2.511   1.814
 4666TIP3    H113939   0.381   2.465   1.765
 4666TIP3    H213940   0.469   2.453   1.887
 4667TIP3   OH213941   3.112   6.656   2.051
 4667TIP3    H113942   3.118   6.747   2.078
 4667TIP3    H213943   3.027   6.626   2.085
 4668TIP3   OH213944   7.659   3.349   3.466
 4668TIP3    H113945   7.597   3.319   3.400
 4668TIP3    H213946   7.745   3.335   3.427
 4669TIP3   OH213947   8.117   4.729   0.255
 4669TIP3    H113948   8.074   4.646   0.278
 4669TIP3    H213949   8.199   4.702   0.214
 4670TIP3   OH213950   1.803   5.770   1.993
 4670TIP3    H113951   1.799   5.780   2.088
 4670TIP3    H213952   1.815   5.859   1.960
 4671TIP3   OH213953   8.334   3.335   0.885
 4671TIP3    H113954   8.258   3.324   0.942
 4671TIP3    H213955   8.407   3.299   0.935
 4672TIP3   OH213956   6.295   6.505   2.038
 4672TIP3    H113957   6.254   6.425   2.008
 4672TIP3    H213958   6.298   6.562   1.961
 4673TIP3   OH213959   1.030   2.394   4.017
 4673TIP3    H113960   0.985   2.350   3.946
 4673TIP3    H213961   1.109   2.430   3.977
 4674TIP3   OH213962   6.092   6.440   2.627
 4674TIP3    H113963   6.170   6.492   2.608
 4674TIP3    H213964   6.020   6.488   2.586
 4675TIP3   OH213965   5.323   7.478   1.389
 4675TIP3    H113966   5.315   7.426   1.309
 4675TIP3    H213967   5.256   7.546   1.380
 4676TIP3   OH213968   2.260   5.254   4.460
 4676TIP3    H113969   2.189   5.241   4.398
 4676TIP3    H213970   2.269   5.349   4.467
 4677TIP3   OH213971   2.565   0.755   1.746
 4677TIP3    H113972   2.491   0.701   1.774
 4677TIP3    H213973   2.638   0.727   1.802
 4678TIP3   OH213974   1.908   2.156   1.415
 4678TIP3    H113975   1.941   2.244   1.396
 4678TIP3    H213976   1.813   2.166   1.422
 4679TIP3   OH213977   0.956   4.598   3.964
 4679TIP3    H113978   0.997   4.583   4.049
 4679TIP3    H213979   0.904   4.519   3.948
 4680TIP3   OH213980   4.885   0.857   3.519
 4680TIP3    H113981   4.937   0.812   3.585
 4680TIP3    H213982   4.922   0.945   3.514
 4681TIP3   OH213983   1.489   6.753   5.554
 4681TIP3    H113984   1.510   6.819   5.619
 4681TIP3    H213985   1.394   6.744   5.558
 4682TIP3   OH213986   5.727   7.307   3.423
 4682TIP3    H113987   5.633   7.311   3.405
 4682TIP3    H213988   5.768   7.304   3.336
 4683TIP3   OH213989   6.834   2.941   5.965
 4683TIP3    H113990   6.920   2.901   5.978
 4683TIP3    H213991   6.824   3.000   6.040
 4684TIP3   OH213992   6.631   1.637   2.628
 4684TIP3    H113993   6.578   1.667   2.555
 4684TIP3    H213994   6.711   1.689   2.623
 4685TIP3   OH213995   2.154   1.466   5.297
 4685TIP3    H113996   2.185   1.499   5.213
 4685TIP3    H213997   2.205   1.387   5.312
 4686TIP3   OH213998   7.839   5.023   0.553
 4686TIP3    H113999   7.832   4.985   0.466
 4686TIP3    H214000   7.876   5.111   0.538
 4687TIP3   OH214001   8.180   5.751   1.425
 4687TIP3    H114002   8.267   5.718   1.446
 4687TIP3    H214003   8.194   5.805   1.347
 4688TIP3   OH214004   1.797   7.233   4.386
 4688TIP3    H114005   1.829   7.211   4.473
 4688TIP3    H214006   1.864   7.200   4.327
 4689TIP3   OH214007   0.529  -0.044   2.188
 4689TIP3    H114008   0.601  -0.105   2.206
 4689TIP3    H214009   0.573   0.040   2.175
 4690TIP3   OH214010   5.313   7.056   3.873
 4690TIP3    H114011   5.309   7.152   3.870
 4690TIP3    H214012   5.378   7.033   3.807
 4691TIP3   OH214013   0.237   4.144   3.820
 4691TIP3    H114014   0.308   4.079   3.819
 4691TIP3    H214015   0.212   4.153   3.728
 4692TIP3   OH214016   1.372   6.292   4.564
 4692TIP3    H114017   1.434   6.361   4.538
 4692TIP3    H214018   1.427   6.225   4.603
 4693TIP3   OH214019   4.712   1.240   4.231
 4693TIP3    H114020   4.729   1.147   4.217
 4693TIP3    H214021   4.617   1.247   4.236
 4694TIP3   OH214022   1.016   2.860   4.601
 4694TIP3    H114023   0.974   2.945   4.597
 4694TIP3    H214024   1.038   2.840   4.510
 4695TIP3   OH214025   0.634   1.212   5.991
 4695TIP3    H114026   0.547   1.175   5.980
 4695TIP3    H214027   0.663   1.232   5.902
 4696TIP3   OH214028   0.837   7.217   6.012
 4696TIP3    H114029   0.895   7.243   6.083
 4696TIP3    H214030   0.790   7.140   6.046
 4697TIP3   OH214031   1.293   5.908   0.717
 4697TIP3    H114032   1.279   5.879   0.807
 4697TIP3    H214033   1.338   5.835   0.675
 4698TIP3   OH214034   1.272   7.186   4.939
 4698TIP3    H114035   1.197   7.136   4.908
 4698TIP3    H214036   1.264   7.186   5.034
 4699TIP3   OH214037   0.534   4.869   1.189
 4699TIP3    H114038   0.458   4.813   1.202
 4699TIP3    H214039   0.517   4.946   1.244
 4700TIP3   OH214040   7.857   6.992   4.159
 4700TIP3    H114041   7.794   6.940   4.209
 4700TIP3    H214042   7.875   6.939   4.082
 4701TIP3   OH214043   3.807   4.886   5.925
 4701TIP3    H114044   3.728   4.833   5.917
 4701TIP3    H214045   3.820   4.897   6.019
 4702TIP3   OH214046   2.464   0.988   2.955
 4702TIP3    H114047   2.427   1.014   2.871
 4702TIP3    H214048   2.487   1.071   2.998
 4703TIP3   OH214049   4.672   1.770   5.115
 4703TIP3    H114050   4.749   1.741   5.067
 4703TIP3    H214051   4.647   1.695   5.169
 4704TIP3   OH214052   2.563   3.897   4.696
 4704TIP3    H114053   2.636   3.952   4.666
 4704TIP3    H214054   2.490   3.959   4.708
 4705TIP3   OH214055   4.969   3.849   6.581
 4705TIP3    H114056   4.989   3.778   6.519
 4705TIP3    H214057   4.888   3.821   6.623
 4706TIP3   OH214058   1.595   1.171   2.811
 4706TIP3    H114059   1.565   1.152   2.899
 4706TIP3    H214060   1.516   1.165   2.757
 4707TIP3   OH214061   3.604   7.136   0.205
 4707TIP3    H114062   3.606   7.227   0.234
 4707TIP3    H214063   3.638   7.087   0.280
 4708TIP3   OH214064   5.737   0.383   2.915
 4708TIP3    H114065   5.771   0.335   2.990
 4708TIP3    H214066   5.643   0.364   2.915
 4709TIP3   OH214067   3.519   1.481   2.712
 4709TIP3    H114068   3.479   1.554   2.667
 4709TIP3    H214069   3.605   1.471   2.670
 4710TIP3   OH214070   8.291   1.095   0.600
 4710TIP3    H114071   8.381   1.062   0.603
 4710TIP3    H214072   8.282   1.148   0.680
 4711TIP3   OH214073   0.982   7.255   0.355
 4711TIP3    H114074   0.995   7.241   0.449
 4711TIP3    H214075   0.887   7.254   0.344
 4712TIP3   OH214076   5.577   1.037   6.811
 4712TIP3    H114077   5.642   1.022   6.880
 4712TIP3    H214078   5.579   0.957   6.759
 4713TIP3   OH214079   4.312   2.100   3.432
 4713TIP3    H114080   4.288   2.019   3.476
 4713TIP3    H214081   4.230   2.133   3.395
 4714TIP3   OH214082   4.457   4.012   5.297
 4714TIP3    H114083   4.469   4.048   5.210
 4714TIP3    H214084   4.523   3.942   5.304
 4715TIP3   OH214085   4.593   2.922   4.474
 4715TIP3    H114086   4.571   2.851   4.534
 4715TIP3    H214087   4.685   2.942   4.492
 4716TIP3   OH214088   4.471   7.014   3.990
 4716TIP3    H114089   4.399   7.012   3.926
 4716TIP3    H214090   4.533   7.076   3.953
 4717TIP3   OH214091   2.530   6.716   5.366
 4717TIP3    H114092   2.585   6.655   5.415
 4717TIP3    H214093   2.501   6.667   5.290
 4718TIP3   OH214094   3.203   4.947   6.008
 4718TIP3    H114095   3.215   4.853   6.002
 4718TIP3    H214096   3.197   4.965   6.102
 4719TIP3   OH214097   3.797   3.683   6.170
 4719TIP3    H114098   3.790   3.706   6.262
 4719TIP3    H214099   3.849   3.602   6.169
 4720TIP3   OH214100   3.532   5.467   1.549
 4720TIP3    H114101   3.532   5.555   1.587
 4720TIP3    H214102   3.440   5.450   1.528
 4721TIP3   OH214103   4.956   1.035   5.574
 4721TIP3    H114104   5.043   1.016   5.610
 4721TIP3    H214105   4.903   0.958   5.596
 4722TIP3   OH214106   2.000   4.760   3.403
 4722TIP3    H114107   2.072   4.814   3.372
 4722TIP3    H214108   2.028   4.670   3.385
 4723TIP3   OH214109   3.024   7.917   6.788
 4723TIP3    H114110   3.030   7.844   6.728
 4723TIP3    H214111   3.109   7.920   6.832
 4724TIP3   OH214112   8.182   7.744   4.718
 4724TIP3    H114113   8.112   7.805   4.693
 4724TIP3    H214114   8.208   7.703   4.636
 4725TIP3   OH214115   6.807   2.286   3.298
 4725TIP3    H114116   6.742   2.228   3.338
 4725TIP3    H214117   6.789   2.281   3.204
 4726TIP3   OH214118   3.954   4.225   0.559
 4726TIP3    H114119   3.895   4.201   0.488
 4726TIP3    H214120   3.936   4.162   0.629
 4727TIP3   OH214121   6.067   3.538   6.778
 4727TIP3    H114122   6.137   3.559   6.717
 4727TIP3    H214123   5.999   3.603   6.760
 4728TIP3   OH214124   7.448   0.296   1.978
 4728TIP3    H114125   7.539   0.300   2.005
 4728TIP3    H214126   7.412   0.222   2.027
 4729TIP3   OH214127   7.511   2.195   0.782
 4729TIP3    H114128   7.440   2.162   0.727
 4729TIP3    H214129   7.490   2.162   0.870
 4730TIP3   OH214130   2.742   6.360   3.300
 4730TIP3    H114131   2.652   6.344   3.326
 4730TIP3    H214132   2.736   6.427   3.232
 4731TIP3   OH214133   0.157   7.685   2.697
 4731TIP3    H114134   0.156   7.651   2.607
 4731TIP3    H214135   0.133   7.777   2.688
 4732TIP3   OH214136   7.647   7.105   5.250
 4732TIP3    H114137   7.665   7.184   5.198
 4732TIP3    H214138   7.595   7.136   5.323
 4733TIP3   OH214139   7.186   6.315   4.646
 4733TIP3    H114140   7.129   6.353   4.579
 4733TIP3    H214141   7.134   6.320   4.727
 4734TIP3   OH214142   1.540   3.217   3.370
 4734TIP3    H114143   1.581   3.131   3.370
 4734TIP3    H214144   1.604   3.274   3.413
 4735TIP3   OH214145   2.113   7.523   5.927
 4735TIP3    H114146   2.108   7.486   5.839
 4735TIP3    H214147   2.181   7.472   5.971
 4736TIP3   OH214148   3.704   1.021   1.440
 4736TIP3    H114149   3.748   1.087   1.387
 4736TIP3    H214150   3.662   0.963   1.376
 4737TIP3   OH214151   5.707   4.592   5.867
 4737TIP3    H114152   5.759   4.598   5.947
 4737TIP3    H214153   5.751   4.650   5.805
 4738TIP3   OH214154   3.366   3.264   3.951
 4738TIP3    H114155   3.365   3.197   4.020
 4738TIP3    H214156   3.394   3.217   3.873
 4739TIP3   OH214157   0.896   6.078   3.613
 4739TIP3    H114158   0.897   6.050   3.521
 4739TIP3    H214159   0.925   6.001   3.662
 4740TIP3   OH214160   1.746   3.616   0.585
 4740TIP3    H114161   1.783   3.568   0.512
 4740TIP3    H214162   1.680   3.673   0.545
 4741TIP3   OH214163   0.664   5.925   5.427
 4741TIP3    H114164   0.732   5.991   5.440
 4741TIP3    H214165   0.650   5.924   5.333
 4742TIP3   OH214166   1.936   7.746   4.596
 4742TIP3    H114167   1.964   7.698   4.519
 4742TIP3    H214168   1.881   7.816   4.562
 4743TIP3   OH214169   3.583   1.520   6.585
 4743TIP3    H114170   3.520   1.458   6.550
 4743TIP3    H214171   3.590   1.588   6.518
 4744TIP3   OH214172   2.777   2.931   1.573
 4744TIP3    H114173   2.783   2.835   1.569
 4744TIP3    H214174   2.756   2.957   1.484
 4745TIP3   OH214175   4.253   5.513   4.722
 4745TIP3    H114176   4.183   5.451   4.702
 4745TIP3    H214177   4.240   5.585   4.660
 4746TIP3   OH214178   5.026   5.819   1.273
 4746TIP3    H114179   5.112   5.820   1.315
 4746TIP3    H214180   4.976   5.886   1.319
 4747TIP3   OH214181   8.362   1.920   1.091
 4747TIP3    H114182   8.413   1.951   1.166
 4747TIP3    H214183   8.274   1.907   1.126
 4748TIP3   OH214184   1.034   3.318   6.390
 4748TIP3    H114185   1.059   3.259   6.318
 4748TIP3    H214186   0.938   3.320   6.387
 4749TIP3   OH214187   8.087   6.660   0.511
 4749TIP3    H114188   8.105   6.629   0.600
 4749TIP3    H214189   8.167   6.705   0.485
 4750TIP3   OH214190   7.563   3.651   1.377
 4750TIP3    H114191   7.541   3.579   1.318
 4750TIP3    H214192   7.486   3.707   1.377
 4751TIP3   OH214193   0.370   5.586   6.644
 4751TIP3    H114194   0.394   5.635   6.723
 4751TIP3    H214195   0.275   5.574   6.652
 4752TIP3   OH214196   5.299   2.960   4.175
 4752TIP3    H114197   5.250   2.909   4.239
 4752TIP3    H214198   5.255   2.943   4.092
 4753TIP3   OH214199   6.083   6.889   1.096
 4753TIP3    H114200   6.110   6.918   1.182
 4753TIP3    H214201   6.019   6.819   1.113
 4754TIP3   OH214202   5.859   5.522   0.689
 4754TIP3    H114203   5.838   5.614   0.672
 4754TIP3    H214204   5.836   5.508   0.781
 4755TIP3   OH214205   1.121   2.246   0.739
 4755TIP3    H114206   1.168   2.164   0.721
 4755TIP3    H214207   1.028   2.221   0.739
 4756TIP3   OH214208   7.787   0.475   5.704
 4756TIP3    H114209   7.777   0.565   5.736
 4756TIP3    H214210   7.717   0.427   5.747
 4757TIP3   OH214211   5.452   3.279   5.505
 4757TIP3    H114212   5.475   3.350   5.445
 4757TIP3    H214213   5.496   3.202   5.467
 4758TIP3   OH214214   7.999   5.769   5.692
 4758TIP3    H114215   7.982   5.695   5.750
 4758TIP3    H214216   8.080   5.808   5.726
 4759TIP3   OH214217   6.637   4.442   4.463
 4759TIP3    H114218   6.570   4.431   4.395
 4759TIP3    H214219   6.596   4.408   4.542
 4760TIP3   OH214220   6.489   4.340   6.219
 4760TIP3    H114221   6.422   4.345   6.151
 4760TIP3    H214222   6.566   4.304   6.175
 4761TIP3   OH214223   0.845   7.316   2.011
 4761TIP3    H114224   0.926   7.279   1.977
 4761TIP3    H214225   0.785   7.314   1.937
 4762TIP3   OH214226   5.302   0.908   3.006
 4762TIP3    H114227   5.268   0.852   2.936
 4762TIP3    H214228   5.385   0.942   2.972
 4763TIP3   OH214229   7.606   7.872   4.359
 4763TIP3    H114230   7.539   7.892   4.424
 4763TIP3    H214231   7.658   7.952   4.351
 4764TIP3   OH214232   5.353   7.485   2.472
 4764TIP3    H114233   5.306   7.406   2.446
 4764TIP3    H214234   5.445   7.464   2.457
 4765TIP3   OH214235   4.266   1.421   4.975
 4765TIP3    H114236   4.295   1.510   4.953
 4765TIP3    H214237   4.176   1.417   4.943
 4766TIP3   OH214238   4.359   6.769   0.177
 4766TIP3    H114239   4.452   6.763   0.154
 4766TIP3    H214240   4.313   6.741   0.098
 4767TIP3   OH214241   3.549   3.584   1.144
 4767TIP3    H114242   3.583   3.648   1.207
 4767TIP3    H214243   3.585   3.500   1.172
 4768TIP3   OH214244   0.642   5.519   6.464
 4768TIP3    H114245   0.649   5.432   6.502
 4768TIP3    H214246   0.615   5.575   6.536
 4769TIP3   OH214247   3.992   3.668   5.260
 4769TIP3    H114248   3.942   3.750   5.252
 4769TIP3    H214249   4.062   3.690   5.321
 4770TIP3   OH214250   2.843   2.857   4.461
 4770TIP3    H114251   2.835   2.764   4.440
 4770TIP3    H214252   2.935   2.869   4.485
 4771TIP3   OH214253   2.816   5.699   0.629
 4771TIP3    H114254   2.772   5.627   0.674
 4771TIP3    H214255   2.906   5.669   0.617
 4772TIP3   OH214256   4.438   0.150   5.294
 4772TIP3    H114257   4.351   0.187   5.278
 4772TIP3    H214258   4.421   0.074   5.351
 4773TIP3   OH214259   1.113   7.848   6.807
 4773TIP3    H114260   1.204   7.848   6.778
 4773TIP3    H214261   1.062   7.846   6.727
 4774TIP3   OH214262   8.191   6.414   3.385
 4774TIP3    H114263   8.140   6.472   3.328
 4774TIP3    H214264   8.240   6.474   3.442
 4775TIP3   OH214265   8.372   6.392   1.279
 4775TIP3    H114266   8.338   6.310   1.314
 4775TIP3    H214267   8.305   6.422   1.217
 4776TIP3   OH214268   4.918   2.875   1.914
 4776TIP3    H114269   5.012   2.888   1.908
 4776TIP3    H214270   4.905   2.825   1.994
 4777TIP3   OH214271   7.442   2.285   5.721
 4777TIP3    H114272   7.530   2.279   5.756
 4777TIP3    H214273   7.407   2.196   5.729
 4778TIP3   OH214274   6.732   1.062   2.668
 4778TIP3    H114275   6.782   1.002   2.612
 4778TIP3    H214276   6.656   1.011   2.696
 4779TIP3   OH214277   2.901   2.615   5.681
 4779TIP3    H114278   2.895   2.700   5.639
 4779TIP3    H214279   2.995   2.600   5.692
 4780TIP3   OH214280   8.172   2.324   4.380
 4780TIP3    H114281   8.166   2.382   4.304
 4780TIP3    H214282   8.084   2.288   4.390
 4781TIP3   OH214283   3.808   1.710   2.662
 4781TIP3    H114284   3.721   1.747   2.676
 4781TIP3    H214285   3.859   1.782   2.623
 4782TIP3   OH214286   0.289   1.803   1.809
 4782TIP3    H114287   0.240   1.753   1.874
 4782TIP3    H214288   0.225   1.822   1.740
 4783TIP3   OH214289   6.266   7.466   1.473
 4783TIP3    H114290   6.274   7.507   1.559
 4783TIP3    H214291   6.171   7.452   1.462
 4784TIP3   OH214292   2.462   0.464   0.847
 4784TIP3    H114293   2.463   0.508   0.932
 4784TIP3    H214294   2.554   0.466   0.818
 4785TIP3   OH214295   5.893   1.665   3.377
 4785TIP3    H114296   5.978   1.691   3.341
 4785TIP3    H214297   5.915   1.608   3.451
 4786TIP3   OH214298   4.221   0.050   2.654
 4786TIP3    H114299   4.136   0.073   2.692
 4786TIP3    H214300   4.272   0.131   2.659
 4787TIP3   OH214301   0.234   1.920   5.449
 4787TIP3    H114302   0.250   2.010   5.477
 4787TIP3    H214303   0.218   1.927   5.355
 4788TIP3   OH214304   5.431   0.877   4.679
 4788TIP3    H114305   5.493   0.906   4.746
 4788TIP3    H214306   5.463   0.792   4.652
 4789TIP3   OH214307   6.798   1.608   0.491
 4789TIP3    H114308   6.738   1.547   0.447
 4789TIP3    H214309   6.796   1.581   0.583
 4790TIP3   OH214310   3.900   3.764   2.429
 4790TIP3    H114311   3.870   3.688   2.379
 4790TIP3    H214312   3.935   3.823   2.363
 4791TIP3   OH214313   6.879   7.359   0.567
 4791TIP3    H114314   6.796   7.313   0.577
 4791TIP3    H214315   6.929   7.305   0.505
 4792TIP3   OH214316   6.401   4.845   6.510
 4792TIP3    H114317   6.362   4.852   6.597
 4792TIP3    H214318   6.326   4.851   6.450
 4793TIP3   OH214319   0.066   2.197   0.154
 4793TIP3    H114320   0.022   2.146   0.223
 4793TIP3    H214321   0.111   2.267   0.202
 4794TIP3   OH214322   5.913   6.342   5.853
 4794TIP3    H114323   5.835   6.305   5.811
 4794TIP3    H214324   5.984   6.283   5.829
 4795TIP3   OH214325   2.694   1.757   0.408
 4795TIP3    H114326   2.684   1.757   0.503
 4795TIP3    H214327   2.606   1.777   0.374
 4796TIP3   OH214328   0.988   5.856   3.776
 4796TIP3    H114329   0.992   5.889   3.866
 4796TIP3    H214330   0.925   5.784   3.781
 4797TIP3   OH214331   2.471   7.051   4.572
 4797TIP3    H114332   2.383   7.086   4.565
 4797TIP3    H214333   2.460   6.956   4.573
 4798TIP3   OH214334   5.296   5.989   2.905
 4798TIP3    H114335   5.263   6.009   2.993
 4798TIP3    H214336   5.257   6.055   2.849
 4799TIP3   OH214337   1.960   2.780   5.720
 4799TIP3    H114338   1.898   2.751   5.787
 4799TIP3    H214339   2.036   2.723   5.731
 4800TIP3   OH214340   3.465   7.839   2.048
 4800TIP3    H114341   3.458   7.860   2.141
 4800TIP3    H214342   3.483   7.745   2.046
 4801TIP3   OH214343   3.909   4.125   4.148
 4801TIP3    H114344   3.842   4.101   4.084
 4801TIP3    H214345   3.955   4.199   4.109
 4802TIP3   OH214346   1.499   5.839   3.781
 4802TIP3    H114347   1.506   5.895   3.703
 4802TIP3    H214348   1.419   5.788   3.767
 4803TIP3   OH214349   2.838   4.598   0.247
 4803TIP3    H114350   2.867   4.533   0.182
 4803TIP3    H214351   2.797   4.545   0.316
 4804TIP3   OH214352   8.193   7.111   1.642
 4804TIP3    H114353   8.286   7.112   1.665
 4804TIP3    H214354   8.152   7.059   1.711
 4805TIP3   OH214355   7.201   0.808   0.683
 4805TIP3    H114356   7.264   0.754   0.731
 4805TIP3    H214357   7.233   0.806   0.592
 4806TIP3   OH214358   6.732   1.041   2.031
 4806TIP3    H114359   6.749   1.134   2.015
 4806TIP3    H214360   6.806   0.996   1.990
 4807TIP3   OH214361   6.690   3.365   5.226
 4807TIP3    H114362   6.729   3.289   5.268
 4807TIP3    H214363   6.600   3.365   5.256
 4808TIP3   OH214364   6.886   1.162   4.540
 4808TIP3    H114365   6.896   1.167   4.445
 4808TIP3    H214366   6.855   1.249   4.566
 4809TIP3   OH214367   0.979   0.504   2.744
 4809TIP3    H114368   0.899   0.535   2.703
 4809TIP3    H214369   0.995   0.566   2.815
 4810TIP3   OH214370   6.363   1.913   2.623
 4810TIP3    H114371   6.372   1.824   2.657
 4810TIP3    H214372   6.283   1.946   2.664
 4811TIP3   OH214373   7.772   1.608   4.652
 4811TIP3    H114374   7.699   1.669   4.639
 4811TIP3    H214375   7.813   1.600   4.566
 4812TIP3   OH214376   5.643   0.261   2.261
 4812TIP3    H114377   5.548   0.251   2.253
 4812TIP3    H214378   5.670   0.292   2.174
 4813TIP3   OH214379   8.128   2.911   4.085
 4813TIP3    H114380   8.203   2.885   4.030
 4813TIP3    H214381   8.142   3.003   4.104
 4814TIP3   OH214382   5.150   6.757   0.463
 4814TIP3    H114383   5.137   6.826   0.398
 4814TIP3    H214384   5.186   6.683   0.414
 4815TIP3   OH214385   7.686   5.925   3.478
 4815TIP3    H114386   7.744   5.868   3.427
 4815TIP3    H214387   7.708   5.905   3.569
 4816TIP3   OH214388   4.887   0.764   1.750
 4816TIP3    H114389   4.911   0.857   1.743
 4816TIP3    H214390   4.920   0.738   1.836
 4817TIP3   OH214391   2.197   0.923   3.737
 4817TIP3    H114392   2.289   0.952   3.741
 4817TIP3    H214393   2.164   0.936   3.826
 4818TIP3   OH214394   1.615   4.742   1.361
 4818TIP3    H114395   1.614   4.761   1.455
 4818TIP3    H214396   1.542   4.681   1.348
 4819TIP3   OH214397   0.658   0.524   1.830
 4819TIP3    H114398   0.674   0.430   1.839
 4819TIP3    H214399   0.702   0.563   1.905
 4820TIP3   OH214400   5.439   6.966   4.192
 4820TIP3    H114401   5.468   6.974   4.283
 4820TIP3    H214402   5.423   6.873   4.180
 4821TIP3   OH214403   3.924   3.339   5.383
 4821TIP3    H114404   4.016   3.349   5.409
 4821TIP3    H214405   3.875   3.379   5.455
 4822TIP3   OH214406   5.568   0.300   0.118
 4822TIP3    H114407   5.626   0.313   0.043
 4822TIP3    H214408   5.547   0.388   0.148
 4823TIP3   OH214409   0.154   6.547   3.357
 4823TIP3    H114410   0.080   6.585   3.404
 4823TIP3    H214411   0.230   6.569   3.411
 4824TIP3   OH214412   8.351   1.123   4.807
 4824TIP3    H114413   8.307   1.039   4.814
 4824TIP3    H214414   8.420   1.119   4.874
 4825TIP3   OH214415   6.593   7.735   6.739
 4825TIP3    H114416   6.642   7.812   6.708
 4825TIP3    H214417   6.515   7.733   6.683
 4826TIP3   OH214418   7.474   2.042   3.856
 4826TIP3    H114419   7.436   1.980   3.794
 4826TIP3    H214420   7.568   2.026   3.852
 4827TIP3   OH214421   4.987   1.078   2.170
 4827TIP3    H114422   5.049   1.080   2.244
 4827TIP3    H214423   4.981   1.170   2.143
 4828TIP3   OH214424   4.068   0.920   3.608
 4828TIP3    H114425   4.080   1.013   3.628
 4828TIP3    H214426   4.110   0.909   3.522
 4829TIP3   OH214427   7.702   4.649   0.214
 4829TIP3    H114428   7.641   4.581   0.243
 4829TIP3    H214429   7.690   4.652   0.119
 4830TIP3   OH214430   4.778   1.894   6.750
 4830TIP3    H114431   4.711   1.860   6.810
 4830TIP3    H214432   4.728   1.940   6.683
 4831TIP3   OH214433   1.591   0.981   5.732
 4831TIP3    H114434   1.589   1.070   5.697
 4831TIP3    H214435   1.591   0.992   5.827
 4832TIP3   OH214436   6.677   4.423   0.666
 4832TIP3    H114437   6.742   4.459   0.727
 4832TIP3    H214438   6.629   4.358   0.717
 4833TIP3   OH214439   0.530   4.939   6.776
 4833TIP3    H114440   0.556   4.866   6.719
 4833TIP3    H214441   0.536   4.904   6.865
 4834TIP3   OH214442   1.231   0.624   4.149
 4834TIP3    H114443   1.276   0.645   4.231
 4834TIP3    H214444   1.269   0.541   4.120
 4835TIP3   OH214445   3.521   3.264   5.187
 4835TIP3    H114446   3.531   3.171   5.206
 4835TIP3    H214447   3.601   3.288   5.141
 4836TIP3   OH214448   1.859   2.464   6.003
 4836TIP3    H114449   1.857   2.556   5.979
 4836TIP3    H214450   1.823   2.462   6.092
 4837TIP3   OH214451   5.933   4.819   3.900
 4837TIP3    H114452   6.015   4.769   3.908
 4837TIP3    H214453   5.951   4.901   3.945
 4838TIP3   OH214454   2.868   1.112   0.388
 4838TIP3    H114455   2.949   1.162   0.379
 4838TIP3    H214456   2.890   1.042   0.450
 4839TIP3   OH214457   1.972   3.997   1.934
 4839TIP3    H114458   1.969   4.093   1.936
 4839TIP3    H214459   1.912   3.973   1.863
 4840TIP3   OH214460   7.402   1.657   2.161
 4840TIP3    H114461   7.420   1.637   2.253
 4840TIP3    H214462   7.489   1.662   2.120
 4841TIP3   OH214463   1.395   0.859   3.499
 4841TIP3    H114464   1.323   0.799   3.483
 4841TIP3    H214465   1.470   0.803   3.520
 4842TIP3   OH214466   4.798   2.921   6.637
 4842TIP3    H114467   4.823   3.009   6.664
 4842TIP3    H214468   4.868   2.893   6.578
 4843TIP3   OH214469   2.000   2.745   5.315
 4843TIP3    H114470   1.928   2.684   5.332
 4843TIP3    H214471   2.073   2.690   5.288
 4844TIP3   OH214472   2.345   0.320   3.190
 4844TIP3    H114473   2.393   0.245   3.155
 4844TIP3    H214474   2.382   0.334   3.277
 4845TIP3   OH214475   3.987   5.210   3.904
 4845TIP3    H114476   3.991   5.203   3.809
 4845TIP3    H214477   4.056   5.152   3.936
 4846TIP3   OH214478   5.980   2.056   6.498
 4846TIP3    H114479   6.040   2.050   6.424
 4846TIP3    H214480   5.979   2.149   6.520
 4847TIP3   OH214481   7.437   2.875   5.415
 4847TIP3    H114482   7.532   2.887   5.409
 4847TIP3    H214483   7.401   2.963   5.403
 4848TIP3   OH214484   4.365   7.698   0.861
 4848TIP3    H114485   4.322   7.643   0.927
 4848TIP3    H214486   4.297   7.759   0.832
 4849TIP3   OH214487   7.963   4.541   4.820
 4849TIP3    H114488   7.886   4.587   4.854
 4849TIP3    H214489   8.028   4.548   4.890
 4850TIP3   OH214490   6.910   0.944   3.066
 4850TIP3    H114491   6.897   0.981   2.978
 4850TIP3    H214492   6.965   0.867   3.051
 4851TIP3   OH214493   2.265   7.460   0.653
 4851TIP3    H114494   2.360   7.465   0.665
 4851TIP3    H214495   2.229   7.464   0.742
 4852TIP3   OH214496   4.494   5.501   3.634
 4852TIP3    H114497   4.458   5.449   3.563
 4852TIP3    H214498   4.445   5.474   3.711
 4853TIP3   OH214499   6.207   0.973   5.006
 4853TIP3    H114500   6.214   1.067   5.020
 4853TIP3    H214501   6.286   0.950   4.955
 4854TIP3   OH214502   7.684   7.270   6.112
 4854TIP3    H114503   7.617   7.337   6.129
 4854TIP3    H214504   7.674   7.208   6.184
 4855TIP3   OH214505   6.404   2.671   2.892
 4855TIP3    H114506   6.411   2.581   2.860
 4855TIP3    H214507   6.374   2.662   2.982
 4856TIP3   OH214508   4.027   1.460   2.280
 4856TIP3    H114509   4.018   1.554   2.300
 4856TIP3    H214510   4.089   1.457   2.207
 4857TIP3   OH214511   4.742   0.410   2.438
 4857TIP3    H114512   4.752   0.497   2.399
 4857TIP3    H214513   4.651   0.407   2.468
 4858TIP3   OH214514   8.023   7.650   3.773
 4858TIP3    H114515   8.018   7.661   3.678
 4858TIP3    H214516   7.936   7.619   3.798
 4859TIP3   OH214517   5.667   3.006   5.185
 4859TIP3    H114518   5.653   3.027   5.277
 4859TIP3    H214519   5.625   2.920   5.174
 4860TIP3   OH214520   7.468   7.114   3.519
 4860TIP3    H114521   7.472   7.162   3.436
 4860TIP3    H214522   7.402   7.161   3.570
 4861TIP3   OH214523   3.930   1.069   2.209
 4861TIP3    H114524   4.019   1.042   2.230
 4861TIP3    H214525   3.888   1.083   2.294
 4862TIP3   OH214526   6.432   0.990   1.572
 4862TIP3    H114527   6.382   0.910   1.557
 4862TIP3    H214528   6.504   0.963   1.629
 4863TIP3   OH214529   1.606   3.967   3.942
 4863TIP3    H114530   1.632   3.888   3.894
 4863TIP3    H214531   1.535   3.939   3.999
 4864TIP3   OH214532   1.235   0.829   6.295
 4864TIP3    H114533   1.210   0.880   6.218
 4864TIP3    H214534   1.285   0.755   6.260
 4865TIP3   OH214535   2.402   1.860   5.116
 4865TIP3    H114536   2.490   1.846   5.080
 4865TIP3    H214537   2.418   1.893   5.204
 4866TIP3   OH214538   4.739   7.335   2.889
 4866TIP3    H114539   4.717   7.327   2.796
 4866TIP3    H214540   4.761   7.427   2.901
 4867TIP3   OH214541   8.077   5.353   0.915
 4867TIP3    H114542   8.164   5.390   0.902
 4867TIP3    H214543   8.038   5.407   0.984
 4868TIP3   OH214544   2.498   1.856   3.582
 4868TIP3    H114545   2.545   1.797   3.522
 4868TIP3    H214546   2.501   1.941   3.538
 4869TIP3   OH214547   7.535   7.758  -0.100
 4869TIP3    H114548   7.579   7.781  -0.018
 4869TIP3    H214549   7.488   7.837  -0.125
 4870TIP3   OH214550   5.291   6.678   3.864
 4870TIP3    H114551   5.374   6.665   3.817
 4870TIP3    H214552   5.316   6.724   3.944
 4871TIP3   OH214553   2.365   3.656   2.611
 4871TIP3    H114554   2.347   3.689   2.699
 4871TIP3    H214555   2.457   3.676   2.597
 4872TIP3   OH214556   1.757   0.810   2.958
 4872TIP3    H114557   1.806   0.786   3.037
 4872TIP3    H214558   1.667   0.825   2.988
 4873TIP3   OH214559   3.909   2.046   0.520
 4873TIP3    H114560   3.922   2.120   0.579
 4873TIP3    H214561   3.988   1.994   0.528
 4874TIP3   OH214562   6.255   2.513   2.634
 4874TIP3    H114563   6.168   2.475   2.623
 4874TIP3    H214564   6.239   2.594   2.682
 4875TIP3   OH214565   7.695   6.788   4.514
 4875TIP3    H114566   7.654   6.817   4.595
 4875TIP3    H214567   7.788   6.807   4.526
 4876TIP3   OH214568   5.046   4.045   3.125
 4876TIP3    H114569   5.082   4.070   3.040
 4876TIP3    H214570   5.052   4.125   3.177
 4877TIP3   OH214571   1.258   4.938   1.620
 4877TIP3    H114572   1.221   4.946   1.708
 4877TIP3    H214573   1.197   4.985   1.564
 4878TIP3   OH214574   6.440   0.726   6.617
 4878TIP3    H114575   6.439   0.670   6.695
 4878TIP3    H214576   6.440   0.816   6.652
 4879TIP3   OH214577   7.919   2.812   0.212
 4879TIP3    H114578   7.951   2.722   0.225
 4879TIP3    H214579   7.994   2.858   0.174
 4880TIP3   OH214580   4.222   2.448   2.046
 4880TIP3    H114581   4.148   2.447   1.984
 4880TIP3    H214582   4.266   2.532   2.029
 4881TIP3   OH214583   6.035   3.656   2.548
 4881TIP3    H114584   6.041   3.737   2.498
 4881TIP3    H214585   6.121   3.648   2.590
 4882TIP3   OH214586   2.809   3.125   4.524
 4882TIP3    H114587   2.742   3.142   4.590
 4882TIP3    H214588   2.813   3.029   4.517
 4883TIP3   OH214589   5.053   2.809   4.706
 4883TIP3    H114590   5.076   2.717   4.690
 4883TIP3    H214591   5.122   2.841   4.765
 4884TIP3   OH214592   2.645   0.406   5.368
 4884TIP3    H114593   2.587   0.351   5.314
 4884TIP3    H214594   2.589   0.478   5.398
 4885TIP3   OH214595   5.476   1.256   5.703
 4885TIP3    H114596   5.528   1.220   5.775
 4885TIP3    H214597   5.462   1.348   5.727
 4886TIP3   OH214598   7.068   4.268   3.404
 4886TIP3    H114599   7.007   4.194   3.400
 4886TIP3    H214600   7.154   4.229   3.390
 4887TIP3   OH214601   3.313   5.925   3.640
 4887TIP3    H114602   3.362   6.006   3.649
 4887TIP3    H214603   3.325   5.899   3.549
 4888TIP3   OH214604   7.897   7.700   0.989
 4888TIP3    H114605   7.818   7.651   1.012
 4888TIP3    H214606   7.867   7.767   0.929
 4889TIP3   OH214607   3.995   2.189   2.029
 4889TIP3    H114608   4.054   2.264   2.027
 4889TIP3    H214609   4.016   2.139   1.950
 4890TIP3   OH214610   6.392   0.753   1.828
 4890TIP3    H114611   6.470   0.801   1.799
 4890TIP3    H214612   6.405   0.665   1.794
 4891TIP3   OH214613   0.026   0.119   2.880
 4891TIP3    H114614   0.017   0.210   2.853
 4891TIP3    H214615  -0.013   0.115   2.967
 4892TIP3   OH214616   2.385   2.423   5.834
 4892TIP3    H114617   2.429   2.488   5.888
 4892TIP3    H214618   2.297   2.416   5.872
 4893TIP3   OH214619   0.619   0.536   4.275
 4893TIP3    H114620   0.611   0.588   4.355
 4893TIP3    H214621   0.557   0.464   4.287
 4894TIP3   OH214622   1.218   6.965   0.390
 4894TIP3    H114623   1.215   6.870   0.391
 4894TIP3    H214624   1.237   6.990   0.481
 4895TIP3   OH214625   2.942   3.208   2.396
 4895TIP3    H114626   2.922   3.284   2.341
 4895TIP3    H214627   3.035   3.216   2.415
 4896TIP3   OH214628   3.806   2.518   0.420
 4896TIP3    H114629   3.804   2.486   0.330
 4896TIP3    H214630   3.760   2.602   0.417
 4897TIP3   OH214631   3.624   6.268   2.524
 4897TIP3    H114632   3.669   6.198   2.477
 4897TIP3    H214633   3.654   6.260   2.615
 4898TIP3   OH214634   1.744   3.761   3.108
 4898TIP3    H114635   1.687   3.709   3.165
 4898TIP3    H214636   1.791   3.819   3.168
 4899TIP3   OH214637   7.174   5.528   5.010
 4899TIP3    H114638   7.116   5.555   5.081
 4899TIP3    H214639   7.217   5.609   4.982
 4900TIP3   OH214640   8.066   0.790   5.599
 4900TIP3    H114641   8.034   0.700   5.603
 4900TIP3    H214642   8.055   0.823   5.689
 4901TIP3   OH214643   7.498   5.589   6.757
 4901TIP3    H114644   7.422   5.606   6.701
 4901TIP3    H214645   7.569   5.638   6.716
 4902TIP3   OH214646   2.610   6.783   6.176
 4902TIP3    H114647   2.531   6.836   6.173
 4902TIP3    H214648   2.630   6.775   6.269
 4903TIP3   OH214649   6.207   0.657   5.326
 4903TIP3    H114650   6.226   0.567   5.299
 4903TIP3    H214651   6.144   0.689   5.261
 4904TIP3   OH214652   7.136   5.457   0.685
 4904TIP3    H114653   7.059   5.436   0.632
 4904TIP3    H214654   7.210   5.454   0.623
 4905TIP3   OH214655   2.421   3.104   5.714
 4905TIP3    H114656   2.392   3.020   5.751
 4905TIP3    H214657   2.343   3.159   5.716
 4906TIP3   OH214658   7.360   6.703   0.238
 4906TIP3    H114659   7.337   6.667   0.153
 4906TIP3    H214660   7.277   6.718   0.282
 4907TIP3   OH214661   4.616   3.053   3.646
 4907TIP3    H114662   4.590   3.144   3.660
 4907TIP3    H214663   4.675   3.034   3.719
 4908TIP3   OH214664   6.212   2.294   4.708
 4908TIP3    H114665   6.282   2.295   4.643
 4908TIP3    H214666   6.132   2.309   4.658
 4909TIP3   OH214667   3.727   5.386   6.586
 4909TIP3    H114668   3.697   5.326   6.518
 4909TIP3    H214669   3.651   5.440   6.607
 4910TIP3   OH214670   2.019   6.831   4.629
 4910TIP3    H114671   2.013   6.764   4.562
 4910TIP3    H214672   1.931   6.838   4.665
 4911TIP3   OH214673   3.550   3.455   6.792
 4911TIP3    H114674   3.643   3.472   6.776
 4911TIP3    H214675   3.515   3.540   6.818
 4912TIP3   OH214676   7.863   1.079   1.357
 4912TIP3    H114677   7.803   1.114   1.423
 4912TIP3    H214678   7.809   1.070   1.278
 4913TIP3   OH214679   6.673   2.153   3.058
 4913TIP3    H114680   6.624   2.079   3.093
 4913TIP3    H214681   6.764   2.130   3.072
 4914TIP3   OH214682   6.026   4.391   6.750
 4914TIP3    H114683   5.998   4.449   6.679
 4914TIP3    H214684   6.041   4.450   6.824
 4915TIP3   OH214685   0.851   5.435   1.083
 4915TIP3    H114686   0.830   5.496   1.012
 4915TIP3    H214687   0.812   5.474   1.160
 4916TIP3   OH214688   6.104   3.091   2.614
 4916TIP3    H114689   6.040   3.141   2.665
 4916TIP3    H214690   6.052   3.036   2.556
 4917TIP3   OH214691   1.949   6.674   3.680
 4917TIP3    H114692   1.924   6.589   3.716
 4917TIP3    H214693   2.026   6.655   3.626
 4918TIP3   OH214694   1.332   6.024   2.676
 4918TIP3    H114695   1.339   5.930   2.661
 4918TIP3    H214696   1.421   6.058   2.665
 4919TIP3   OH214697   3.548   0.676   5.240
 4919TIP3    H114698   3.526   0.765   5.266
 4919TIP3    H214699   3.626   0.685   5.185
 4920TIP3   OH214700   0.680   3.876   5.585
 4920TIP3    H114701   0.745   3.862   5.516
 4920TIP3    H214702   0.602   3.829   5.555
 4921TIP3   OH214703   5.684   4.171   5.028
 4921TIP3    H114704   5.643   4.231   4.965
 4921TIP3    H214705   5.631   4.092   5.022
 4922TIP3   OH214706   2.720   2.721   2.685
 4922TIP3    H114707   2.743   2.807   2.721
 4922TIP3    H214708   2.635   2.734   2.644
 4923TIP3   OH214709   4.716   6.973   1.461
 4923TIP3    H114710   4.783   6.987   1.527
 4923TIP3    H214711   4.730   6.883   1.431
 4924TIP3   OH214712   5.668   7.863   1.414
 4924TIP3    H114713   5.584   7.821   1.395
 4924TIP3    H214714   5.647   7.934   1.474
 4925TIP3   OH214715   5.020   0.489   5.396
 4925TIP3    H114716   5.098   0.493   5.339
 4925TIP3    H214717   4.952   0.452   5.340
 4926TIP3   OH214718   3.062   7.428   2.660
 4926TIP3    H114719   3.005   7.373   2.714
 4926TIP3    H214720   3.144   7.378   2.655
 4927TIP3   OH214721   7.633   0.201   0.226
 4927TIP3    H114722   7.644   0.241   0.313
 4927TIP3    H214723   7.690   0.125   0.227
 4928TIP3   OH214724   1.833   6.841   2.644
 4928TIP3    H114725   1.834   6.828   2.738
 4928TIP3    H214726   1.896   6.912   2.628
 4929TIP3   OH214727   0.130   3.027   1.842
 4929TIP3    H114728   0.112   3.119   1.822
 4929TIP3    H214729   0.168   3.030   1.930
 4930TIP3   OH214730   6.544   2.065   6.759
 4930TIP3    H114731   6.624   2.035   6.801
 4930TIP3    H214732   6.509   2.131   6.818
 4931TIP3   OH214733   4.700   3.537   6.661
 4931TIP3    H114734   4.793   3.522   6.645
 4931TIP3    H214735   4.698   3.607   6.727
 4932TIP3   OH214736   5.684   7.711   3.534
 4932TIP3    H114737   5.643   7.790   3.501
 4932TIP3    H214738   5.770   7.739   3.565
 4933TIP3   OH214739   4.776   1.326   0.312
 4933TIP3    H114740   4.843   1.360   0.372
 4933TIP3    H214741   4.823   1.263   0.257
 4934TIP3   OH214742   4.778   4.643   2.365
 4934TIP3    H114743   4.707   4.600   2.316
 4934TIP3    H214744   4.759   4.622   2.457
 4935TIP3   OH214745   3.838   2.749   6.589
 4935TIP3    H114746   3.912   2.783   6.538
 4935TIP3    H214747   3.864   2.759   6.680
 4936TIP3   OH214748   1.306   3.947   3.352
 4936TIP3    H114749   1.363   3.998   3.294
 4936TIP3    H214750   1.234   3.918   3.295
 4937TIP3   OH214751   0.088   3.346   0.209
 4937TIP3    H114752   0.054   3.432   0.236
 4937TIP3    H214753   0.132   3.313   0.287
 4938TIP3   OH214754   4.749   1.607   1.147
 4938TIP3    H114755   4.794   1.589   1.229
 4938TIP3    H214756   4.785   1.542   1.086
 4939TIP3   OH214757   3.799   1.930   3.961
 4939TIP3    H114758   3.729   1.961   4.019
 4939TIP3    H214759   3.879   1.966   3.999
 4940TIP3   OH214760   7.656   1.792   3.838
 4940TIP3    H114761   7.656   1.858   3.769
 4940TIP3    H214762   7.731   1.736   3.818
 4941TIP3   OH214763   7.911   1.596   3.393
 4941TIP3    H114764   7.842   1.533   3.412
 4941TIP3    H214765   7.874   1.681   3.415
 4942TIP3   OH214766   0.716   0.321   0.204
 4942TIP3    H114767   0.703   0.252   0.139
 4942TIP3    H214768   0.773   0.282   0.270
 4943TIP3   OH214769   2.344   4.542   5.707
 4943TIP3    H114770   2.301   4.622   5.677
 4943TIP3    H214771   2.360   4.558   5.801
 4944TIP3   OH214772   7.401   6.231   2.834
 4944TIP3    H114773   7.412   6.205   2.926
 4944TIP3    H214774   7.318   6.191   2.808
 4945TIP3   OH214775   0.889   4.483   6.236
 4945TIP3    H114776   0.796   4.496   6.218
 4945TIP3    H214777   0.899   4.388   6.242
 4946TIP3   OH214778   8.362   6.546   1.748
 4946TIP3    H114779   8.422   6.471   1.746
 4946TIP3    H214780   8.376   6.591   1.665
 4947TIP3   OH214781   2.906   3.870   2.502
 4947TIP3    H114782   2.899   3.850   2.409
 4947TIP3    H214783   2.984   3.823   2.531
 4948TIP3   OH214784   7.261   3.221   4.683
 4948TIP3    H114785   7.195   3.291   4.686
 4948TIP3    H214786   7.332   3.257   4.629
 4949TIP3   OH214787   5.145   1.034   1.000
 4949TIP3    H114788   5.098   1.114   0.978
 4949TIP3    H214789   5.131   1.023   1.094
 4950TIP3   OH214790   7.450   2.696   3.271
 4950TIP3    H114791   7.360   2.727   3.260
 4950TIP3    H214792   7.473   2.659   3.186
 4951TIP3   OH214793   6.054   6.158   0.316
 4951TIP3    H114794   6.024   6.223   0.380
 4951TIP3    H214795   6.054   6.205   0.233
 4952TIP3   OH214796   0.933   3.530   3.615
 4952TIP3    H114797   0.990   3.458   3.586
 4952TIP3    H214798   0.869   3.539   3.544
 4953TIP3   OH214799   7.080   0.894   6.836
 4953TIP3    H114800   7.030   0.976   6.833
 4953TIP3    H214801   7.121   0.888   6.750
 4954TIP3   OH214802   6.005   4.545   3.035
 4954TIP3    H114803   6.026   4.504   2.951
 4954TIP3    H214804   6.087   4.585   3.063
 4955TIP3   OH214805   1.511   1.793   4.949
 4955TIP3    H114806   1.575   1.729   4.980
 4955TIP3    H214807   1.499   1.853   5.023
 4956TIP3   OH214808   0.818   6.192   2.250
 4956TIP3    H114809   0.795   6.099   2.245
 4956TIP3    H214810   0.807   6.215   2.342
 4957TIP3   OH214811   0.252   5.727   1.996
 4957TIP3    H114812   0.241   5.780   2.074
 4957TIP3    H214813   0.164   5.697   1.973
 4958TIP3   OH214814   8.169   7.844   2.786
 4958TIP3    H114815   8.122   7.904   2.844
 4958TIP3    H214816   8.111   7.830   2.712
 4959TIP3   OH214817   7.654   0.451   1.460
 4959TIP3    H114818   7.558   0.446   1.456
 4959TIP3    H214819   7.681   0.453   1.368
 4960TIP3   OH214820   4.924   4.931   3.166
 4960TIP3    H114821   4.863   4.982   3.221
 4960TIP3    H214822   4.919   4.973   3.080
 4961TIP3   OH214823   6.867   3.024   1.652
 4961TIP3    H114824   6.792   2.999   1.705
 4961TIP3    H214825   6.846   2.995   1.564
 4962TIP3   OH214826   7.178   7.859   2.157
 4962TIP3    H114827   7.095   7.816   2.136
 4962TIP3    H214828   7.208   7.898   2.075
 4963TIP3   OH214829   5.944   3.768   4.100
 4963TIP3    H114830   6.022   3.718   4.120
 4963TIP3    H214831   5.963   3.809   4.015
 4964TIP3   OH214832   8.019   3.527   4.483
 4964TIP3    H114833   8.068   3.540   4.402
 4964TIP3    H214834   8.056   3.591   4.544
 4965TIP3   OH214835   2.906   6.272   6.521
 4965TIP3    H114836   2.929   6.206   6.586
 4965TIP3    H214837   2.919   6.355   6.565
 4966TIP3   OH214838   6.476   0.983   3.047
 4966TIP3    H114839   6.480   1.036   3.127
 4966TIP3    H214840   6.501   0.895   3.076
 4967TIP3   OH214841   1.662   2.956   1.480
 4967TIP3    H114842   1.728   3.010   1.524
 4967TIP3    H214843   1.608   2.922   1.552
 4968TIP3   OH214844   2.737   1.094   6.434
 4968TIP3    H114845   2.751   1.110   6.527
 4968TIP3    H214846   2.658   1.039   6.431
 4969TIP3   OH214847   7.103   1.047   2.480
 4969TIP3    H114848   7.190   1.056   2.517
 4969TIP3    H214849   7.073   1.137   2.466
 4970TIP3   OH214850   5.865   7.477   1.482
 4970TIP3    H114851   5.907   7.558   1.453
 4970TIP3    H214852   5.832   7.437   1.401
 4971TIP3   OH214853   6.164   2.398   5.201
 4971TIP3    H114854   6.128   2.361   5.120
 4971TIP3    H214855   6.189   2.322   5.253
 4972TIP3   OH214856   7.877   3.740   1.179
 4972TIP3    H114857   7.887   3.729   1.273
 4972TIP3    H214858   7.908   3.657   1.142
 4973TIP3   OH214859   4.222   3.042   3.406
 4973TIP3    H114860   4.247   3.031   3.497
 4973TIP3    H214861   4.170   3.123   3.404
 4974TIP3   OH214862   2.193   6.764   1.958
 4974TIP3    H114863   2.133   6.773   2.032
 4974TIP3    H214864   2.188   6.671   1.934
 4975TIP3   OH214865   1.670   3.064   3.002
 4975TIP3    H114866   1.684   2.984   2.951
 4975TIP3    H214867   1.735   3.126   2.967
 4976TIP3   OH214868   7.010   0.469   0.725
 4976TIP3    H114869   6.984   0.484   0.634
 4976TIP3    H214870   6.927   0.462   0.772
 4977TIP3   OH214871   4.868   3.713   4.837
 4977TIP3    H114872   4.835   3.799   4.813
 4977TIP3    H214873   4.885   3.670   4.753
 4978TIP3   OH214874   8.386   3.454   5.777
 4978TIP3    H114875   8.382   3.498   5.862
 4978TIP3    H214876   8.303   3.407   5.770
 4979TIP3   OH214877   6.309   7.349   3.024
 4979TIP3    H114878   6.327   7.279   3.087
 4979TIP3    H214879   6.353   7.426   3.062
 4980TIP3   OH214880   7.535   4.958   5.758
 4980TIP3    H114881   7.562   5.029   5.815
 4980TIP3    H214882   7.445   4.979   5.733
 4981TIP3   OH214883   2.747   6.391   4.361
 4981TIP3    H114884   2.668   6.338   4.365
 4981TIP3    H214885   2.750   6.437   4.445
 4982TIP3   OH214886   3.969   1.775   0.726
 4982TIP3    H114887   3.888   1.768   0.675
 4982TIP3    H214888   3.992   1.684   0.746
 4983TIP3   OH214889   5.036   7.111   6.379
 4983TIP3    H114890   5.025   7.157   6.296
 4983TIP3    H214891   5.004   7.173   6.445
 4984TIP3   OH214892   7.165   0.851   6.335
 4984TIP3    H114893   7.198   0.812   6.254
 4984TIP3    H214894   7.070   0.857   6.321
 4985TIP3   OH214895   8.334   3.342   0.592
 4985TIP3    H114896   8.316   3.374   0.680
 4985TIP3    H214897   8.336   3.247   0.601
 4986TIP3   OH214898   5.068   5.252   4.856
 4986TIP3    H114899   5.104   5.248   4.768
 4986TIP3    H214900   4.974   5.259   4.844
 4987TIP3   OH214901   1.908   2.876   4.007
 4987TIP3    H114902   1.892   2.881   4.101
 4987TIP3    H214903   1.833   2.921   3.967
 4988TIP3   OH214904   1.621   0.249   0.970
 4988TIP3    H114905   1.714   0.237   0.988
 4988TIP3    H214906   1.592   0.312   1.037
 4989TIP3   OH214907   7.065   0.462   2.329
 4989TIP3    H114908   7.069   0.368   2.343
 4989TIP3    H214909   7.081   0.500   2.416
 4990TIP3   OH214910   3.380   1.667   1.063
 4990TIP3    H114911   3.378   1.760   1.039
 4990TIP3    H214912   3.457   1.659   1.120
 4991TIP3   OH214913   1.496   7.404   3.561
 4991TIP3    H114914   1.585   7.433   3.582
 4991TIP3    H214915   1.508   7.322   3.513
 4992TIP3   OH214916   5.565   6.700   0.299
 4992TIP3    H114917   5.623   6.624   0.291
 4992TIP3    H214918   5.571   6.744   0.214
 4993TIP3   OH214919   4.423   3.524   4.834
 4993TIP3    H114920   4.418   3.431   4.855
 4993TIP3    H214921   4.340   3.544   4.790
 4994TIP3   OH214922   6.766   7.001   0.805
 4994TIP3    H114923   6.828   7.045   0.746
 4994TIP3    H214924   6.703   6.958   0.746
 4995TIP3   OH214925   2.151   3.175   2.399
 4995TIP3    H114926   2.163   3.246   2.462
 4995TIP3    H214927   2.240   3.147   2.378
 4996TIP3   OH214928   4.086   0.717   4.168
 4996TIP3    H114929   4.018   0.666   4.212
 4996TIP3    H214930   4.167   0.692   4.211
 4997TIP3   OH214931   7.901   5.622   0.742
 4997TIP3    H114932   7.914   5.686   0.811
 4997TIP3    H214933   7.806   5.620   0.728
 4998TIP3   OH214934   8.138   7.857   5.202
 4998TIP3    H114935   8.046   7.831   5.197
 4998TIP3    H214936   8.141   7.920   5.274
 4999TIP3   OH214937   2.948   2.344   3.743
 4999TIP3    H114938   2.980   2.429   3.772
 4999TIP3    H214939   2.982   2.335   3.654
 5000TIP3   OH214940   8.360   6.389   6.163
 5000TIP3    H114941   8.398   6.301   6.161
 5000TIP3    H214942   8.286   6.384   6.102
 5001TIP3   OH214943   8.263   6.172   5.016
 5001TIP3    H114944   8.173   6.204   5.020
 5001TIP3    H214945   8.304   6.221   4.945
 5002TIP3   OH214946   6.395   5.168   4.703
 5002TIP3    H114947   6.328   5.236   4.695
 5002TIP3    H214948   6.445   5.194   4.780
 5003TIP3   OH214949   7.806   7.705   2.315
 5003TIP3    H114950   7.895   7.683   2.344
 5003TIP3    H214951   7.809   7.799   2.296
 5004TIP3   OH214952   3.063   5.754   3.638
 5004TIP3    H114953   3.150   5.794   3.641
 5004TIP3    H214954   3.013   5.801   3.706
 5005TIP3   OH214955   7.858   7.813   0.530
 5005TIP3    H114956   7.782   7.762   0.499
 5005TIP3    H214957   7.878   7.872   0.458
 5006TIP3   OH214958   7.739   1.957   0.833
 5006TIP3    H114959   7.666   1.908   0.871
 5006TIP3    H214960   7.704   1.993   0.752
 5007TIP3   OH214961   5.572   2.082   3.467
 5007TIP3    H114962   5.490   2.098   3.421
 5007TIP3    H214963   5.629   2.043   3.401
 5008TIP3   OH214964   2.214   3.768   2.811
 5008TIP3    H114965   2.118   3.766   2.813
 5008TIP3    H214966   2.235   3.858   2.786
 5009TIP3   OH214967   8.059   6.818   0.282
 5009TIP3    H114968   8.138   6.765   0.293
 5009TIP3    H214969   8.030   6.838   0.371
 5010TIP3   OH214970   7.066   3.754   2.996
 5010TIP3    H114971   7.048   3.698   3.071
 5010TIP3    H214972   6.981   3.788   2.970
 5011TIP3   OH214973   2.082   1.074   2.702
 5011TIP3    H114974   2.063   1.055   2.610
 5011TIP3    H214975   1.997   1.064   2.746
 5012TIP3   OH214976   8.316   5.946   6.168
 5012TIP3    H114977   8.373   6.002   6.221
 5012TIP3    H214978   8.363   5.864   6.159
 5013TIP3   OH214979   1.393   3.012   6.663
 5013TIP3    H114980   1.353   3.038   6.747
 5013TIP3    H214981   1.319   2.988   6.608
 5014TIP3   OH214982   0.481   5.458   1.476
 5014TIP3    H114983   0.396   5.456   1.432
 5014TIP3    H214984   0.467   5.411   1.558
 5015TIP3   OH214985   2.163   4.953   5.413
 5015TIP3    H114986   2.174   5.014   5.486
 5015TIP3    H214987   2.106   4.999   5.351
 5016TIP3   OH214988   0.083   3.544   6.592
 5016TIP3    H114989   0.124   3.491   6.524
 5016TIP3    H214990   0.122   3.512   6.674
 5017TIP3   OH214991   4.469   1.185   6.493
 5017TIP3    H114992   4.532   1.124   6.455
 5017TIP3    H214993   4.446   1.243   6.421
 5018TIP3   OH214994   6.676   2.811   5.320
 5018TIP3    H114995   6.627   2.819   5.238
 5018TIP3    H214996   6.685   2.716   5.333
 5019TIP3   OH214997   4.707   7.648   2.822
 5019TIP3    H114998   4.618   7.648   2.857
 5019TIP3    H214999   4.763   7.629   2.897
 5020TIP3   OH215000   4.084   1.648   1.693
 5020TIP3    H115001   4.037   1.570   1.722
 5020TIP3    H215002   4.051   1.664   1.604
 5021TIP3   OH215003   7.973   1.208   4.164
 5021TIP3    H115004   7.936   1.128   4.127
 5021TIP3    H215005   8.042   1.178   4.223
 5022TIP3   OH215006   4.478   2.239   2.571
 5022TIP3    H115007   4.436   2.324   2.576
 5022TIP3    H215008   4.419   2.185   2.519
 5023TIP3   OH215009   2.232   3.131   3.326
 5023TIP3    H115010   2.317   3.172   3.309
 5023TIP3    H215011   2.194   3.118   3.240
 5024TIP3   OH215012   6.336   5.033   1.357
 5024TIP3    H115013   6.366   4.972   1.425
 5024TIP3    H215014   6.290   4.978   1.294
 5025TIP3   OH215015   5.789   7.712   2.532
 5025TIP3    H115016   5.877   7.707   2.569
 5025TIP3    H215017   5.734   7.740   2.605
 5026TIP3   OH215018   6.446   3.886   3.556
 5026TIP3    H115019   6.492   3.833   3.622
 5026TIP3    H215020   6.414   3.961   3.605
 5027TIP3   OH215021   5.025   6.684   0.062
 5027TIP3    H115022   5.069   6.768   0.047
 5027TIP3    H215023   5.064   6.625  -0.001
 5028TIP3   OH215024   7.420   3.904   4.021
 5028TIP3    H115025   7.366   3.915   4.100
 5028TIP3    H215026   7.470   3.824   4.038
 5029TIP3   OH215027   4.363   6.333   5.269
 5029TIP3    H115028   4.441   6.388   5.263
 5029TIP3    H215029   4.361   6.304   5.360
 5030TIP3   OH215030   3.166   3.828   0.550
 5030TIP3    H115031   3.092   3.851   0.606
 5030TIP3    H215032   3.215   3.762   0.599
 5031TIP3   OH215033   2.361   5.974   5.430
 5031TIP3    H115034   2.270   5.982   5.459
 5031TIP3    H215035   2.405   5.930   5.504
 5032TIP3   OH215036   3.053   6.283   5.299
 5032TIP3    H115037   3.115   6.351   5.274
 5032TIP3    H215038   3.026   6.306   5.388
 5033TIP3   OH215039   8.334   3.211   2.440
 5033TIP3    H115040   8.247   3.170   2.443
 5033TIP3    H215041   8.382   3.160   2.375
 5034TIP3   OH215042   4.579   0.349   1.483
 5034TIP3    H115043   4.556   0.408   1.410
 5034TIP3    H215044   4.636   0.401   1.539
 5035TIP3   OH215045   1.625   3.851   0.876
 5035TIP3    H115046   1.621   3.757   0.858
 5035TIP3    H215047   1.534   3.877   0.884
 5036TIP3   OH215048   0.066   4.875   5.073
 5036TIP3    H115049   0.063   4.879   4.977
 5036TIP3    H215050  -0.002   4.935   5.102
 5037TIP3   OH215051   3.717   4.259   6.807
 5037TIP3    H115052   3.668   4.198   6.863
 5037TIP3    H215053   3.661   4.273   6.731
 5038TIP3   OH215054   8.125   3.679   1.535
 5038TIP3    H115055   8.155   3.607   1.480
 5038TIP3    H215056   8.157   3.656   1.623
 5039TIP3   OH215057   0.425   1.953   3.365
 5039TIP3    H115058   0.364   1.880   3.379
 5039TIP3    H215059   0.373   2.031   3.384
 5040TIP3   OH215060   0.279   1.950   5.179
 5040TIP3    H115061   0.362   1.903   5.182
 5040TIP3    H215062   0.293   2.022   5.117
 5041TIP3   OH215063   8.068   1.423   0.952
 5041TIP3    H115064   8.132   1.494   0.966
 5041TIP3    H215065   7.992   1.467   0.913
 5042TIP3   OH215066   3.583   0.150   2.051
 5042TIP3    H115067   3.527   0.107   1.986
 5042TIP3    H215068   3.592   0.087   2.122
 5043TIP3   OH215069   8.221   3.081   6.039
 5043TIP3    H115070   8.250   2.994   6.010
 5043TIP3    H215071   8.202   3.070   6.132
 5044TIP3   OH215072   2.263   3.928   0.597
 5044TIP3    H115073   2.269   3.983   0.520
 5044TIP3    H215074   2.183   3.877   0.585
 5045TIP3   OH215075   0.159   2.970   6.229
 5045TIP3    H115076   0.176   2.976   6.135
 5045TIP3    H215077   0.195   2.885   6.254
 5046TIP3   OH215078   6.245   6.703   2.903
 5046TIP3    H115079   6.176   6.748   2.853
 5046TIP3    H215080   6.312   6.683   2.837
 5047TIP3   OH215081   2.108   1.825   1.714
 5047TIP3    H115082   2.016   1.850   1.703
 5047TIP3    H215083   2.151   1.853   1.633
 5048TIP3   OH215084   6.734   5.913   3.824
 5048TIP3    H115085   6.653   5.868   3.798
 5048TIP3    H215086   6.713   6.006   3.815
 5049TIP3   OH215087   2.629   2.642   3.121
 5049TIP3    H115088   2.567   2.639   3.049
 5049TIP3    H215089   2.706   2.594   3.089
 5050TIP3   OH215090   5.828   6.758   5.233
 5050TIP3    H115091   5.835   6.663   5.227
 5050TIP3    H215092   5.796   6.775   5.321
 5051TIP3   OH215093   1.385   3.405   3.071
 5051TIP3    H115094   1.456   3.458   3.036
 5051TIP3    H215095   1.392   3.321   3.024
 5052TIP3   OH215096   1.106   7.449   5.617
 5052TIP3    H115097   1.090   7.508   5.690
 5052TIP3    H215098   1.096   7.504   5.539
 5053TIP3   OH215099   5.008   5.532   1.052
 5053TIP3    H115100   5.102   5.545   1.039
 5053TIP3    H215101   4.985   5.593   1.122
 5054TIP3   OH215102   6.004   1.251   1.058
 5054TIP3    H115103   5.912   1.273   1.072
 5054TIP3    H215104   6.027   1.194   1.131
 5055TIP3   OH215105   2.707   0.136   4.653
 5055TIP3    H115106   2.613   0.143   4.637
 5055TIP3    H215107   2.716   0.057   4.707
 5056TIP3   OH215108   8.161   7.728   2.428
 5056TIP3    H115109   8.118   7.683   2.501
 5056TIP3    H215110   8.177   7.659   2.364
 5057TIP3   OH215111   0.066   2.262   0.951
 5057TIP3    H115112   0.136   2.323   0.926
 5057TIP3    H215113   0.032   2.298   1.033
 5058TIP3   OH215114   4.665   1.469   5.182
 5058TIP3    H115115   4.738   1.415   5.211
 5058TIP3    H215116   4.586   1.419   5.206
 5059TIP3   OH215117   7.219   7.777   5.293
 5059TIP3    H115118   7.163   7.853   5.307
 5059TIP3    H215119   7.209   7.757   5.200
 5060TIP3   OH215120   1.883   1.836   1.530
 5060TIP3    H115121   1.865   1.927   1.507
 5060TIP3    H215122   1.859   1.786   1.452
 5061TIP3   OH215123   2.727   3.863   0.524
 5061TIP3    H115124   2.760   3.854   0.435
 5061TIP3    H215125   2.760   3.786   0.570
 5062TIP3   OH215126   2.647   4.362   6.824
 5062TIP3    H115127   2.682   4.365   6.735
 5062TIP3    H215128   2.638   4.453   6.850
 5063TIP3   OH215129   3.746   6.746   2.493
 5063TIP3    H115130   3.838   6.757   2.469
 5063TIP3    H215131   3.746   6.740   2.588
 5064TIP3   OH215132   4.993   0.780   2.610
 5064TIP3    H115133   5.008   0.775   2.704
 5064TIP3    H215134   5.080   0.766   2.571
 5065TIP3   OH215135   6.634   2.755   2.774
 5065TIP3    H115136   6.561   2.723   2.827
 5065TIP3    H215137   6.685   2.677   2.754
 5066TIP3   OH215138   0.905   0.537   6.366
 5066TIP3    H115139   0.906   0.517   6.460
 5066TIP3    H215140   0.971   0.479   6.328
 5067TIP3   OH215141   5.099   2.052   0.439
 5067TIP3    H115142   5.054   2.120   0.389
 5067TIP3    H215143   5.116   1.982   0.376
 5068TIP3   OH215144   7.473   5.162   0.636
 5068TIP3    H115145   7.428   5.243   0.659
 5068TIP3    H215146   7.566   5.184   0.640
 5069TIP3   OH215147   4.412   2.177   0.800
 5069TIP3    H115148   4.344   2.159   0.735
 5069TIP3    H215149   4.482   2.115   0.780
 5070TIP3   OH215150   5.062   5.304   1.595
 5070TIP3    H115151   4.981   5.299   1.544
 5070TIP3    H215152   5.130   5.277   1.534
 5071TIP3   OH215153   5.303   1.619   3.194
 5071TIP3    H115154   5.270   1.531   3.180
 5071TIP3    H215155   5.286   1.665   3.111
 5072TIP3   OH215156   6.952   4.605   6.826
 5072TIP3    H115157   6.996   4.686   6.850
 5072TIP3    H215158   6.898   4.628   6.750
 5073TIP3   OH215159   3.140   7.861   3.171
 5073TIP3    H115160   3.074   7.849   3.239
 5073TIP3    H215161   3.137   7.780   3.120
 5074TIP3   OH215162   5.643   4.642   5.503
 5074TIP3    H115163   5.731   4.640   5.541
 5074TIP3    H215164   5.597   4.710   5.553
 5075TIP3   OH215165   3.251   2.869   2.364
 5075TIP3    H115166   3.327   2.898   2.414
 5075TIP3    H215167   3.197   2.948   2.356
 5076TIP3   OH215168   5.845   5.346   6.504
 5076TIP3    H115169   5.862   5.338   6.598
 5076TIP3    H215170   5.750   5.355   6.498
 5077TIP3   OH215171   2.492   2.901   0.686
 5077TIP3    H115172   2.575   2.873   0.646
 5077TIP3    H215173   2.430   2.903   0.612
 5078TIP3   OH215174   8.067   0.654   2.930
 5078TIP3    H115175   8.157   0.641   2.959
 5078TIP3    H215176   8.074   0.668   2.835
 5079TIP3   OH215177   4.751   3.085   1.285
 5079TIP3    H115178   4.683   3.132   1.237
 5079TIP3    H215179   4.723   3.090   1.377
 5080TIP3   OH215180   0.406   6.879   0.048
 5080TIP3    H115181   0.450   6.801   0.014
 5080TIP3    H215182   0.349   6.846   0.118
 5081TIP3   OH215183   5.163   2.810   4.373
 5081TIP3    H115184   5.165   2.725   4.328
 5081TIP3    H215185   5.132   2.789   4.461
 5082TIP3   OH215186   5.211   6.785   5.222
 5082TIP3    H115187   5.249   6.833   5.148
 5082TIP3    H215188   5.287   6.753   5.271
 5083TIP3   OH215189   1.454   5.493   3.248
 5083TIP3    H115190   1.380   5.525   3.196
 5083TIP3    H215191   1.485   5.571   3.295
 5084TIP3   OH215192   3.915   5.288   5.475
 5084TIP3    H115193   3.929   5.224   5.405
 5084TIP3    H215194   3.958   5.368   5.443
 5085TIP3   OH215195   2.131   0.976   4.255
 5085TIP3    H115196   2.184   0.896   4.264
 5085TIP3    H215197   2.194   1.047   4.260
 5086TIP3   OH215198   4.475   3.672   2.497
 5086TIP3    H115199   4.543   3.605   2.507
 5086TIP3    H215200   4.415   3.657   2.570
 5087TIP3   OH215201   4.115   2.515   6.536
 5087TIP3    H115202   4.184   2.448   6.543
 5087TIP3    H215203   4.127   2.569   6.614
 5088TIP3   OH215204   2.679   3.767   2.221
 5088TIP3    H115205   2.664   3.855   2.256
 5088TIP3    H215206   2.773   3.761   2.209
 5089TIP3   OH215207   5.134   1.740   0.572
 5089TIP3    H115208   5.051   1.782   0.597
 5089TIP3    H215209   5.150   1.770   0.483
 5090TIP3   OH215210   5.766   6.516   1.321
 5090TIP3    H115211   5.830   6.538   1.389
 5090TIP3    H215212   5.689   6.486   1.370
 5091TIP3   OH215213   7.330   7.409   0.108
 5091TIP3    H115214   7.356   7.351   0.036
 5091TIP3    H215215   7.413   7.441   0.145
 5092TIP3   OH215216   6.934   5.896   5.105
 5092TIP3    H115217   6.839   5.896   5.115
 5092TIP3    H215218   6.964   5.831   5.168
 5093TIP3   OH215219   0.332   1.778   6.107
 5093TIP3    H115220   0.255   1.753   6.056
 5093TIP3    H215221   0.405   1.735   6.062
 5094TIP3   OH215222   1.128   1.145   4.847
 5094TIP3    H115223   1.106   1.159   4.939
 5094TIP3    H215224   1.110   1.053   4.832
 5095TIP3   OH215225   4.338   1.023   6.053
 5095TIP3    H115226   4.333   0.941   6.004
 5095TIP3    H215227   4.300   1.003   6.138
 5096TIP3   OH215228   2.059   3.931   6.669
 5096TIP3    H115229   2.048   3.892   6.756
 5096TIP3    H215230   2.153   3.943   6.660
 5097TIP3   OH215231   7.560   1.580   2.808
 5097TIP3    H115232   7.485   1.633   2.838
 5097TIP3    H215233   7.635   1.638   2.819
 5098TIP3   OH215234   5.992   1.729   0.660
 5098TIP3    H115235   5.970   1.675   0.736
 5098TIP3    H215236   5.980   1.672   0.585
 5099TIP3   OH215237   5.965   3.573   5.673
 5099TIP3    H115238   5.936   3.600   5.760
 5099TIP3    H215239   5.925   3.487   5.659
 5100TIP3   OH215240   0.778   3.225   0.217
 5100TIP3    H115241   0.829   3.242   0.296
 5100TIP3    H215242   0.743   3.311   0.192
 5101TIP3   OH215243   7.865   3.303   6.185
 5101TIP3    H115244   7.899   3.389   6.211
 5101TIP3    H215245   7.826   3.267   6.264
 5102TIP3   OH215246   4.596   2.856   1.521
 5102TIP3    H115247   4.690   2.842   1.532
 5102TIP3    H215248   4.570   2.790   1.456
 5103TIP3   OH215249   3.897   1.877   0.960
 5103TIP3    H115250   3.914   1.837   0.875
 5103TIP3    H215251   3.882   1.969   0.940
 5104TIP3   OH215252   0.747   0.852   3.542
 5104TIP3    H115253   0.701   0.779   3.503
 5104TIP3    H215254   0.680   0.920   3.553
 5105TIP3   OH215255   1.590   7.836   2.868
 5105TIP3    H115256   1.527   7.890   2.821
 5105TIP3    H215257   1.574   7.747   2.837
 5106TIP3   OH215258   5.402   3.153   3.901
 5106TIP3    H115259   5.316   3.176   3.866
 5106TIP3    H215260   5.437   3.236   3.935
 5107TIP3   OH215261   6.357   0.558   1.384
 5107TIP3    H115262   6.321   0.641   1.416
 5107TIP3    H215263   6.315   0.491   1.437
 5108TIP3   OH215264   4.587   4.750   6.345
 5108TIP3    H115265   4.597   4.781   6.255
 5108TIP3    H215266   4.518   4.805   6.382
 5109TIP3   OH215267   6.384   4.510   0.556
 5109TIP3    H115268   6.478   4.526   0.565
 5109TIP3    H215269   6.368   4.430   0.606
 5110TIP3   OH215270   5.570   2.662   3.958
 5110TIP3    H115271   5.560   2.747   4.000
 5110TIP3    H215272   5.481   2.636   3.935
 5111TIP3   OH215273   2.070   7.074   1.944
 5111TIP3    H115274   2.121   7.153   1.925
 5111TIP3    H215275   2.087   7.016   1.869
 5112TIP3   OH215276   5.849   2.035   3.818
 5112TIP3    H115277   5.849   2.129   3.799
 5112TIP3    H215278   5.866   2.030   3.912
 5113TIP3   OH215279   2.816   5.811   5.053
 5113TIP3    H115280   2.737   5.858   5.079
 5113TIP3    H215281   2.877   5.823   5.127
 5114TIP3   OH215282   2.852   4.833   2.708
 5114TIP3    H115283   2.912   4.845   2.781
 5114TIP3    H215284   2.908   4.826   2.631
 5115TIP3   OH215285   1.355   2.870   1.355
 5115TIP3    H115286   1.267   2.836   1.368
 5115TIP3    H215287   1.370   2.866   1.261
 5116TIP3   OH215288   0.476   3.257   1.569
 5116TIP3    H115289   0.439   3.328   1.622
 5116TIP3    H215290   0.483   3.184   1.630
 5117TIP3   OH215291   1.107   4.040   6.672
 5117TIP3    H115292   1.155   4.021   6.753
 5117TIP3    H215293   1.107   3.957   6.625
 5118TIP3   OH215294   8.155   0.028   6.350
 5118TIP3    H115295   8.145  -0.021   6.431
 5118TIP3    H215296   8.245   0.011   6.322
 5119TIP3   OH215297   2.795   7.169   0.970
 5119TIP3    H115298   2.832   7.244   1.016
 5119TIP3    H215299   2.714   7.149   1.018
 5120TIP3   OH215300   3.092   7.659   5.472
 5120TIP3    H115301   3.113   7.596   5.541
 5120TIP3    H215302   3.051   7.732   5.519
 5121TIP3   OH215303   0.819   7.211   4.385
 5121TIP3    H115304   0.820   7.149   4.312
 5121TIP3    H215305   0.865   7.288   4.352
 5122TIP3   OH215306   1.236   1.493   6.244
 5122TIP3    H115307   1.282   1.414   6.273
 5122TIP3    H215308   1.208   1.535   6.325
 5123TIP3   OH215309   0.596   1.519   6.601
 5123TIP3    H115310   0.642   1.602   6.587
 5123TIP3    H215311   0.549   1.503   6.519
 5124TIP3   OH215312   6.685   6.075   6.233
 5124TIP3    H115313   6.724   6.100   6.317
 5124TIP3    H215314   6.755   6.030   6.186
 5125TIP3   OH215315   3.039   2.457   0.631
 5125TIP3    H115316   3.116   2.434   0.683
 5125TIP3    H215317   2.970   2.399   0.661
 5126TIP3   OH215318   6.528   4.050   2.057
 5126TIP3    H115319   6.514   3.987   2.128
 5126TIP3    H215320   6.466   4.023   1.989
 5127TIP3   OH215321   1.028   3.105   1.734
 5127TIP3    H115322   1.029   3.152   1.650
 5127TIP3    H215323   0.974   3.159   1.791
 5128TIP3   OH215324   4.438   6.982   2.562
 5128TIP3    H115325   4.348   7.005   2.542
 5128TIP3    H215326   4.491   7.033   2.501
 5129TIP3   OH215327   6.322   4.856   2.937
 5129TIP3    H115328   6.336   4.763   2.919
 5129TIP3    H215329   6.380   4.901   2.876
 5130TIP3   OH215330   3.522   3.785   3.798
 5130TIP3    H115331   3.601   3.831   3.825
 5130TIP3    H215332   3.553   3.701   3.765
 5131TIP3   OH215333   1.332   4.357   5.257
 5131TIP3    H115334   1.375   4.436   5.224
 5131TIP3    H215335   1.393   4.287   5.238
 5132TIP3   OH215336   3.113   2.854   1.832
 5132TIP3    H115337   3.041   2.804   1.792
 5132TIP3    H215338   3.085   2.869   1.922
 5133TIP3   OH215339   1.860   7.145   6.606
 5133TIP3    H115340   1.893   7.230   6.575
 5133TIP3    H215341   1.926   7.082   6.576
 5134TIP3   OH215342   2.012   1.994   5.765
 5134TIP3    H115343   1.973   2.080   5.749
 5134TIP3    H215344   2.015   1.987   5.861
 5135TIP3   OH215345   3.001   5.863   1.283
 5135TIP3    H115346   2.919   5.819   1.306
 5135TIP3    H215347   2.974   5.953   1.261
 5136TIP3   OH215348   8.313   1.614   1.757
 5136TIP3    H115349   8.284   1.651   1.674
 5136TIP3    H215350   8.406   1.594   1.744
 5137TIP3   OH215351   5.810   2.475   1.124
 5137TIP3    H115352   5.895   2.483   1.166
 5137TIP3    H215353   5.756   2.542   1.165
 5138TIP3   OH215354   2.016   6.352   0.095
 5138TIP3    H115355   2.066   6.400   0.161
 5138TIP3    H215356   1.934   6.400   0.088
 5139TIP3   OH215357   6.686   1.450   6.157
 5139TIP3    H115358   6.669   1.356   6.155
 5139TIP3    H215359   6.690   1.472   6.250
 5140TIP3   OH215360   2.989   3.198   1.350
 5140TIP3    H115361   2.900   3.188   1.383
 5140TIP3    H215362   3.030   3.260   1.410
 5141TIP3   OH215363   1.074   1.044   2.343
 5141TIP3    H115364   1.129   0.978   2.385
 5141TIP3    H215365   1.130   1.120   2.333
 5142TIP3   OH215366   0.613   4.756   5.290
 5142TIP3    H115367   0.551   4.828   5.277
 5142TIP3    H215368   0.669   4.785   5.362
 5143TIP3   OH215369   0.083   1.843   2.156
 5143TIP3    H115370   0.017   1.810   2.095
 5143TIP3    H215371   0.146   1.771   2.163
 5144TIP3   OH215372   0.218   3.310   4.906
 5144TIP3    H115373   0.260   3.319   4.991
 5144TIP3    H215374   0.223   3.398   4.867
 5145TIP3   OH215375   0.474   3.576   5.916
 5145TIP3    H115376   0.518   3.600   5.997
 5145TIP3    H215377   0.500   3.485   5.900
 5146TIP3   OH215378   3.345   0.552   4.603
 5146TIP3    H115379   3.343   0.487   4.533
 5146TIP3    H215380   3.429   0.595   4.592
 5147TIP3   OH215381   8.002   1.734   5.056
 5147TIP3    H115382   7.929   1.772   5.106
 5147TIP3    H215383   7.960   1.672   4.996
 5148TIP3   OH215384   4.970   6.203   0.522
 5148TIP3    H115385   4.914   6.135   0.559
 5148TIP3    H215386   5.026   6.230   0.595
 5149TIP3   OH215387   1.211   2.285   2.182
 5149TIP3    H115388   1.197   2.195   2.212
 5149TIP3    H215389   1.242   2.275   2.092
 5150TIP3   OH215390   5.691   4.606   0.666
 5150TIP3    H115391   5.664   4.595   0.757
 5150TIP3    H215392   5.787   4.610   0.670
 5151TIP3   OH215393   4.238   5.767   6.128
 5151TIP3    H115394   4.215   5.827   6.199
 5151TIP3    H215395   4.154   5.731   6.100
 5152TIP3   OH215396   0.386   6.471   6.158
 5152TIP3    H115397   0.354   6.407   6.221
 5152TIP3    H215398   0.309   6.496   6.109
 5153TIP3   OH215399   4.934   5.084   3.513
 5153TIP3    H115400   4.905   5.174   3.528
 5153TIP3    H215401   5.023   5.093   3.479
 5154TIP3   OH215402   2.058   7.400   4.663
 5154TIP3    H115403   2.065   7.482   4.712
 5154TIP3    H215404   2.070   7.426   4.572
 5155TIP3   OH215405   2.259   0.437   4.952
 5155TIP3    H115406   2.247   0.458   5.045
 5155TIP3    H215407   2.354   0.441   4.939
 5156TIP3   OH215408   3.606   7.446   3.024
 5156TIP3    H115409   3.559   7.519   3.065
 5156TIP3    H215410   3.653   7.405   3.096
 5157TIP3   OH215411   7.050   7.766   0.563
 5157TIP3    H115412   7.005   7.849   0.580
 5157TIP3    H215413   7.055   7.724   0.649
 5158TIP3   OH215414   1.097   4.884   0.174
 5158TIP3    H115415   1.002   4.875   0.182
 5158TIP3    H215416   1.122   4.817   0.110
 5159TIP3   OH215417   3.383   0.008   5.495
 5159TIP3    H115418   3.475  -0.016   5.486
 5159TIP3    H215419   3.385   0.103   5.509
 5160TIP3   OH215420   3.838   3.308   0.888
 5160TIP3    H115421   3.791   3.290   0.969
 5160TIP3    H215422   3.780   3.367   0.839
 5161TIP3   OH215423   6.393   1.434   2.554
 5161TIP3    H115424   6.394   1.510   2.497
 5161TIP3    H215425   6.362   1.468   2.638
 5162TIP3   OH215426   4.830   0.461   5.208
 5162TIP3    H115427   4.792   0.513   5.138
 5162TIP3    H215428   4.817   0.370   5.180
 5163TIP3   OH215429   2.446   5.801   2.583
 5163TIP3    H115430   2.507   5.800   2.656
 5163TIP3    H215431   2.360   5.811   2.623
 5164TIP3   OH215432   0.374   2.657   4.501
 5164TIP3    H115433   0.442   2.655   4.568
 5164TIP3    H215434   0.323   2.735   4.520
 5165TIP3   OH215435   7.047   0.663   5.685
 5165TIP3    H115436   7.095   0.721   5.745
 5165TIP3    H215437   7.019   0.721   5.614
 5166TIP3   OH215438   1.149   0.588   1.791
 5166TIP3    H115439   1.084   0.523   1.815
 5166TIP3    H215440   1.223   0.571   1.850
 5167TIP3   OH215441   7.355   7.648   6.430
 5167TIP3    H115442   7.400   7.565   6.446
 5167TIP3    H215443   7.346   7.688   6.516
 5168TIP3   OH215444   6.872   4.279   4.391
 5168TIP3    H115445   6.861   4.280   4.296
 5168TIP3    H215446   6.825   4.356   4.423
 5169TIP3   OH215447   2.226   7.155   0.759
 5169TIP3    H115448   2.156   7.184   0.818
 5169TIP3    H215449   2.272   7.235   0.736
 5170TIP3   OH215450   7.181   3.641   6.355
 5170TIP3    H115451   7.107   3.589   6.385
 5170TIP3    H215452   7.253   3.615   6.413
 5171TIP3   OH215453   6.296   1.723   4.408
 5171TIP3    H115454   6.298   1.628   4.409
 5171TIP3    H215455   6.305   1.747   4.501
 5172TIP3   OH215456   0.873   3.097   4.642
 5172TIP3    H115457   0.805   3.039   4.678
 5172TIP3    H215458   0.879   3.168   4.705
 5173TIP3   OH215459   2.322   6.849   1.514
 5173TIP3    H115460   2.270   6.856   1.434
 5173TIP3    H215461   2.349   6.758   1.518
 5174TIP3   OH215462   3.081   6.797   4.564
 5174TIP3    H115463   3.136   6.856   4.512
 5174TIP3    H215464   2.995   6.839   4.564
 5175TIP3   OH215465   1.575   1.246   5.833
 5175TIP3    H115466   1.587   1.269   5.741
 5175TIP3    H215467   1.496   1.294   5.860
 5176TIP3   OH215468   7.968   3.443   4.817
 5176TIP3    H115469   8.025   3.431   4.893
 5176TIP3    H215470   7.880   3.422   4.849
 5177TIP3   OH215471   6.483   2.460   6.702
 5177TIP3    H115472   6.395   2.480   6.672
 5177TIP3    H215473   6.477   2.465   6.798
 5178TIP3   OH215474   0.936   1.156   0.756
 5178TIP3    H115475   0.948   1.108   0.674
 5178TIP3    H215476   1.012   1.213   0.763
 5179TIP3   OH215477   5.908   2.692   0.891
 5179TIP3    H115478   5.839   2.744   0.851
 5179TIP3    H215479   5.912   2.724   0.982
 5180TIP3   OH215480   7.407   2.604   4.781
 5180TIP3    H115481   7.358   2.604   4.699
 5180TIP3    H215482   7.417   2.512   4.803
 5181TIP3   OH215483   2.372   2.828   0.460
 5181TIP3    H115484   2.281   2.821   0.488
 5181TIP3    H215485   2.366   2.848   0.366
 5182TIP3   OH215486   4.000   3.726   6.808
 5182TIP3    H115487   4.013   3.709   6.715
 5182TIP3    H215488   3.983   3.820   6.813
 5183TIP3   OH215489   2.346   2.939   5.416
 5183TIP3    H115490   2.254   2.964   5.428
 5183TIP3    H215491   2.346   2.844   5.429
 5184TIP3   OH215492   5.388   1.059   3.889
 5184TIP3    H115493   5.351   1.032   3.804
 5184TIP3    H215494   5.350   0.997   3.952
 5185TIP3   OH215495   6.473   3.928   1.678
 5185TIP3    H115496   6.470   4.017   1.641
 5185TIP3    H215497   6.417   3.933   1.756
 5186TIP3   OH215498   0.379   7.384   2.377
 5186TIP3    H115499   0.467   7.364   2.345
 5186TIP3    H215500   0.321   7.368   2.302
 5187TIP3   OH215501   6.973   7.373   2.589
 5187TIP3    H115502   6.895   7.373   2.534
 5187TIP3    H215503   7.045   7.356   2.528
 5188TIP3   OH215504   4.963   0.731   5.518
 5188TIP3    H115505   5.040   0.757   5.468
 5188TIP3    H215506   4.914   0.673   5.460
 5189TIP3   OH215507   4.678   5.368   1.360
 5189TIP3    H115508   4.688   5.460   1.337
 5189TIP3    H215509   4.601   5.339   1.311
 5190TIP3   OH215510   7.290   2.206   1.736
 5190TIP3    H115511   7.195   2.200   1.731
 5190TIP3    H215512   7.322   2.162   1.657
 5191TIP3   OH215513   3.147   0.579   6.264
 5191TIP3    H115514   3.090   0.624   6.327
 5191TIP3    H215515   3.102   0.590   6.179
 5192TIP3   OH215516   5.994   4.954   6.562
 5192TIP3    H115517   5.899   4.960   6.546
 5192TIP3    H215518   6.002   4.883   6.626
 5193TIP3   OH215519   8.324   6.654   4.834
 5193TIP3    H115520   8.401   6.609   4.798
 5193TIP3    H215521   8.304   6.722   4.770
 5194TIP3   OH215522   2.689   4.097   6.018
 5194TIP3    H115523   2.697   4.083   6.112
 5194TIP3    H215524   2.691   4.009   5.980
 5195TIP3   OH215525   0.253   5.397   1.345
 5195TIP3    H115526   0.279   5.336   1.276
 5195TIP3    H215527   0.163   5.373   1.366
 5196TIP3   OH215528   8.316   1.274   0.818
 5196TIP3    H115529   8.335   1.263   0.911
 5196TIP3    H215530   8.235   1.325   0.816
 5197TIP3   OH215531   3.138   3.206   0.789
 5197TIP3    H115532   3.201   3.153   0.741
 5197TIP3    H215533   3.095   3.259   0.722
 5198TIP3   OH215534   3.745   5.855   2.187
 5198TIP3    H115535   3.758   5.766   2.221
 5198TIP3    H215536   3.832   5.881   2.155
 5199TIP3   OH215537   1.036   0.065   1.954
 5199TIP3    H115538   1.067   0.023   1.873
 5199TIP3    H215539   0.994  -0.007   2.002
 5200TIP3   OH215540   3.511   3.837   2.462
 5200TIP3    H115541   3.562   3.904   2.507
 5200TIP3    H215542   3.433   3.826   2.516
 5201TIP3   OH215543   7.087   1.542   4.542
 5201TIP3    H115544   6.998   1.547   4.577
 5201TIP3    H215545   7.083   1.593   4.461
 5202TIP3   OH215546   6.374   3.075   5.132
 5202TIP3    H115547   6.383   3.110   5.220
 5202TIP3    H215548   6.390   2.981   5.141
 5203TIP3   OH215549   3.857   6.840   5.641
 5203TIP3    H115550   3.903   6.919   5.610
 5203TIP3    H215551   3.925   6.774   5.648
 5204TIP3   OH215552   2.863   4.234   2.501
 5204TIP3    H115553   2.797   4.295   2.468
 5204TIP3    H215554   2.823   4.195   2.579
 5205TIP3   OH215555   6.608   2.681   0.014
 5205TIP3    H115556   6.641   2.711   0.099
 5205TIP3    H215557   6.617   2.586   0.017
 5206TIP3   OH215558   0.327   4.586   6.425
 5206TIP3    H115559   0.251   4.537   6.457
 5206TIP3    H215560   0.289   4.658   6.375
 5207TIP3   OH215561   3.421   4.356   6.311
 5207TIP3    H115562   3.491   4.380   6.250
 5207TIP3    H215563   3.418   4.260   6.305
 5208TIP3   OH215564   7.222   4.298   5.061
 5208TIP3    H115565   7.202   4.342   5.143
 5208TIP3    H215566   7.166   4.341   4.996
 5209TIP3   OH215567   4.211   1.124   0.179
 5209TIP3    H115568   4.159   1.173   0.243
 5209TIP3    H215569   4.295   1.170   0.177
 5210TIP3   OH215570   2.151   1.825   2.404
 5210TIP3    H115571   2.079   1.887   2.394
 5210TIP3    H215572   2.161   1.787   2.317
 5211TIP3   OH215573   8.018   5.451   4.053
 5211TIP3    H115574   8.059   5.395   4.118
 5211TIP3    H215575   8.075   5.445   3.976
 5212TIP3   OH215576   4.186   1.004   4.256
 5212TIP3    H115577   4.105   1.000   4.205
 5212TIP3    H215578   4.162   1.047   4.338
 5213TIP3   OH215579   5.465   6.486   5.385
 5213TIP3    H115580   5.463   6.581   5.385
 5213TIP3    H215581   5.436   6.460   5.472
 5214TIP3   OH215582   6.498   0.692   5.648
 5214TIP3    H115583   6.489   0.654   5.736
 5214TIP3    H215584   6.528   0.782   5.665
 5215TIP3   OH215585   2.121   7.868   0.127
 5215TIP3    H115586   2.035   7.839   0.096
 5215TIP3    H215587   2.120   7.849   0.221
 5216TIP3   OH215588   5.384   0.899   3.266
 5216TIP3    H115589   5.387   0.986   3.305
 5216TIP3    H215590   5.341   0.912   3.181
 5217TIP3   OH215591   4.547   6.814   6.059
 5217TIP3    H115592   4.553   6.843   5.968
 5217TIP3    H215593   4.552   6.719   6.055
 5218TIP3   OH215594   4.414   5.042   3.394
 5218TIP3    H115595   4.423   4.996   3.310
 5218TIP3    H215596   4.500   5.033   3.435
 5219TIP3   OH215597   2.869   2.768   3.979
 5219TIP3    H115598   2.786   2.729   4.009
 5219TIP3    H215599   2.867   2.857   4.013
 5220TIP3   OH215600   4.862   7.195   5.577
 5220TIP3    H115601   4.793   7.210   5.642
 5220TIP3    H215602   4.821   7.215   5.493
 5221TIP3   OH215603   5.031   1.829   6.638
 5221TIP3    H115604   4.953   1.831   6.693
 5221TIP3    H215605   5.097   1.784   6.692
 5222TIP3   OH215606   3.733   7.730   0.548
 5222TIP3    H115607   3.722   7.825   0.555
 5222TIP3    H215608   3.828   7.717   0.553
 5223TIP3   OH215609   7.241   3.967   1.902
 5223TIP3    H115610   7.197   4.027   1.962
 5223TIP3    H215611   7.295   4.023   1.847
 5224TIP3   OH215612   8.345   1.286   6.377
 5224TIP3    H115613   8.390   1.368   6.354
 5224TIP3    H215614   8.396   1.218   6.333
 5225TIP3   OH215615   7.069   7.051   3.341
 5225TIP3    H115616   6.989   7.016   3.380
 5225TIP3    H215617   7.139   6.996   3.376
 5226TIP3   OH215618   4.896   2.679   2.133
 5226TIP3    H115619   4.867   2.588   2.125
 5226TIP3    H215620   4.958   2.678   2.206
 5227TIP3   OH215621   4.638   7.592   1.831
 5227TIP3    H115622   4.673   7.621   1.915
 5227TIP3    H215623   4.609   7.673   1.788
 5228TIP3   OH215624   5.858   3.312   6.033
 5228TIP3    H115625   5.853   3.407   6.029
 5228TIP3    H215626   5.934   3.290   5.979
 5229TIP3   OH215627   2.976   4.470   4.825
 5229TIP3    H115628   3.065   4.504   4.826
 5229TIP3    H215629   2.978   4.394   4.883
 5230TIP3   OH215630   5.945   0.986   4.471
 5230TIP3    H115631   5.921   1.066   4.516
 5230TIP3    H215632   6.041   0.982   4.478
 5231TIP3   OH215633   7.902   7.435   1.367
 5231TIP3    H115634   7.943   7.403   1.447
 5231TIP3    H215635   7.973   7.479   1.320
 5232TIP3   OH215636   3.769   5.680   0.439
 5232TIP3    H115637   3.804   5.763   0.473
 5232TIP3    H215638   3.746   5.630   0.517
 5233TIP3   OH215639   6.432   2.689   4.795
 5233TIP3    H115640   6.357   2.697   4.737
 5233TIP3    H215641   6.417   2.609   4.845
 5234TIP3   OH215642   4.158   4.047   0.436
 5234TIP3    H115643   4.251   4.031   0.453
 5234TIP3    H215644   4.135   4.119   0.495
 5235TIP3   OH215645   4.004   1.653   6.390
 5235TIP3    H115646   4.092   1.689   6.401
 5235TIP3    H215647   3.948   1.714   6.438
 5236TIP3   OH215648   2.062   7.717   1.669
 5236TIP3    H115649   2.068   7.626   1.639
 5236TIP3    H215650   2.139   7.729   1.725
 5237TIP3   OH215651   4.500   1.333   1.732
 5237TIP3    H115652   4.501   1.346   1.637
 5237TIP3    H215653   4.410   1.309   1.752
 5238TIP3   OH215654   1.474   2.960   0.780
 5238TIP3    H115655   1.469   3.055   0.769
 5238TIP3    H215656   1.462   2.946   0.875
 5239TIP3   OH215657   7.520   0.936   1.371
 5239TIP3    H115658   7.516   0.923   1.466
 5239TIP3    H215659   7.432   0.965   1.347
 5240TIP3   OH215660   2.339   5.019   4.537
 5240TIP3    H115661   2.415   5.064   4.572
 5240TIP3    H215662   2.305   5.079   4.470
 5241TIP3   OH215663   4.864   0.472   3.585
 5241TIP3    H115664   4.802   0.400   3.571
 5241TIP3    H215665   4.922   0.468   3.509
 5242TIP3   OH215666   3.274   1.851   4.386
 5242TIP3    H115667   3.228   1.767   4.380
 5242TIP3    H215668   3.301   1.857   4.478
 5243TIP3   OH215669   4.981   4.916   0.643
 5243TIP3    H115670   5.064   4.916   0.595
 5243TIP3    H215671   4.955   4.823   0.645
 5244TIP3   OH215672   6.696   7.439   4.340
 5244TIP3    H115673   6.719   7.487   4.419
 5244TIP3    H215674   6.642   7.367   4.371
 5245TIP3   OH215675   5.689   1.665   6.818
 5245TIP3    H115676   5.669   1.626   6.903
 5245TIP3    H215677   5.714   1.755   6.839
 5246TIP3   OH215678   1.479   7.691   4.575
 5246TIP3    H115679   1.564   7.649   4.564
 5246TIP3    H215680   1.418   7.618   4.587
 5247TIP3   OH215681   3.481   6.427   3.392
 5247TIP3    H115682   3.515   6.338   3.387
 5247TIP3    H215683   3.444   6.434   3.480
 5248TIP3   OH215684   3.204   6.270   2.864
 5248TIP3    H115685   3.161   6.351   2.892
 5248TIP3    H215686   3.213   6.279   2.769
 5249TIP3   OH215687   6.679   1.863   0.466
 5249TIP3    H115688   6.653   1.912   0.388
 5249TIP3    H215689   6.732   1.791   0.433
 5250TIP3   OH215690   4.171   7.572   3.667
 5250TIP3    H115691   4.264   7.551   3.663
 5250TIP3    H215692   4.152   7.582   3.760
 5251TIP3   OH215693   7.979   0.665   3.200
 5251TIP3    H115694   8.053   0.640   3.255
 5251TIP3    H215695   8.004   0.639   3.112
 5252TIP3   OH215696   8.192   0.417   0.666
 5252TIP3    H115697   8.283   0.426   0.638
 5252TIP3    H215698   8.164   0.507   0.686
 5253TIP3   OH215699   2.432   3.840   4.208
 5253TIP3    H115700   2.501   3.845   4.142
 5253TIP3    H215701   2.465   3.892   4.281
 5254TIP3   OH215702   5.936   2.224   6.835
 5254TIP3    H115703   5.980   2.190   6.913
 5254TIP3    H215704   5.998   2.207   6.764
 5255TIP3   OH215705   2.855   0.165   0.061
 5255TIP3    H115706   2.839   0.250   0.102
 5255TIP3    H215707   2.771   0.119   0.066
 5256TIP3   OH215708   4.806   3.121   0.157
 5256TIP3    H115709   4.860   3.199   0.172
 5256TIP3    H215710   4.719   3.145   0.190
 5257TIP3   OH215711  -0.034   1.659   0.351
 5257TIP3    H115712   0.008   1.576   0.376
 5257TIP3    H215713   0.036   1.708   0.308
 5258TIP3   OH215714   2.887   6.012   6.395
 5258TIP3    H115715   2.866   5.963   6.316
 5258TIP3    H215716   2.839   6.094   6.386
 5259TIP3   OH215717   7.875   6.329   6.424
 5259TIP3    H115718   7.831   6.299   6.345
 5259TIP3    H215719   7.954   6.373   6.392
 5260TIP3   OH215720   1.998   4.765   4.870
 5260TIP3    H115721   1.995   4.838   4.809
 5260TIP3    H215722   2.038   4.802   4.949
 5261TIP3   OH215723   3.842   0.890   0.519
 5261TIP3    H115724   3.818   0.983   0.512
 5261TIP3    H215725   3.884   0.869   0.435
 5262TIP3   OH215726   5.463   4.954   5.861
 5262TIP3    H115727   5.454   4.953   5.956
 5262TIP3    H215728   5.549   4.992   5.845
 5263TIP3   OH215729   3.323   2.127   1.259
 5263TIP3    H115730   3.299   2.141   1.167
 5263TIP3    H215731   3.410   2.087   1.255
 5264TIP3   OH215732   6.879   6.741   4.844
 5264TIP3    H115733   6.819   6.806   4.808
 5264TIP3    H215734   6.966   6.776   4.825
 5265TIP3   OH215735   5.525   6.161   3.607
 5265TIP3    H115736   5.463   6.164   3.534
 5265TIP3    H215737   5.581   6.086   3.588
 5266TIP3   OH215738   4.413   1.213   1.067
 5266TIP3    H115739   4.396   1.121   1.087
 5266TIP3    H215740   4.369   1.227   0.983
 5267TIP3   OH215741   1.357   4.780   0.642
 5267TIP3    H115742   1.305   4.787   0.562
 5267TIP3    H215743   1.426   4.718   0.620
 5268TIP3   OH215744   0.958   2.776   2.250
 5268TIP3    H115745   1.011   2.854   2.233
 5268TIP3    H215746   1.010   2.704   2.214
 5269TIP3   OH215747   6.772   7.636   5.164
 5269TIP3    H115748   6.741   7.561   5.113
 5269TIP3    H215749   6.797   7.600   5.249
 5270TIP3   OH215750   7.867   5.844   5.236
 5270TIP3    H115751   7.850   5.932   5.203
 5270TIP3    H215752   7.928   5.857   5.309
 5271TIP3   OH215753   1.085   6.253   1.659
 5271TIP3    H115754   1.060   6.161   1.652
 5271TIP3    H215755   1.104   6.267   1.752
 5272TIP3   OH215756   6.177   5.834   1.680
 5272TIP3    H115757   6.107   5.891   1.648
 5272TIP3    H215758   6.240   5.894   1.719
 5273TIP3   OH215759   7.811   2.651   4.600
 5273TIP3    H115760   7.896   2.648   4.556
 5273TIP3    H215761   7.780   2.741   4.585
 5274TIP3   OH215762   3.392   5.553   3.180
 5274TIP3    H115763   3.403   5.636   3.226
 5274TIP3    H215764   3.465   5.550   3.119
 5275TIP3   OH215765   1.432   1.298   1.678
 5275TIP3    H115766   1.508   1.349   1.706
 5275TIP3    H215767   1.469   1.216   1.646
 5276TIP3   OH215768   2.796   4.521   4.634
 5276TIP3    H115769   2.863   4.492   4.696
 5276TIP3    H215770   2.757   4.599   4.675
 5277TIP3   OH215771   5.122   2.535   4.642
 5277TIP3    H115772   5.153   2.454   4.601
 5277TIP3    H215773   5.037   2.511   4.679
 5278TIP3   OH215774   8.081   1.957   2.768
 5278TIP3    H115775   8.105   1.938   2.678
 5278TIP3    H215776   8.023   2.033   2.762
 5279TIP3   OH215777   5.845   3.989   0.951
 5279TIP3    H115778   5.862   3.921   1.017
 5279TIP3    H215779   5.798   4.057   0.998
 5280TIP3   OH215780   6.676   5.244   0.031
 5280TIP3    H115781   6.612   5.184  -0.007
 5280TIP3    H215782   6.642   5.331   0.012
 5281TIP3   OH215783   8.151   6.113   6.549
 5281TIP3    H115784   8.117   6.106   6.461
 5281TIP3    H215785   8.246   6.124   6.537
 5282TIP3   OH215786   5.540   5.225   3.052
 5282TIP3    H115787   5.568   5.143   3.091
 5282TIP3    H215788   5.613   5.250   2.994
 5283TIP3   OH215789   7.139   4.322   0.762
 5283TIP3    H115790   7.215   4.322   0.821
 5283TIP3    H215791   7.065   4.341   0.818
 5284TIP3   OH215792   2.215   7.885   3.235
 5284TIP3    H115793   2.283   7.901   3.300
 5284TIP3    H215794   2.221   7.791   3.216
 5285TIP3   OH215795   6.693   2.105   3.721
 5285TIP3    H115796   6.652   2.096   3.634
 5285TIP3    H215797   6.691   2.016   3.757
 5286TIP3   OH215798   1.917   4.255   2.360
 5286TIP3    H115799   1.944   4.173   2.316
 5286TIP3    H215800   1.851   4.292   2.302
 5287TIP3   OH215801   7.827   4.366   3.786
 5287TIP3    H115802   7.831   4.293   3.847
 5287TIP3    H215803   7.813   4.443   3.842
 5288TIP3   OH215804   6.147   2.651   1.874
 5288TIP3    H115805   6.141   2.692   1.788
 5288TIP3    H215806   6.202   2.710   1.925
 5289TIP3   OH215807   7.280   2.918   5.186
 5289TIP3    H115808   7.374   2.912   5.203
 5289TIP3    H215809   7.246   2.966   5.261
 5290TIP3   OH215810   4.502   1.339   5.455
 5290TIP3    H115811   4.462   1.358   5.371
 5290TIP3    H215812   4.516   1.425   5.495
 5291TIP3   OH215813   0.583   1.664   5.024
 5291TIP3    H115814   0.535   1.585   5.001
 5291TIP3    H215815   0.650   1.634   5.086
 5292TIP3   OH215816   7.082   7.506   1.466
 5292TIP3    H115817   7.140   7.519   1.541
 5292TIP3    H215818   7.006   7.460   1.502
 5293TIP3   OH215819   8.214   2.933   1.276
 5293TIP3    H115820   8.237   2.844   1.305
 5293TIP3    H215821   8.221   2.929   1.180
 5294TIP3   OH215822   1.822   0.324   2.367
 5294TIP3    H115823   1.740   0.329   2.416
 5294TIP3    H215824   1.813   0.247   2.312
 5295TIP3   OH215825   7.110   7.351   5.899
 5295TIP3    H115826   7.074   7.345   5.810
 5295TIP3    H215827   7.084   7.268   5.941
 5296TIP3   OH215828   2.382   3.892   1.195
 5296TIP3    H115829   2.312   3.957   1.201
 5296TIP3    H215830   2.449   3.924   1.255
 5297TIP3   OH215831   5.047   1.053   6.511
 5297TIP3    H115832   4.992   1.003   6.451
 5297TIP3    H215833   5.086   0.987   6.569
 5298TIP3   OH215834   3.409   1.007   4.698
 5298TIP3    H115835   3.399   0.929   4.751
 5298TIP3    H215836   3.463   1.066   4.751
 5299TIP3   OH215837   3.007   3.337   4.746
 5299TIP3    H115838   2.958   3.404   4.794
 5299TIP3    H215839   2.940   3.276   4.715
 5300TIP3   OH215840   4.031   7.123   1.030
 5300TIP3    H115841   4.003   7.213   1.045
 5300TIP3    H215842   4.098   7.131   0.962
 5301TIP3   OH215843   2.950   6.505   4.178
 5301TIP3    H115844   3.034   6.530   4.217
 5301TIP3    H215845   2.899   6.469   4.250
 5302TIP3   OH215846   5.679   2.579   2.940
 5302TIP3    H115847   5.765   2.588   2.898
 5302TIP3    H215848   5.699   2.542   3.026
 5303TIP3   OH215849   0.604   5.750   3.548
 5303TIP3    H115850   0.623   5.778   3.637
 5303TIP3    H215851   0.543   5.677   3.559
 5304TIP3   OH215852   2.587   6.180   5.667
 5304TIP3    H115853   2.585   6.140   5.754
 5304TIP3    H215854   2.498   6.211   5.653
 5305TIP3   OH215855   7.032   6.355   3.131
 5305TIP3    H115856   7.037   6.302   3.210
 5305TIP3    H215857   7.086   6.432   3.150
 5306TIP3   OH215858   2.735   6.577   4.049
 5306TIP3    H115859   2.816   6.573   4.099
 5306TIP3    H215860   2.756   6.631   3.973
 5307TIP3   OH215861   6.667   0.465   1.303
 5307TIP3    H115862   6.745   0.477   1.357
 5307TIP3    H215863   6.645   0.553   1.272
 5308TIP3   OH215864   5.185   7.630   0.725
 5308TIP3    H115865   5.275   7.598   0.734
 5308TIP3    H215866   5.194   7.715   0.683
 5309TIP3   OH215867   5.585   2.057   2.232
 5309TIP3    H115868   5.640   2.101   2.167
 5309TIP3    H215869   5.647   2.012   2.290
 5310TIP3   OH215870   3.176   5.106   0.224
 5310TIP3    H115871   3.091   5.094   0.183
 5310TIP3    H215872   3.180   5.200   0.244
 5311TIP3   OH215873   5.603   1.068   0.073
 5311TIP3    H115874   5.663   1.126   0.120
 5311TIP3    H215875   5.539   1.126   0.033
 5312TIP3   OH215876   4.978   4.419   1.497
 5312TIP3    H115877   5.018   4.469   1.425
 5312TIP3    H215878   4.921   4.356   1.453
 5313TIP3   OH215879   5.367   0.393   0.740
 5313TIP3    H115880   5.301   0.327   0.720
 5313TIP3    H215881   5.449   0.357   0.707
 5314TIP3   OH215882   2.958   4.398   6.402
 5314TIP3    H115883   3.001   4.316   6.425
 5314TIP3    H215884   3.007   4.432   6.328
 5315TIP3   OH215885   0.089   2.888   0.121
 5315TIP3    H115886   0.115   2.947   0.050
 5315TIP3    H215887   0.042   2.944   0.183
 5316TIP3   OH215888   0.993   0.684   4.394
 5316TIP3    H115889   1.076   0.701   4.438
 5316TIP3    H215890   0.980   0.589   4.403
 5317TIP3   OH215891   6.357   3.124   2.602
 5317TIP3    H115892   6.265   3.101   2.600
 5317TIP3    H215893   6.374   3.166   2.518
 5318TIP3   OH215894   4.073   3.379   0.228
 5318TIP3    H115895   4.036   3.297   0.196
 5318TIP3    H215896   4.055   3.379   0.322
 5319TIP3   OH215897   0.819   6.736   0.719
 5319TIP3    H115898   0.839   6.643   0.735
 5319TIP3    H215899   0.889   6.784   0.763
 5320TIP3   OH215900   4.044   1.644   0.023
 5320TIP3    H115901   4.006   1.566   0.062
 5320TIP3    H215902   4.017   1.640  -0.069
 5321TIP3   OH215903   6.542   0.115   4.309
 5321TIP3    H115904   6.599   0.180   4.350
 5321TIP3    H215905   6.572   0.110   4.218
 5322TIP3   OH215906   7.941   1.260   3.482
 5322TIP3    H115907   8.032   1.287   3.475
 5322TIP3    H215908   7.926   1.251   3.576
 5323TIP3   OH215909   0.601   5.895   1.454
 5323TIP3    H115910   0.649   5.862   1.529
 5323TIP3    H215911   0.539   5.959   1.491
 5324TIP3   OH215912   2.791   1.483   0.128
 5324TIP3    H115913   2.803   1.570   0.090
 5324TIP3    H215914   2.879   1.456   0.155
 5325TIP3   OH215915   2.331   0.772   4.251
 5325TIP3    H115916   2.422   0.801   4.244
 5325TIP3    H215917   2.332   0.684   4.212
 5326TIP3   OH215918   6.846   2.053   0.231
 5326TIP3    H115919   6.924   2.099   0.263
 5326TIP3    H215920   6.869   1.960   0.236
 5327TIP3   OH215921   3.946   5.545   6.663
 5327TIP3    H115922   3.908   5.501   6.587
 5327TIP3    H215923   3.996   5.477   6.708
 5328TIP3   OH215924   0.492   1.155   4.297
 5328TIP3    H115925   0.564   1.177   4.356
 5328TIP3    H215926   0.448   1.082   4.339
 5329TIP3   OH215927   2.666   2.277   1.101
 5329TIP3    H115928   2.728   2.342   1.134
 5329TIP3    H215929   2.659   2.213   1.172
 5330TIP3   OH215930   5.763   0.138   6.064
 5330TIP3    H115931   5.825   0.195   6.108
 5330TIP3    H215932   5.713   0.097   6.135
 5331TIP3   OH215933   5.356   2.297   5.967
 5331TIP3    H115934   5.435   2.255   5.933
 5331TIP3    H215935   5.384   2.385   5.993
 5332TIP3   OH215936   1.888   5.123   5.634
 5332TIP3    H115937   1.956   5.142   5.699
 5332TIP3    H215938   1.808   5.157   5.673
 5333TIP3   OH215939   4.974   3.802   1.553
 5333TIP3    H115940   4.897   3.749   1.572
 5333TIP3    H215941   5.009   3.827   1.638
 5334TIP3   OH215942   7.266   2.418   0.614
 5334TIP3    H115943   7.241   2.511   0.610
 5334TIP3    H215944   7.244   2.384   0.527
 5335TIP3   OH215945   0.931   1.671   3.176
 5335TIP3    H115946   0.902   1.615   3.247
 5335TIP3    H215947   0.933   1.613   3.099
 5336TIP3   OH215948   1.582   5.943   4.979
 5336TIP3    H115949   1.575   5.884   5.053
 5336TIP3    H215950   1.492   5.971   4.961
 5337TIP3   OH215951   5.894   4.974   3.629
 5337TIP3    H115952   5.830   4.992   3.698
 5337TIP3    H215953   5.976   4.959   3.676
 5338TIP3   OH215954   0.563   3.180   3.887
 5338TIP3    H115955   0.591   3.242   3.954
 5338TIP3    H215956   0.641   3.126   3.870
 5339TIP3   OH215957   0.808   0.695   4.142
 5339TIP3    H115958   0.869   0.728   4.208
 5339TIP3    H215959   0.744   0.644   4.192
 5340TIP3   OH215960   7.997   3.064   3.018
 5340TIP3    H115961   7.934   3.031   2.954
 5340TIP3    H215962   8.053   3.123   2.968
 5341TIP3   OH215963   0.743   6.124   1.859
 5341TIP3    H115964   0.781   6.086   1.780
 5341TIP3    H215965   0.770   6.216   1.857
 5342TIP3   OH215966   6.040   5.911   2.262
 5342TIP3    H115967   6.114   5.971   2.252
 5342TIP3    H215968   6.066   5.855   2.335
 5343TIP3   OH215969   5.646  -0.031   2.357
 5343TIP3    H115970   5.683   0.057   2.346
 5343TIP3    H215971   5.560  -0.016   2.396
 5344TIP3   OH215972   1.556   6.161   4.727
 5344TIP3    H115973   1.630   6.119   4.683
 5344TIP3    H215974   1.596   6.214   4.796
 5345TIP3   OH215975   0.427   0.931   3.035
 5345TIP3    H115976   0.449   0.851   3.083
 5345TIP3    H215977   0.459   1.002   3.091
 5346TIP3   OH215978   5.700   7.417   0.556
 5346TIP3    H115979   5.693   7.495   0.501
 5346TIP3    H215980   5.693   7.344   0.495
 5347TIP3   OH215981   6.590   2.787   6.609
 5347TIP3    H115982   6.549   2.784   6.522
 5347TIP3    H215983   6.679   2.754   6.594
 5348TIP3   OH215984   4.753   3.954   0.634
 5348TIP3    H115985   4.795   4.034   0.601
 5348TIP3    H215986   4.711   3.915   0.557
 5349TIP3   OH215987   7.324   4.626   0.202
 5349TIP3    H115988   7.366   4.703   0.161
 5349TIP3    H215989   7.393   4.588   0.256
 5350TIP3   OH215990   2.192   0.488   4.621
 5350TIP3    H115991   2.263   0.498   4.685
 5350TIP3    H215992   2.140   0.568   4.632
 5351TIP3   OH215993   6.629   3.546   5.817
 5351TIP3    H115994   6.557   3.520   5.760
 5351TIP3    H215995   6.587   3.590   5.891
 5352TIP3   OH215996   5.983   6.160   1.830
 5352TIP3    H115997   5.889   6.158   1.849
 5352TIP3    H215998   5.994   6.096   1.759
 5353TIP3   OH215999   0.758   1.849   4.709
 5353TIP3    H116000   0.830   1.873   4.650
 5353TIP3    H216001   0.801   1.831   4.793
 5354TIP3   OH216002   7.917   1.841   4.688
 5354TIP3    H116003   7.886   1.755   4.660
 5354TIP3    H216004   7.862   1.863   4.763
 5355TIP3   OH216005   3.235   4.247   5.191
 5355TIP3    H116006   3.213   4.155   5.202
 5355TIP3    H216007   3.177   4.293   5.252
 5356TIP3   OH216008   3.308   3.657   0.681
 5356TIP3    H116009   3.281   3.566   0.692
 5356TIP3    H216010   3.344   3.682   0.766
 5357TIP3   OH216011   5.660   7.879   5.329
 5357TIP3    H116012   5.706   7.898   5.247
 5357TIP3    H216013   5.568   7.888   5.308
 5358TIP3   OH216014   3.792   4.061   1.679
 5358TIP3    H116015   3.749   4.108   1.607
 5358TIP3    H216016   3.729   4.065   1.750
 5359TIP3   OH216017   3.822   7.108   6.288
 5359TIP3    H116018   3.771   7.086   6.366
 5359TIP3    H216019   3.893   7.164   6.321
 5360TIP3   OH216020   3.820   4.716   2.206
 5360TIP3    H116021   3.854   4.629   2.187
 5360TIP3    H216022   3.812   4.719   2.301
 5361TIP3   OH216023   3.541   1.782   2.704
 5361TIP3    H116024   3.513   1.740   2.785
 5361TIP3    H216025   3.465   1.833   2.675
 5362TIP3   OH216026   3.856   5.083   4.371
 5362TIP3    H116027   3.863   5.114   4.461
 5362TIP3    H216028   3.847   4.988   4.378
 5363TIP3   OH216029   7.323   6.812   4.481
 5363TIP3    H116030   7.387   6.780   4.417
 5363TIP3    H216031   7.303   6.736   4.536
 5364TIP3   OH216032   1.196   0.363   3.944
 5364TIP3    H116033   1.114   0.402   3.974
 5364TIP3    H216034   1.218   0.411   3.865
 5365TIP3   OH216035   4.551   4.107   5.837
 5365TIP3    H116036   4.458   4.121   5.822
 5365TIP3    H216037   4.592   4.190   5.810
 5366TIP3   OH216038   5.637   3.940   1.605
 5366TIP3    H116039   5.717   3.889   1.594
 5366TIP3    H216040   5.648   4.015   1.546
 5367TIP3   OH216041   7.539   6.418   3.473
 5367TIP3    H116042   7.453   6.377   3.470
 5367TIP3    H216043   7.532   6.483   3.543
 5368TIP3   OH216044   6.569   4.507   3.608
 5368TIP3    H116045   6.610   4.431   3.649
 5368TIP3    H216046   6.478   4.480   3.593
 5369TIP3   OH216047   0.794   5.090   5.933
 5369TIP3    H116048   0.885   5.061   5.934
 5369TIP3    H216049   0.758   5.062   6.017
 5370TIP3   OH216050   3.321   5.520   2.818
 5370TIP3    H116051   3.308   5.475   2.734
 5370TIP3    H216052   3.386   5.467   2.863
 5371TIP3   OH216053   0.821   4.859   0.852
 5371TIP3    H116054   0.757   4.794   0.824
 5371TIP3    H216055   0.792   4.941   0.812
 5372TIP3   OH216056   7.864   4.144   2.137
 5372TIP3    H116057   7.862   4.053   2.167
 5372TIP3    H216058   7.944   4.181   2.174
 5373TIP3   OH216059   2.106   4.351   2.127
 5373TIP3    H116060   2.174   4.284   2.117
 5373TIP3    H216061   2.109   4.374   2.220
 5374TIP3   OH216062   3.774   0.148   0.346
 5374TIP3    H116063   3.854   0.184   0.383
 5374TIP3    H216064   3.704   0.186   0.399
 5375TIP3   OH216065   4.728   1.817   0.925
 5375TIP3    H116066   4.770   1.872   0.991
 5375TIP3    H216067   4.778   1.735   0.926
 5376TIP3   OH216068   4.140   5.213   0.513
 5376TIP3    H116069   4.124   5.302   0.480
 5376TIP3    H216070   4.211   5.179   0.458
 5377TIP3   OH216071   0.973   0.829   6.406
 5377TIP3    H116072   1.062   0.854   6.379
 5377TIP3    H216073   0.962   0.740   6.374
 5378TIP3   OH216074   4.801   1.394   6.362
 5378TIP3    H116075   4.726   1.443   6.328
 5378TIP3    H216076   4.774   1.303   6.358
 5379TIP3   OH216077   4.743   0.640   4.297
 5379TIP3    H116078   4.744   0.548   4.323
 5379TIP3    H216079   4.787   0.686   4.369
 5380TIP3   OH216080   7.974   6.916   0.623
 5380TIP3    H116081   7.920   6.901   0.700
 5380TIP3    H216082   7.919   6.890   0.549
 5381TIP3   OH216083   2.534   2.745   1.874
 5381TIP3    H116084   2.446   2.784   1.873
 5381TIP3    H216085   2.547   2.711   1.786
 5382TIP3   OH216086   1.441   1.332   3.785
 5382TIP3    H116087   1.351   1.328   3.752
 5382TIP3    H216088   1.449   1.254   3.840
 5383TIP3   OH216089   5.327   4.551   5.517
 5383TIP3    H116090   5.364   4.537   5.604
 5383TIP3    H216091   5.335   4.646   5.503
 5384TIP3   OH216092   7.624   3.838   1.124
 5384TIP3    H116093   7.713   3.812   1.148
 5384TIP3    H216094   7.618   3.929   1.152
 5385TIP3   OH216095   1.605   6.535   2.086
 5385TIP3    H116096   1.583   6.473   2.155
 5385TIP3    H216097   1.547   6.610   2.102
 5386TIP3   OH216098   4.755   0.909   2.883
 5386TIP3    H116099   4.850   0.916   2.895
 5386TIP3    H216100   4.718   0.968   2.948
 5387TIP3   OH216101   1.376   5.648   1.328
 5387TIP3    H116102   1.292   5.669   1.287
 5387TIP3    H216103   1.362   5.562   1.369
 5388TIP3   OH216104   6.138   0.996   6.020
 5388TIP3    H116105   6.104   1.049   5.947
 5388TIP3    H216106   6.191   1.057   6.071
 5389TIP3   OH216107   3.013   1.710   4.012
 5389TIP3    H116108   3.057   1.767   4.075
 5389TIP3    H216109   2.923   1.743   4.009
 5390TIP3   OH216110   1.109   4.577   6.689
 5390TIP3    H116111   1.202   4.559   6.701
 5390TIP3    H216112   1.093   4.561   6.596
 5391TIP3   OH216113   1.793   6.326   5.638
 5391TIP3    H116114   1.851   6.255   5.668
 5391TIP3    H216115   1.812   6.335   5.545
 5392TIP3   OH216116   6.324   5.804   5.294
 5392TIP3    H116117   6.321   5.898   5.311
 5392TIP3    H216118   6.266   5.792   5.219
 5393TIP3   OH216119   6.114   5.769   0.041
 5393TIP3    H116120   6.162   5.848   0.063
 5393TIP3    H216121   6.025   5.786   0.071
 5394TIP3   OH216122   4.145   1.885   3.059
 5394TIP3    H116123   4.105   1.968   3.032
 5394TIP3    H216124   4.131   1.826   2.985
 5395TIP3   OH216125   1.675   4.493   1.120
 5395TIP3    H116126   1.683   4.529   1.208
 5395TIP3    H216127   1.645   4.567   1.067
 5396TIP3   OH216128   5.594   4.567   0.902
 5396TIP3    H116129   5.612   4.577   0.995
 5396TIP3    H216130   5.644   4.490   0.875
 5397TIP3   OH216131   6.008   4.780   5.092
 5397TIP3    H116132   5.995   4.747   5.181
 5397TIP3    H216133   5.926   4.761   5.046
 5398TIP3   OH216134   5.150   1.722   4.938
 5398TIP3    H116135   5.170   1.658   5.006
 5398TIP3    H216136   5.183   1.682   4.857
 5399TIP3   OH216137   5.510   7.482   4.203
 5399TIP3    H116138   5.554   7.423   4.264
 5399TIP3    H216139   5.417   7.477   4.226
 5400TIP3   OH216140   2.599   6.182   1.400
 5400TIP3    H116141   2.603   6.092   1.431
 5400TIP3    H216142   2.593   6.235   1.480
 5401TIP3   OH216143   6.272   5.400   4.719
 5401TIP3    H116144   6.323   5.452   4.781
 5401TIP3    H216145   6.225   5.464   4.666
 5402TIP3   OH216146   8.393   5.403   0.897
 5402TIP3    H116147   8.470   5.357   0.864
 5402TIP3    H216148   8.426   5.487   0.927
 5403TIP3   OH216149   3.443   4.315   3.475
 5403TIP3    H116150   3.489   4.236   3.449
 5403TIP3    H216151   3.498   4.354   3.542
 5404TIP3   OH216152   4.356   3.156   5.480
 5404TIP3    H116153   4.394   3.141   5.567
 5404TIP3    H216154   4.310   3.075   5.460
 5405TIP3   OH216155   3.672   3.701   0.732
 5405TIP3    H116156   3.749   3.696   0.789
 5405TIP3    H216157   3.599   3.714   0.792
 5406TIP3   OH216158   5.054   6.790   4.677
 5406TIP3    H116159   5.069   6.753   4.764
 5406TIP3    H216160   4.968   6.833   4.684
 5407TIP3   OH216161   4.555   1.118   3.996
 5407TIP3    H116162   4.569   1.210   3.973
 5407TIP3    H216163   4.466   1.099   3.965
 5408TIP3   OH216164   0.449   7.679   1.913
 5408TIP3    H116165   0.364   7.714   1.937
 5408TIP3    H216166   0.432   7.620   1.840
 5409TIP3   OH216167   5.731   0.672  -0.002
 5409TIP3    H116168   5.644   0.671  -0.041
 5409TIP3    H216169   5.717   0.692   0.090
 5410TIP3   OH216170   3.694   5.134   2.044
 5410TIP3    H116171   3.725   5.192   1.974
 5410TIP3    H216172   3.600   5.128   2.029
 5411TIP3   OH216173   5.563   2.558   4.582
 5411TIP3    H116174   5.566   2.521   4.494
 5411TIP3    H216175   5.476   2.597   4.589
 5412TIP3   OH216176   4.156   5.421   5.316
 5412TIP3    H116177   4.153   5.374   5.233
 5412TIP3    H216178   4.092   5.492   5.305
 5413TIP3   OH216179   4.857   2.697   0.064
 5413TIP3    H116180   4.801   2.627   0.031
 5413TIP3    H216181   4.916   2.654   0.127
 5414TIP3   OH216182   4.715   3.334   6.468
 5414TIP3    H116183   4.670   3.376   6.541
 5414TIP3    H216184   4.757   3.407   6.422
 5415TIP3   OH216185   1.679   4.658   3.434
 5415TIP3    H116186   1.679   4.568   3.401
 5415TIP3    H216187   1.767   4.671   3.469
 5416TIP3   OH216188   0.292   3.979   4.332
 5416TIP3    H116189   0.253   4.050   4.382
 5416TIP3    H216190   0.385   4.003   4.324
 5417TIP3   OH216191   1.752   0.584   5.770
 5417TIP3    H116192   1.752   0.573   5.675
 5417TIP3    H216193   1.845   0.576   5.794
 5418TIP3   OH216194   5.745   0.965   5.369
 5418TIP3    H116195   5.774   0.878   5.344
 5418TIP3    H216196   5.696   0.997   5.293
 5419TIP3   OH216197   0.444   2.032   1.967
 5419TIP3    H116198   0.417   1.941   1.982
 5419TIP3    H216199   0.536   2.035   1.994
 5420TIP3   OH216200   6.243   2.772   4.586
 5420TIP3    H116201   6.208   2.846   4.536
 5420TIP3    H216202   6.186   2.698   4.563
 5421TIP3   OH216203   0.417   5.566   6.240
 5421TIP3    H116204   0.405   5.661   6.233
 5421TIP3    H216205   0.472   5.555   6.317
 5422TIP3   OH216206   0.609   2.118   0.085
 5422TIP3    H116207   0.687   2.062   0.084
 5422TIP3    H216208   0.584   2.122   0.178
 5423TIP3   OH216209   2.886   5.097   6.316
 5423TIP3    H116210   2.827   5.172   6.306
 5423TIP3    H216211   2.954   5.129   6.376
 5424TIP3   OH216212   1.502   0.536   4.177
 5424TIP3    H116213   1.482   0.533   4.271
 5424TIP3    H216214   1.512   0.444   4.153
 5425TIP3   OH216215   1.219   4.681   2.960
 5425TIP3    H116216   1.286   4.740   2.927
 5425TIP3    H216217   1.176   4.730   3.031
 5426TIP3   OH216218   0.567   3.697   6.154
 5426TIP3    H116219   0.637   3.647   6.196
 5426TIP3    H216220   0.601   3.786   6.147
 5427TIP3   OH216221   5.785   2.485   0.564
 5427TIP3    H116222   5.765   2.412   0.505
 5427TIP3    H216223   5.724   2.474   0.637
 5428TIP3   OH216224   1.059   5.132   2.064
 5428TIP3    H116225   1.108   5.207   2.029
 5428TIP3    H216226   1.064   5.142   2.159
 5429TIP3   OH216227   0.645   0.242   1.875
 5429TIP3    H116228   0.651   0.220   1.968
 5429TIP3    H216229   0.561   0.205   1.846
 5430TIP3   OH216230   8.347   2.648   2.519
 5430TIP3    H116231   8.394   2.728   2.495
 5430TIP3    H216232   8.413   2.592   2.560
 5431TIP3   OH216233   1.373   6.310   6.537
 5431TIP3    H116234   1.380   6.296   6.631
 5431TIP3    H216235   1.291   6.266   6.512
 5432TIP3   OH216236   4.240   4.773   3.363
 5432TIP3    H116237   4.224   4.773   3.268
 5432TIP3    H216238   4.314   4.832   3.375
 5433TIP3   OH216239   6.819   0.212   1.594
 5433TIP3    H116240   6.877   0.286   1.615
 5433TIP3    H216241   6.871   0.157   1.535
 5434TIP3   OH216242   7.653   7.440   1.252
 5434TIP3    H116243   7.584   7.442   1.317
 5434TIP3    H216244   7.733   7.463   1.300
 5435TIP3   OH216245   5.423   5.819   5.954
 5435TIP3    H116246   5.453   5.782   6.037
 5435TIP3    H216247   5.334   5.786   5.944
 5436TIP3   OH216248   2.176   0.140   5.727
 5436TIP3    H116249   2.177   0.235   5.726
 5436TIP3    H216250   2.268   0.115   5.737
 5437TIP3   OH216251   0.589   6.675   6.142
 5437TIP3    H116252   0.659   6.668   6.207
 5437TIP3    H216253   0.542   6.591   6.148
 5438TIP3   OH216254   1.684   6.757   3.692
 5438TIP3    H116255   1.642   6.676   3.720
 5438TIP3    H216256   1.774   6.732   3.673
 5439TIP3   OH216257   6.136   5.733   5.587
 5439TIP3    H116258   6.110   5.715   5.496
 5439TIP3    H216259   6.171   5.822   5.584
 5440TIP3   OH216260   7.634   1.595   5.449
 5440TIP3    H116261   7.643   1.628   5.360
 5440TIP3    H216262   7.636   1.673   5.504
 5441TIP3   OH216263   6.488   1.675   5.661
 5441TIP3    H116264   6.427   1.741   5.629
 5441TIP3    H216265   6.440   1.632   5.733
 5442TIP3   OH216266   3.203   2.600   2.346
 5442TIP3    H116267   3.266   2.553   2.292
 5442TIP3    H216268   3.229   2.692   2.339
 5443TIP3   OH216269   6.501   6.427   3.951
 5443TIP3    H116270   6.532   6.482   4.023
 5443TIP3    H216271   6.511   6.481   3.873
 5444TIP3   OH216272   1.822   0.595   2.096
 5444TIP3    H116273   1.915   0.589   2.076
 5444TIP3    H216274   1.788   0.507   2.076
 5445TIP3   OH216275   5.869   0.723   4.425
 5445TIP3    H116276   5.801   0.724   4.358
 5445TIP3    H216277   5.905   0.812   4.424
 5446TIP3   OH216278   6.116   0.693   4.257
 5446TIP3    H116279   6.031   0.690   4.299
 5446TIP3    H216280   6.153   0.606   4.268
 5447TIP3   OH216281   1.066   4.405   4.416
 5447TIP3    H116282   0.977   4.419   4.449
 5447TIP3    H216283   1.121   4.407   4.494
 5448TIP3   OH216284   1.191   4.556   5.589
 5448TIP3    H116285   1.268   4.502   5.607
 5448TIP3    H216286   1.221   4.617   5.521
 5449TIP3   OH216287   5.836   0.212   2.442
 5449TIP3    H116288   5.782   0.252   2.374
 5449TIP3    H216289   5.781   0.212   2.520
 5450TIP3   OH216290   6.722   0.088   1.007
 5450TIP3    H116291   6.771   0.165   1.037
 5450TIP3    H216292   6.713   0.033   1.084
 5451TIP3   OH216293   5.792   0.486   0.301
 5451TIP3    H116294   5.838   0.492   0.385
 5451TIP3    H216295   5.834   0.413   0.256
 5452TIP3   OH216296   2.355   7.403   2.224
 5452TIP3    H116297   2.261   7.399   2.241
 5452TIP3    H216298   2.376   7.320   2.182
 5453TIP3   OH216299   4.777   4.700   3.114
 5453TIP3    H116300   4.842   4.769   3.127
 5453TIP3    H216301   4.731   4.694   3.198
 5454TIP3   OH216302   5.762   5.963   2.218
 5454TIP3    H116303   5.844   5.937   2.260
 5454TIP3    H216304   5.717   5.880   2.201
 5455TIP3   OH216305   1.906   2.230   3.579
 5455TIP3    H116306   1.955   2.216   3.660
 5455TIP3    H216307   1.957   2.296   3.531
 5456TIP3   OH216308   6.956   7.880   0.281
 5456TIP3    H116309   6.941   7.873   0.375
 5456TIP3    H216310   6.870   7.865   0.241
 5457TIP3   OH216311   5.896   4.686   0.981
 5457TIP3    H116312   5.922   4.686   1.073
 5457TIP3    H216313   5.905   4.595   0.953
 5458TIP3   OH216314   7.763   1.533   5.829
 5458TIP3    H116315   7.766   1.628   5.814
 5458TIP3    H216316   7.853   1.511   5.855
 5459TIP3   OH216317   4.092   5.316   2.121
 5459TIP3    H116318   4.116   5.304   2.213
 5459TIP3    H216319   3.999   5.292   2.117
 5460TIP3   OH216320   2.032   2.327   2.329
 5460TIP3    H116321   1.948   2.355   2.364
 5460TIP3    H216322   2.011   2.252   2.273
 5461TIP3   OH216323   6.230   5.056   5.492
 5461TIP3    H116324   6.268   5.024   5.574
 5461TIP3    H216325   6.288   5.021   5.424
 5462TIP3   OH216326   3.523   2.759   1.901
 5462TIP3    H116327   3.494   2.780   1.989
 5462TIP3    H216328   3.457   2.798   1.844
 5463TIP3   OH216329   1.012   5.693   3.159
 5463TIP3    H116330   0.969   5.749   3.094
 5463TIP3    H216331   0.940   5.660   3.213
 5464TIP3   OH216332   3.639   1.125   4.828
 5464TIP3    H116333   3.629   1.201   4.886
 5464TIP3    H216334   3.711   1.075   4.866
 5465TIP3   OH216335   2.176   4.258   4.757
 5465TIP3    H116336   2.087   4.239   4.729
 5465TIP3    H216337   2.188   4.351   4.735
 5466TIP3   OH216338   7.565   6.537   4.609
 5466TIP3    H116339   7.634   6.595   4.575
 5466TIP3    H216340   7.611   6.470   4.658
 5467TIP3   OH216341   2.253   0.040   2.280
 5467TIP3    H116342   2.286   0.103   2.344
 5467TIP3    H216343   2.177   0.084   2.240
 5468TIP3   OH216344   7.003   4.646   3.631
 5468TIP3    H116345   6.907   4.646   3.641
 5468TIP3    H216346   7.027   4.554   3.636
 5469TIP3   OH216347   2.943   0.522   2.754
 5469TIP3    H116348   2.975   0.557   2.671
 5469TIP3    H216349   2.908   0.599   2.800
 5470TIP3   OH216350   3.839   7.481   4.643
 5470TIP3    H116351   3.859   7.463   4.551
 5470TIP3    H216352   3.746   7.461   4.651
 5471TIP3   OH216353   2.252   2.332   0.197
 5471TIP3    H116354   2.234   2.378   0.279
 5471TIP3    H216355   2.314   2.263   0.222
 5472TIP3   OH216356   1.763   1.160   5.130
 5472TIP3    H116357   1.804   1.177   5.214
 5472TIP3    H216358   1.739   1.246   5.097
 5473TIP3   OH216359   6.776   1.543   1.872
 5473TIP3    H116360   6.870   1.552   1.856
 5473TIP3    H216361   6.738   1.623   1.835
 5474TIP3   OH216362   5.881   0.825   2.459
 5474TIP3    H116363   5.831   0.758   2.506
 5474TIP3    H216364   5.962   0.834   2.510
 5475TIP3   OH216365   4.638   5.103   3.803
 5475TIP3    H116366   4.716   5.135   3.847
 5475TIP3    H216367   4.565   5.136   3.855
 5476TIP3   OH216368   5.011   2.181   3.852
 5476TIP3    H116369   4.956   2.149   3.780
 5476TIP3    H216370   5.086   2.122   3.854
 5477TIP3   OH216371   8.196   0.498   5.850
 5477TIP3    H116372   8.201   0.578   5.902
 5477TIP3    H216373   8.114   0.506   5.801
 5478TIP3   OH216374   3.439   5.739   0.518
 5478TIP3    H116375   3.521   5.698   0.545
 5478TIP3    H216376   3.400   5.772   0.599
 5479TIP3   OH216377   3.321   7.339   1.335
 5479TIP3    H116378   3.231   7.363   1.357
 5479TIP3    H216379   3.348   7.403   1.270
 5480TIP3   OH216380   3.451   0.758   2.429
 5480TIP3    H116381   3.464   0.761   2.334
 5480TIP3    H216382   3.535   0.784   2.466
 5481TIP3   OH216383   6.936   2.258   4.801
 5481TIP3    H116384   6.953   2.222   4.889
 5481TIP3    H216385   6.906   2.183   4.750
 5482TIP3   OH216386   0.184   5.975   5.947
 5482TIP3    H116387   0.113   6.015   5.898
 5482TIP3    H216388   0.172   5.881   5.936
 5483TIP3   OH216389   6.994   5.089   0.395
 5483TIP3    H116390   6.919   5.148   0.397
 5483TIP3    H216391   7.008   5.072   0.302
 5484TIP3   OH216392   8.086   3.730   5.691
 5484TIP3    H116393   8.043   3.815   5.702
 5484TIP3    H216394   8.080   3.688   5.777
 5485TIP3   OH216395   5.372   4.613   2.327
 5485TIP3    H116396   5.318   4.692   2.327
 5485TIP3    H216397   5.414   4.613   2.413
 5486TIP3   OH216398   6.856   4.816   5.767
 5486TIP3    H116399   6.854   4.851   5.856
 5486TIP3    H216400   6.944   4.779   5.758
 5487TIP3   OH216401   2.602   0.322   4.339
 5487TIP3    H116402   2.640   0.235   4.327
 5487TIP3    H216403   2.531   0.326   4.275
 5488TIP3   OH216404   6.753   3.869   1.342
 5488TIP3    H116405   6.675   3.924   1.333
 5488TIP3    H216406   6.769   3.867   1.437
 5489TIP3   OH216407   4.495   0.039   1.202
 5489TIP3    H116408   4.531   0.040   1.291
 5489TIP3    H216409   4.458  -0.049   1.192
 5490TIP3   OH216410   6.477   3.758   0.453
 5490TIP3    H116411   6.476   3.737   0.360
 5490TIP3    H216412   6.546   3.704   0.490
 5491TIP3   OH216413   8.392   0.297   3.784
 5491TIP3    H116414   8.383   0.347   3.702
 5491TIP3    H216415   8.427   0.212   3.756
 5492TIP3   OH216416   5.288   7.195   6.193
 5492TIP3    H116417   5.202   7.200   6.153
 5492TIP3    H216418   5.322   7.109   6.168
 5493TIP3   OH216419   6.182   3.272   1.025
 5493TIP3    H116420   6.109   3.334   1.032
 5493TIP3    H216421   6.162   3.203   1.088
 5494TIP3   OH216422   7.297   5.893   5.629
 5494TIP3    H116423   7.249   5.810   5.629
 5494TIP3    H216424   7.288   5.926   5.718
 5495TIP3   OH216425   1.544   3.300   0.287
 5495TIP3    H116426   1.607   3.291   0.358
 5495TIP3    H216427   1.521   3.210   0.263
 5496TIP3   OH216428   6.474   4.876   4.272
 5496TIP3    H116429   6.484   4.942   4.341
 5496TIP3    H216430   6.563   4.847   4.254
 5497TIP3   OH216431   4.974   3.845   6.011
 5497TIP3    H116432   4.950   3.938   6.008
 5497TIP3    H216433   4.920   3.809   6.081
 5498TIP3   OH216434   0.117   6.106   0.361
 5498TIP3    H116435   0.037   6.159   0.354
 5498TIP3    H216436   0.174   6.157   0.418
 5499TIP3   OH216437   4.663   1.388   6.651
 5499TIP3    H116438   4.590   1.402   6.590
 5499TIP3    H216439   4.741   1.392   6.596
 5500TIP3   OH216440   5.396   3.331   0.144
 5500TIP3    H116441   5.417   3.362   0.232
 5500TIP3    H216442   5.480   3.333   0.097
 5501TIP3   OH216443   3.339   4.283   4.924
 5501TIP3    H116444   3.346   4.260   5.017
 5501TIP3    H216445   3.370   4.374   4.919
 5502TIP3   OH216446   3.772   6.035   2.408
 5502TIP3    H116447   3.733   5.992   2.332
 5502TIP3    H216448   3.776   5.967   2.475
 5503TIP3   OH216449   2.943   0.865   1.829
 5503TIP3    H116450   2.968   0.927   1.898
 5503TIP3    H216451   3.024   0.819   1.807
 5504TIP3   OH216452   4.723   7.165   0.199
 5504TIP3    H116453   4.654   7.230   0.209
 5504TIP3    H216454   4.769   7.166   0.283
 5505TIP3   OH216455   6.489   4.758   3.264
 5505TIP3    H116456   6.578   4.732   3.244
 5505TIP3    H216457   6.495   4.804   3.347
 5506TIP3   OH216458   7.224   3.201   1.975
 5506TIP3    H116459   7.257   3.188   1.887
 5506TIP3    H216460   7.202   3.113   2.006
 5507TIP3   OH216461   4.642   5.107   5.944
 5507TIP3    H116462   4.701   5.052   5.893
 5507TIP3    H216463   4.555   5.088   5.909
 5508TIP3   OH216464   6.002   3.982   6.588
 5508TIP3    H116465   5.972   4.020   6.670
 5508TIP3    H216466   6.088   3.946   6.608
 5509TIP3   OH216467   6.979   4.268   4.083
 5509TIP3    H116468   6.951   4.177   4.076
 5509TIP3    H216469   7.073   4.262   4.102
 5510TIP3   OH216470   1.162   1.717   6.617
 5510TIP3    H116471   1.196   1.676   6.696
 5510TIP3    H216472   1.129   1.643   6.565
 5511TIP3   OH216473   8.372   4.359   1.414
 5511TIP3    H116474   8.444   4.306   1.381
 5511TIP3    H216475   8.327   4.301   1.476
 5512TIP3   OH216476   2.801   0.017   2.686
 5512TIP3    H116477   2.763   0.078   2.622
 5512TIP3    H216478   2.727  -0.013   2.738
 5513TIP3   OH216479   6.174   4.973   4.601
 5513TIP3    H116480   6.224   5.020   4.668
 5513TIP3    H216481   6.088   4.959   4.641
 5514TIP3   OH216482   4.007   7.622   3.242
 5514TIP3    H116483   4.070   7.674   3.191
 5514TIP3    H216484   3.927   7.674   3.239
 5515TIP3   OH216485   6.003   6.452   1.506
 5515TIP3    H116486   6.049   6.536   1.513
 5515TIP3    H216487   6.070   6.391   1.475
 5516TIP3   OH216488   2.959   5.168   5.489
 5516TIP3    H116489   2.987   5.236   5.428
 5516TIP3    H216490   3.038   5.118   5.509
 5517TIP3   OH216491   4.935   4.612   5.861
 5517TIP3    H116492   4.934   4.604   5.957
 5517TIP3    H216493   5.027   4.631   5.840
 5518TIP3   OH216494   7.969   4.915   0.121
 5518TIP3    H116495   8.027   4.848   0.158
 5518TIP3    H216496   7.907   4.934   0.191
 5519TIP3   OH216497   7.901   5.369   5.853
 5519TIP3    H116498   7.990   5.389   5.884
 5519TIP3    H216499   7.844   5.419   5.911
 5520TIP3   OH216500   6.305   5.717   3.483
 5520TIP3    H116501   6.293   5.752   3.571
 5520TIP3    H216502   6.230   5.660   3.469
 5521TIP3   OH216503   2.450   3.029   4.841
 5521TIP3    H116504   2.404   3.006   4.921
 5521TIP3    H216505   2.393   3.094   4.799
 5522TIP3   OH216506   2.863   1.266   4.108
 5522TIP3    H116507   2.905   1.188   4.073
 5522TIP3    H216508   2.817   1.236   4.186
 5523TIP3   OH216509   5.453   7.297   3.779
 5523TIP3    H116510   5.499   7.276   3.861
 5523TIP3    H216511   5.493   7.379   3.750
 5524TIP3   OH216512   6.459   7.596   2.803
 5524TIP3    H116513   6.478   7.629   2.715
 5524TIP3    H216514   6.386   7.650   2.833
 5525TIP3   OH216515   6.749   2.283   1.693
 5525TIP3    H116516   6.749   2.339   1.616
 5525TIP3    H216517   6.656   2.275   1.717
 5526TIP3   OH216518   2.999   1.017   4.316
 5526TIP3    H116519   2.975   1.035   4.407
 5526TIP3    H216520   3.063   0.946   4.322
 5527TIP3   OH216521   5.092   1.797   5.265
 5527TIP3    H116522   5.172   1.750   5.240
 5527TIP3    H216523   5.124   1.881   5.298
 5528TIP3   OH216524   1.991   3.410   4.396
 5528TIP3    H116525   2.081   3.387   4.421
 5528TIP3    H216526   1.936   3.368   4.462
 5529TIP3   OH216527   6.709   6.668   5.663
 5529TIP3    H116528   6.706   6.753   5.618
 5529TIP3    H216529   6.654   6.681   5.740
 5530TIP3   OH216530   6.195   7.190   2.802
 5530TIP3    H116531   6.230   7.253   2.865
 5530TIP3    H216532   6.128   7.142   2.851
 5531TIP3   OH216533   2.208   0.786   5.249
 5531TIP3    H116534   2.229   0.880   5.241
 5531TIP3    H216535   2.127   0.783   5.299
 5532TIP3   OH216536   6.762   2.978   1.105
 5532TIP3    H116537   6.770   3.019   1.019
 5532TIP3    H216538   6.840   3.007   1.153
 5533TIP3   OH216539   1.188   2.703   0.132
 5533TIP3    H116540   1.102   2.713   0.092
 5533TIP3    H216541   1.198   2.609   0.145
 5534TIP3   OH216542   1.645   1.389   3.592
 5534TIP3    H116543   1.611   1.419   3.508
 5534TIP3    H216544   1.566   1.371   3.644
 5535TIP3   OH216545   6.636   3.628   2.242
 5535TIP3    H116546   6.641   3.537   2.211
 5535TIP3    H216547   6.545   3.638   2.269
 5536TIP3   OH216548   8.383   7.648   0.393
 5536TIP3    H116549   8.470   7.654   0.353
 5536TIP3    H216550   8.325   7.689   0.328
 5537TIP3   OH216551   6.023   5.954   6.578
 5537TIP3    H116552   6.034   5.973   6.485
 5537TIP3    H216553   5.936   5.987   6.600
 5538TIP3   OH216554   1.388   4.371   0.073
 5538TIP3    H116555   1.449   4.373   0.147
 5538TIP3    H216556   1.302   4.364   0.113
 5539TIP3   OH216557   4.521   1.933   4.885
 5539TIP3    H116558   4.433   1.897   4.874
 5539TIP3    H216559   4.551   1.897   4.969
 5540TIP3   OH216560   0.218   7.541   1.165
 5540TIP3    H116561   0.154   7.550   1.095
 5540TIP3    H216562   0.177   7.580   1.242
 5541TIP3   OH216563   4.220   3.905   3.061
 5541TIP3    H116564   4.234   3.876   2.970
 5541TIP3    H216565   4.202   3.824   3.109
 5542TIP3   OH216566   2.152   7.040   5.532
 5542TIP3    H116567   2.082   7.041   5.597
 5542TIP3    H216568   2.230   7.067   5.579
 5543TIP3   OH216569   4.005   1.432   1.277
 5543TIP3    H116570   3.974   1.518   1.249
 5543TIP3    H216571   4.101   1.437   1.268
 5544TIP3   OH216572   6.857   0.112   4.490
 5544TIP3    H116573   6.926   0.127   4.555
 5544TIP3    H216574   6.865   0.186   4.429
 5545TIP3   OH216575   0.111   1.373   5.496
 5545TIP3    H116576   0.073   1.412   5.417
 5545TIP3    H216577   0.077   1.284   5.497
 5546TIP3   OH216578   7.415   3.221   1.231
 5546TIP3    H116579   7.377   3.184   1.311
 5546TIP3    H216580   7.390   3.314   1.234
 5547TIP3   OH216581   2.830   7.506   4.885
 5547TIP3    H116582   2.782   7.572   4.835
 5547TIP3    H216583   2.766   7.436   4.901
 5548TIP3   OH216584   1.750   5.863   1.251
 5548TIP3    H116585   1.674   5.812   1.223
 5548TIP3    H216586   1.820   5.836   1.191
 5549TIP3   OH216587   5.809   6.384   0.899
 5549TIP3    H116588   5.768   6.468   0.882
 5549TIP3    H216589   5.764   6.352   0.978
 5550TIP3   OH216590   6.705   4.869   5.541
 5550TIP3    H116591   6.713   4.964   5.544
 5550TIP3    H216592   6.781   4.837   5.589
 5551TIP3   OH216593   3.564   6.712   0.244
 5551TIP3    H116594   3.528   6.624   0.230
 5551TIP3    H216595   3.488   6.766   0.262
 5552TIP3   OH216596   3.690   1.119   0.442
 5552TIP3    H116597   3.691   1.212   0.464
 5552TIP3    H216598   3.638   1.079   0.512
 5553TIP3   OH216599   5.476   7.141   5.899
 5553TIP3    H116600   5.453   7.230   5.869
 5553TIP3    H216601   5.405   7.117   5.958
 5554TIP3   OH216602   2.187   6.427   5.881
 5554TIP3    H116603   2.127   6.474   5.939
 5554TIP3    H216604   2.256   6.490   5.861
 5555TIP3   OH216605   3.852   1.856   5.329
 5555TIP3    H116606   3.905   1.919   5.379
 5555TIP3    H216607   3.762   1.876   5.353
 5556TIP3   OH216608   3.713   3.145   2.409
 5556TIP3    H116609   3.752   3.205   2.472
 5556TIP3    H216610   3.787   3.108   2.362
 5557TIP3   OH216611   7.170   1.269   3.381
 5557TIP3    H116612   7.174   1.201   3.449
 5557TIP3    H216613   7.209   1.228   3.304
 5558TIP3   OH216614   5.270   6.890   5.575
 5558TIP3    H116615   5.256   6.866   5.667
 5558TIP3    H216616   5.184   6.919   5.545
 5559TIP3   OH216617   0.836   7.835   3.705
 5559TIP3    H116618   0.773   7.840   3.633
 5559TIP3    H216619   0.903   7.774   3.674
 5560TIP3   OH216620   1.566   4.299   1.428
 5560TIP3    H116621   1.497   4.264   1.484
 5560TIP3    H216622   1.525   4.373   1.384
 5561TIP3   OH216623   7.074   5.450   3.717
 5561TIP3    H116624   7.024   5.408   3.646
 5561TIP3    H216625   7.165   5.443   3.689
 5562TIP3   OH216626   5.184   2.756   3.349
 5562TIP3    H116627   5.092   2.782   3.344
 5562TIP3    H216628   5.195   2.695   3.276
 5563TIP3   OH216629   3.204   0.239   1.503
 5563TIP3    H116630   3.299   0.255   1.506
 5563TIP3    H216631   3.166   0.326   1.490
 5564TIP3   OH216632   1.953   7.674   2.776
 5564TIP3    H116633   1.921   7.662   2.686
 5564TIP3    H216634   1.972   7.768   2.782
 5565TIP3   OH216635  -0.008   1.693   4.124
 5565TIP3    H116636  -0.067   1.747   4.072
 5565TIP3    H216637  -0.047   1.692   4.211
 5566TIP3   OH216638   4.754   6.055   6.519
 5566TIP3    H116639   4.717   6.129   6.472
 5566TIP3    H216640   4.699   5.981   6.495
 5567TIP3   OH216641   2.636   3.100   0.847
 5567TIP3    H116642   2.697   3.027   0.843
 5567TIP3    H216643   2.588   3.096   0.764
 5568TIP3   OH216644   7.526   2.501   4.272
 5568TIP3    H116645   7.604   2.499   4.217
 5568TIP3    H216646   7.516   2.593   4.296
 5569TIP3   OH216647   4.486   2.184   1.413
 5569TIP3    H116648   4.437   2.249   1.363
 5569TIP3    H216649   4.545   2.235   1.468
 5570TIP3   OH216650   3.566   4.507   0.974
 5570TIP3    H116651   3.608   4.574   1.028
 5570TIP3    H216652   3.480   4.543   0.953
 5571TIP3   OH216653   1.096   3.136   2.295
 5571TIP3    H116654   1.125   3.141   2.204
 5571TIP3    H216655   1.153   3.196   2.342
 5572TIP3   OH216656   4.979   6.005   2.965
 5572TIP3    H116657   4.902   6.027   3.018
 5572TIP3    H216658   5.000   5.915   2.989
 5573TIP3   OH216659   4.693   5.334   6.095
 5573TIP3    H116660   4.658   5.380   6.020
 5573TIP3    H216661   4.688   5.241   6.071
 5574TIP3   OH216662   6.984   7.089   5.261
 5574TIP3    H116663   7.064   7.046   5.233
 5574TIP3    H216664   6.914   7.042   5.216
 5575TIP3   OH216665   5.314   6.153   3.417
 5575TIP3    H116666   5.274   6.088   3.474
 5575TIP3    H216667   5.292   6.237   3.456
 5576TIP3   OH216668   6.015   0.209   1.455
 5576TIP3    H116669   6.040   0.263   1.380
 5576TIP3    H216670   6.089   0.151   1.470
 5577TIP3   OH216671   7.397   2.865   6.350
 5577TIP3    H116672   7.391   2.867   6.255
 5577TIP3    H216673   7.312   2.830   6.378
 5578TIP3   OH216674   4.137   4.882   0.501
 5578TIP3    H116675   4.165   4.946   0.435
 5578TIP3    H216676   4.081   4.931   0.560
 5579TIP3   OH216677   5.994   6.554   3.628
 5579TIP3    H116678   6.063   6.553   3.562
 5579TIP3    H216679   5.944   6.474   3.612
 5580TIP3   OH216680   1.894   0.732   6.157
 5580TIP3    H116681   1.868   0.693   6.241
 5580TIP3    H216682   1.986   0.706   6.147
 5581TIP3   OH216683   0.402   6.819   6.502
 5581TIP3    H116684   0.371   6.881   6.568
 5581TIP3    H216685   0.498   6.830   6.503
 5582TIP3   OH216686   6.063   0.428   0.847
 5582TIP3    H116687   6.152   0.397   0.835
 5582TIP3    H216688   6.032   0.447   0.758
 5583TIP3   OH216689   6.894   2.714   1.643
 5583TIP3    H116690   6.875   2.769   1.719
 5583TIP3    H216691   6.867   2.767   1.568
 5584TIP3   OH216692   4.916   4.203   6.290
 5584TIP3    H116693   4.871   4.282   6.321
 5584TIP3    H216694   4.998   4.236   6.252
 5585TIP3   OH216695   3.949   3.267   4.854
 5585TIP3    H116696   4.032   3.282   4.899
 5585TIP3    H216697   3.951   3.174   4.832
 5586TIP3   OH216698   3.397   1.888   5.401
 5586TIP3    H116699   3.402   1.965   5.344
 5586TIP3    H216700   3.474   1.896   5.458
 5587TIP3   OH216701   6.599   2.074   6.237
 5587TIP3    H116702   6.579   1.980   6.239
 5587TIP3    H216703   6.633   2.093   6.324
 5588TIP3   OH216704   2.336   5.479   1.095
 5588TIP3    H116705   2.270   5.423   1.134
 5588TIP3    H216706   2.355   5.439   1.010
 5589TIP3   OH216707   3.504   4.945   2.499
 5589TIP3    H116708   3.452   5.017   2.463
 5589TIP3    H216709   3.525   4.890   2.423
 5590TIP3   OH216710   7.943   1.618   4.429
 5590TIP3    H116711   7.935   1.584   4.340
 5590TIP3    H216712   7.973   1.708   4.418
 5591TIP3   OH216713   0.413   7.528   4.860
 5591TIP3    H116714   0.342   7.571   4.909
 5591TIP3    H216715   0.480   7.596   4.851
 5592TIP3   OH216716   6.942   5.399   0.514
 5592TIP3    H116717   6.957   5.382   0.421
 5592TIP3    H216718   6.855   5.363   0.531
 5593TIP3   OH216719   1.347   6.071   5.400
 5593TIP3    H116720   1.265   6.022   5.398
 5593TIP3    H216721   1.340   6.126   5.478
 5594TIP3   OH216722   5.357   0.247   2.251
 5594TIP3    H116723   5.266   0.278   2.246
 5594TIP3    H216724   5.362   0.201   2.335
 5595TIP3   OH216725   4.558   4.480   2.240
 5595TIP3    H116726   4.570   4.388   2.216
 5595TIP3    H216727   4.484   4.479   2.301
 5596TIP3   OH216728   8.292   7.606   5.301
 5596TIP3    H116729   8.294   7.701   5.286
 5596TIP3    H216730   8.199   7.586   5.313
 5597TIP3   OH216731   2.649   7.940   4.972
 5597TIP3    H116732   2.577   7.986   5.016
 5597TIP3    H216733   2.702   7.904   5.044
 5598TIP3   OH216734   1.552   4.819   4.513
 5598TIP3    H116735   1.461   4.796   4.528
 5598TIP3    H216736   1.602   4.751   4.558
 5599TIP3   OH216737   4.131   0.120   0.661
 5599TIP3    H116738   4.141   0.077   0.745
 5599TIP3    H216739   4.205   0.181   0.655
 5600TIP3   OH216740   6.501   7.424   1.008
 5600TIP3    H116741   6.453   7.501   0.979
 5600TIP3    H216742   6.480   7.416   1.101
 5601TIP3   OH216743   7.825   6.501   0.950
 5601TIP3    H116744   7.888   6.483   1.020
 5601TIP3    H216745   7.817   6.418   0.903
 5602TIP3   OH216746   1.573   2.429   5.819
 5602TIP3    H116747   1.664   2.436   5.788
 5602TIP3    H216748   1.539   2.519   5.814
 5603TIP3   OH216749   2.448   0.547   3.686
 5603TIP3    H116750   2.420   0.531   3.776
 5603TIP3    H216751   2.509   0.620   3.692
 5604TIP3   OH216752   0.952   0.625   0.180
 5604TIP3    H116753   1.031   0.572   0.171
 5604TIP3    H216754   0.979   0.714   0.160
 5605TIP3   OH216755   2.446   6.979   4.242
 5605TIP3    H116756   2.490   7.000   4.325
 5605TIP3    H216757   2.482   6.894   4.217
 5606TIP3   OH216758   4.739   0.110   1.015
 5606TIP3    H116759   4.649   0.131   0.992
 5606TIP3    H216760   4.791   0.181   0.977
 5607TIP3   OH216761   4.139   3.101   2.460
 5607TIP3    H116762   4.189   3.158   2.402
 5607TIP3    H216763   4.202   3.035   2.488
 5608TIP3   OH216764   4.379   7.151   2.820
 5608TIP3    H116765   4.376   7.236   2.776
 5608TIP3    H216766   4.310   7.100   2.777
 5609TIP3   OH216767   0.487   2.448   2.419
 5609TIP3    H116768   0.412   2.446   2.479
 5609TIP3    H216769   0.550   2.507   2.461
 5610TIP3   OH216770   8.308   6.865   6.561
 5610TIP3    H116771   8.276   6.815   6.635
 5610TIP3    H216772   8.322   6.800   6.492
 5611TIP3   OH216773   6.346   6.016   1.160
 5611TIP3    H116774   6.283   5.983   1.224
 5611TIP3    H216775   6.292   6.043   1.086
 5612TIP3   OH216776   4.498   2.807   1.784
 5612TIP3    H116777   4.516   2.714   1.793
 5612TIP3    H216778   4.482   2.820   1.691
 5613TIP3   OH216779   0.555   1.107   3.210
 5613TIP3    H116780   0.538   1.113   3.304
 5613TIP3    H216781   0.651   1.106   3.203
 5614TIP3   OH216782   6.462   7.616   4.534
 5614TIP3    H116783   6.389   7.560   4.507
 5614TIP3    H216784   6.430   7.661   4.612
 5615TIP3   OH216785   5.326   2.954   2.483
 5615TIP3    H116786   5.253   3.007   2.451
 5615TIP3    H216787   5.373   3.011   2.544
 5616TIP3   OH216788   1.385   5.070   5.929
 5616TIP3    H116789   1.366   5.079   6.022
 5616TIP3    H216790   1.325   5.131   5.886
 5617TIP3   OH216791   7.486   3.798   5.531
 5617TIP3    H116792   7.429   3.834   5.599
 5617TIP3    H216793   7.451   3.710   5.514
 5618TIP3   OH216794   5.661   1.615   2.088
 5618TIP3    H116795   5.600   1.559   2.040
 5618TIP3    H216796   5.706   1.555   2.148
 5619TIP3   OH216797   0.733   1.402   1.126
 5619TIP3    H116798   0.745   1.487   1.169
 5619TIP3    H216799   0.767   1.416   1.037
 5620TIP3   OH216800   2.988   1.963   0.290
 5620TIP3    H116801   3.015   2.014   0.214
 5620TIP3    H216802   3.066   1.957   0.345
 5621TIP3   OH216803   5.714   5.203   1.090
 5621TIP3    H116804   5.716   5.116   1.050
 5621TIP3    H216805   5.745   5.188   1.180
 5622TIP3   OH216806   7.197   1.152   6.105
 5622TIP3    H116807   7.151   1.205   6.170
 5622TIP3    H216808   7.140   1.153   6.028
 5623TIP3   OH216809   3.093   6.357   2.390
 5623TIP3    H116810   3.012   6.391   2.430
 5623TIP3    H216811   3.064   6.289   2.330
 5624TIP3   OH216812   2.753   5.441   1.628
 5624TIP3    H116813   2.752   5.396   1.713
 5624TIP3    H216814   2.690   5.392   1.575
 5625TIP3   OH216815   2.250   0.723   4.858
 5625TIP3    H116816   2.216   0.649   4.908
 5625TIP3    H216817   2.275   0.787   4.924
 5626TIP3   OH216818   5.695   3.524   1.790
 5626TIP3    H116819   5.692   3.519   1.694
 5626TIP3    H216820   5.667   3.613   1.811
 5627TIP3   OH216821   0.737   4.089   6.567
 5627TIP3    H116822   0.789   4.169   6.577
 5627TIP3    H216823   0.772   4.047   6.489
 5628TIP3   OH216824   8.297   0.852   3.520
 5628TIP3    H116825   8.361   0.837   3.589
 5628TIP3    H216826   8.250   0.931   3.547
 5629TIP3   OH216827   1.397   6.167   6.760
 5629TIP3    H116828   1.396   6.073   6.747
 5629TIP3    H216829   1.358   6.180   6.847
 5630TIP3   OH216830   8.089   3.393   3.721
 5630TIP3    H116831   8.169   3.446   3.715
 5630TIP3    H216832   8.113   3.310   3.678
 5631TIP3   OH216833   7.197   3.473   5.320
 5631TIP3    H116834   7.216   3.381   5.304
 5631TIP3    H216835   7.116   3.489   5.270
 5632TIP3   OH216836   7.224   7.504   5.183
 5632TIP3    H116837   7.243   7.536   5.095
 5632TIP3    H216838   7.146   7.553   5.209
 5633TIP3   OH216839   6.222   6.335   4.054
 5633TIP3    H116840   6.209   6.397   4.127
 5633TIP3    H216841   6.316   6.320   4.052
 5634TIP3   OH216842   3.488   7.715   3.017
 5634TIP3    H116843   3.512   7.746   3.104
 5634TIP3    H216844   3.522   7.781   2.957
 5635TIP3   OH216845   1.667   6.605   0.841
 5635TIP3    H116846   1.680   6.524   0.891
 5635TIP3    H216847   1.740   6.607   0.779
 5636TIP3   OH216848   7.301   7.267   0.380
 5636TIP3    H116849   7.275   7.358   0.392
 5636TIP3    H216850   7.239   7.232   0.316
 5637TIP3   OH216851   1.391   7.895   4.392
 5637TIP3    H116852   1.306   7.852   4.388
 5637TIP3    H216853   1.446   7.834   4.442
 5638TIP3   OH216854   6.221   1.946   3.335
 5638TIP3    H116855   6.236   2.001   3.258
 5638TIP3    H216856   6.266   1.991   3.406
 5639TIP3   OH216857   0.242   0.152   5.554
 5639TIP3    H116858   0.290   0.124   5.632
 5639TIP3    H216859   0.233   0.072   5.502
 5640TIP3   OH216860   4.855   3.999   1.223
 5640TIP3    H116861   4.805   4.047   1.157
 5640TIP3    H216862   4.797   3.927   1.250
 5641TIP3   OH216863   3.483   3.493   5.723
 5641TIP3    H116864   3.523   3.469   5.807
 5641TIP3    H216865   3.493   3.588   5.718
 5642TIP3   OH216866   8.150   4.315   4.742
 5642TIP3    H116867   8.077   4.311   4.680
 5642TIP3    H216868   8.206   4.385   4.708
 5643TIP3   OH216869   0.476   1.942   5.822
 5643TIP3    H116870   0.386   1.909   5.821
 5643TIP3    H216871   0.483   1.996   5.744
 5644TIP3   OH216872   4.719   4.955   1.989
 5644TIP3    H116873   4.812   4.957   2.012
 5644TIP3    H216874   4.684   5.037   2.021
 5645TIP3   OH216875   4.167   3.455   1.393
 5645TIP3    H116876   4.082   3.453   1.437
 5645TIP3    H216877   4.230   3.464   1.465
 5646TIP3   OH216878   5.541   0.424   1.653
 5646TIP3    H116879   5.546   0.328   1.655
 5646TIP3    H216880   5.450   0.443   1.676
 5647TIP3   OH216881   0.798   3.150   1.474
 5647TIP3    H116882   0.791   3.240   1.506
 5647TIP3    H216883   0.891   3.129   1.480
 5648TIP3   OH216884   5.534   1.184   3.606
 5648TIP3    H116885   5.451   1.225   3.627
 5648TIP3    H216886   5.596   1.219   3.670
 5649TIP3   OH216887   5.529   1.340   2.058
 5649TIP3    H116888   5.452   1.360   2.110
 5649TIP3    H216889   5.516   1.250   2.028
 5650TIP3   OH216890   5.343   7.593   5.271
 5650TIP3    H116891   5.382   7.643   5.199
 5650TIP3    H216892   5.402   7.608   5.344
 5651TIP3   OH216893   2.726   3.018   0.429
 5651TIP3    H116894   2.690   3.100   0.464
 5651TIP3    H216895   2.821   3.030   0.432
 5652TIP3   OH216896   1.110   4.921   1.881
 5652TIP3    H116897   1.031   4.937   1.828
 5652TIP3    H216898   1.099   4.976   1.958
 5653TIP3   OH216899   2.929   6.440   0.778
 5653TIP3    H116900   2.876   6.426   0.857
 5653TIP3    H216901   2.865   6.444   0.708
 5654TIP3   OH216902   6.847   6.846   6.816
 5654TIP3    H116903   6.853   6.904   6.892
 5654TIP3    H216904   6.859   6.905   6.741
 5655TIP3   OH216905   0.699   6.582   1.186
 5655TIP3    H116906   0.791   6.573   1.159
 5655TIP3    H216907   0.701   6.577   1.281
 5656TIP3   OH216908   7.076   7.761   1.371
 5656TIP3    H116909   7.013   7.793   1.435
 5656TIP3    H216910   7.091   7.669   1.396
 5657TIP3   OH216911   1.592   6.795   1.379
 5657TIP3    H116912   1.653   6.725   1.356
 5657TIP3    H216913   1.568   6.835   1.296
 5658TIP3   OH216914   3.316   3.991   1.194
 5658TIP3    H116915   3.384   4.004   1.128
 5658TIP3    H216916   3.235   3.980   1.144
 5659TIP3   OH216917   1.784   2.891   2.118
 5659TIP3    H116918   1.733   2.932   2.047
 5659TIP3    H216919   1.826   2.965   2.163
 5660TIP3   OH216920   7.790   4.525   5.255
 5660TIP3    H116921   7.858   4.592   5.261
 5660TIP3    H216922   7.715   4.570   5.215
 5661TIP3   OH216923   1.882   3.186   2.541
 5661TIP3    H116924   1.807   3.227   2.498
 5661TIP3    H216925   1.957   3.214   2.489
 5662TIP3   OH216926   8.074   6.311   6.737
 5662TIP3    H116927   7.983   6.292   6.757
 5662TIP3    H216928   8.106   6.232   6.692
 5663TIP3   OH216929   3.800   0.300   2.265
 5663TIP3    H116930   3.736   0.251   2.316
 5663TIP3    H216931   3.857   0.340   2.331
 5664TIP3   OH216932   3.257   5.760   5.418
 5664TIP3    H116933   3.175   5.712   5.408
 5664TIP3    H216934   3.324   5.702   5.382
 5665TIP3   OH216935   8.146   7.239   5.753
 5665TIP3    H116936   8.064   7.215   5.797
 5665TIP3    H216937   8.152   7.180   5.678
 5666TIP3   OH216938   2.522   1.896   0.154
 5666TIP3    H116939   2.535   1.821   0.097
 5666TIP3    H216940   2.437   1.931   0.130
 5667TIP3   OH216941   6.482   7.617   5.181
 5667TIP3    H116942   6.446   7.705   5.172
 5667TIP3    H216943   6.576   7.627   5.168
 5668TIP3   OH216944   2.528   4.191   0.923
 5668TIP3    H116945   2.552   4.235   0.842
 5668TIP3    H216946   2.469   4.120   0.896
 5669TIP3   OH216947   3.797   4.643   2.819
 5669TIP3    H116948   3.859   4.695   2.870
 5669TIP3    H216949   3.785   4.693   2.738
 5670TIP3   OH216950   7.743   7.491   2.170
 5670TIP3    H116951   7.792   7.565   2.205
 5670TIP3    H216952   7.745   7.425   2.240
 5671TIP3   OH216953   2.099   7.696   4.814
 5671TIP3    H116954   2.186   7.723   4.845
 5671TIP3    H216955   2.070   7.768   4.758
 5672TIP3   OH216956   4.313   1.790   1.752
 5672TIP3    H116957   4.238   1.732   1.743
 5672TIP3    H216958   4.290   1.849   1.823
 5673TIP3   OH216959   1.676   5.363   5.580
 5673TIP3    H116960   1.617   5.437   5.568
 5673TIP3    H216961   1.631   5.290   5.537
 5674TIP3   OH216962   7.196   0.075   5.003
 5674TIP3    H116963   7.178   0.051   4.912
 5674TIP3    H216964   7.120   0.045   5.052
 5675TIP3   OH216965   4.593   2.701   0.719
 5675TIP3    H116966   4.546   2.717   0.637
 5675TIP3    H216967   4.543   2.631   0.761
 5676TIP3   OH216968   3.727   1.652   5.607
 5676TIP3    H116969   3.702   1.671   5.516
 5676TIP3    H216970   3.735   1.557   5.610
 5677TIP3   OH216971   4.375   5.898   6.818
 5677TIP3    H116972   4.452   5.884   6.763
 5677TIP3    H216973   4.396   5.976   6.869
 5678TIP3   OH216974   4.369   7.554   5.661
 5678TIP3    H116975   4.426   7.591   5.594
 5678TIP3    H216976   4.428   7.537   5.735
 5679TIP3   OH216977   8.006   0.190   2.638
 5679TIP3    H116978   8.074   0.128   2.613
 5679TIP3    H216979   8.041   0.275   2.613
 5680TIP3   OH216980   6.448   2.921   0.998
 5680TIP3    H116981   6.364   2.899   0.957
 5680TIP3    H216982   6.490   2.836   1.014
 5681TIP3   OH216983   5.263   4.211   2.481
 5681TIP3    H116984   5.287   4.250   2.397
 5681TIP3    H216985   5.171   4.233   2.492
 5682TIP3   OH216986   5.113   2.615   6.073
 5682TIP3    H116987   5.141   2.668   5.998
 5682TIP3    H216988   5.055   2.548   6.035
 5683TIP3   OH216989   7.326   5.745   0.308
 5683TIP3    H116990   7.244   5.695   0.301
 5683TIP3    H216991   7.322   5.784   0.395
 5684TIP3   OH216992   6.780   6.381   5.898
 5684TIP3    H116993   6.792   6.370   5.992
 5684TIP3    H216994   6.688   6.406   5.888
 5685TIP3   OH216995   2.979   7.604   5.902
 5685TIP3    H116996   2.922   7.599   5.978
 5685TIP3    H216997   2.950   7.683   5.856
 5686TIP3   OH216998   3.914   7.718   1.456
 5686TIP3    H116999   3.933   7.633   1.417
 5686TIP3    H217000   3.834   7.704   1.507
 5687TIP3   OH217001   7.853   3.117   5.432
 5687TIP3    H117002   7.848   3.145   5.524
 5687TIP3    H217003   7.945   3.092   5.420
 5688TIP3   OH217004   4.790   7.169   2.205
 5688TIP3    H117005   4.865   7.163   2.265
 5688TIP3    H217006   4.830   7.172   2.118
 5689TIP3   OH217007   0.548   4.799   3.255
 5689TIP3    H117008   0.472   4.832   3.207
 5689TIP3    H217009   0.622   4.845   3.217
 5690TIP3   OH217010   2.189   7.798   0.782
 5690TIP3    H117011   2.098   7.766   0.777
 5690TIP3    H217012   2.206   7.805   0.876
 5691TIP3   OH217013   7.552   0.767   3.506
 5691TIP3    H117014   7.550   0.860   3.526
 5691TIP3    H217015   7.622   0.757   3.442
 5692TIP3   OH217016   7.479   5.125   1.573
 5692TIP3    H117017   7.410   5.059   1.575
 5692TIP3    H217018   7.558   5.078   1.601
 5693TIP3   OH217019   6.289   7.863   6.299
 5693TIP3    H117020   6.232   7.846   6.224
 5693TIP3    H217021   6.335   7.780   6.315
 5694TIP3   OH217022   6.962   2.910   5.092
 5694TIP3    H117023   7.023   2.846   5.055
 5694TIP3    H217024   6.960   2.890   5.186
 5695TIP3   OH217025   6.818   2.465   1.936
 5695TIP3    H117026   6.879   2.459   1.863
 5695TIP3    H217027   6.733   2.445   1.898
 5696TIP3   OH217028   0.684   3.306   1.993
 5696TIP3    H117029   0.699   3.378   2.054
 5696TIP3    H217030   0.588   3.297   1.990
 5697TIP3   OH217031   4.317   2.572   4.049
 5697TIP3    H117032   4.375   2.638   4.087
 5697TIP3    H217033   4.261   2.622   3.989
 5698TIP3   OH217034   7.306   0.474   5.842
 5698TIP3    H117035   7.335   0.552   5.890
 5698TIP3    H217036   7.287   0.506   5.754
 5699TIP3   OH217037   5.380   7.029   1.613
 5699TIP3    H117038   5.320   7.102   1.596
 5699TIP3    H217039   5.444   7.034   1.542
 5700TIP3   OH217040   4.525   0.884   4.785
 5700TIP3    H117041   4.437   0.897   4.749
 5700TIP3    H217042   4.524   0.794   4.818
 5701TIP3   OH217043   3.623   6.202   5.965
 5701TIP3    H117044   3.536   6.241   5.978
 5701TIP3    H217045   3.604   6.109   5.950
 5702TIP3   OH217046   3.301   5.329   3.054
 5702TIP3    H117047   3.210   5.342   3.027
 5702TIP3    H217048   3.324   5.409   3.102
 5703TIP3   OH217049   3.587   7.070   1.682
 5703TIP3    H117050   3.506   7.020   1.671
 5703TIP3    H217051   3.568   7.154   1.640
 5704TIP3   OH217052   2.404   0.867   3.322
 5704TIP3    H117053   2.336   0.894   3.260
 5704TIP3    H217054   2.357   0.818   3.389
 5705TIP3   OH217055   2.341   5.989   5.154
 5705TIP3    H117056   2.381   5.989   5.241
 5705TIP3    H217057   2.247   5.987   5.170
 5706TIP3   OH217058   7.967   0.192   5.024
 5706TIP3    H117059   7.878   0.196   5.060
 5706TIP3    H217060   8.023   0.211   5.099
 5707TIP3   OH217061   2.511   7.053   5.082
 5707TIP3    H117062   2.534   7.038   5.173
 5707TIP3    H217063   2.431   7.002   5.068
 5708TIP3   OH217064   0.271   2.401   1.083
 5708TIP3    H117065   0.358   2.439   1.093
 5708TIP3    H217066   0.277   2.316   1.127
 5709TIP3   OH217067   1.771   1.335   0.311
 5709TIP3    H117068   1.847   1.328   0.253
 5709TIP3    H217069   1.805   1.377   0.390
 5710TIP3   OH217070   3.432   0.760   3.710
 5710TIP3    H117071   3.354   0.795   3.754
 5710TIP3    H217072   3.400   0.734   3.624
 5711TIP3   OH217073   0.430   2.910   5.821
 5711TIP3    H117074   0.457   2.996   5.788
 5711TIP3    H217075   0.400   2.863   5.743
 5712TIP3   OH217076   1.418   7.608   3.410
 5712TIP3    H117077   1.435   7.526   3.457
 5712TIP3    H217078   1.501   7.655   3.413
 5713TIP3   OH217079   3.655   3.518   3.261
 5713TIP3    H117080   3.586   3.521   3.328
 5713TIP3    H217081   3.642   3.597   3.209
 5714TIP3   OH217082   5.802   2.875   6.421
 5714TIP3    H117083   5.766   2.884   6.509
 5714TIP3    H217084   5.735   2.912   6.364
 5715TIP3   OH217085   0.728   7.527   1.035
 5715TIP3    H117086   0.795   7.527   0.967
 5715TIP3    H217087   0.758   7.593   1.098
 5716TIP3   OH217088   7.535   7.142   0.380
 5716TIP3    H117089   7.501   7.062   0.339
 5716TIP3    H217090   7.463   7.205   0.373
 5717TIP3   OH217091   0.378   0.999   5.692
 5717TIP3    H117092   0.333   0.915   5.686
 5717TIP3    H217093   0.439   1.000   5.619
 5718TIP3   OH217094   3.527   2.308   5.416
 5718TIP3    H117095   3.486   2.384   5.376
 5718TIP3    H217096   3.605   2.292   5.363
 5719TIP3   OH217097   6.655   3.241   0.316
 5719TIP3    H117098   6.740   3.210   0.350
 5719TIP3    H217099   6.622   3.167   0.265
 5720TIP3   OH217100   0.512   4.007   0.386
 5720TIP3    H117101   0.452   4.080   0.402
 5720TIP3    H217102   0.586   4.047   0.339
 5721TIP3   OH217103   3.946   0.690   6.404
 5721TIP3    H117104   3.985   0.660   6.486
 5721TIP3    H217105   3.937   0.610   6.351
 5722TIP3   OH217106   7.972   1.063   2.610
 5722TIP3    H117107   7.877   1.058   2.608
 5722TIP3    H217108   8.000   0.976   2.638
 5723TIP3   OH217109   2.288   2.266   5.357
 5723TIP3    H117110   2.198   2.262   5.326
 5723TIP3    H217111   2.336   2.309   5.286
 5724TIP3   OH217112   5.244   3.725   5.982
 5724TIP3    H117113   5.160   3.739   6.024
 5724TIP3    H217114   5.254   3.800   5.922
 5725TIP3   OH217115   2.130   5.276   1.050
 5725TIP3    H117116   2.090   5.189   1.051
 5725TIP3    H217117   2.109   5.311   0.964
 5726TIP3   OH217118   7.025   7.611   0.313
 5726TIP3    H117119   6.952   7.581   0.366
 5726TIP3    H217120   7.005   7.703   0.294
 5727TIP3   OH217121   0.703   5.512   4.883
 5727TIP3    H117122   0.680   5.573   4.813
 5727TIP3    H217123   0.719   5.429   4.839
 5728TIP3   OH217124   6.600   7.402   2.041
 5728TIP3    H117125   6.514   7.440   2.020
 5728TIP3    H217126   6.579   7.320   2.086
 5729TIP3   OH217127   4.971   0.574   6.353
 5729TIP3    H117128   4.902   0.538   6.297
 5729TIP3    H217129   4.924   0.606   6.430
 5730TIP3   OH217130   7.823   3.790   5.866
 5730TIP3    H117131   7.839   3.725   5.934
 5730TIP3    H217132   7.820   3.739   5.785
 5731TIP3   OH217133   7.631   3.731   0.317
 5731TIP3    H117134   7.659   3.763   0.403
 5731TIP3    H217135   7.713   3.718   0.268
 5732TIP3   OH217136   6.205   7.200   0.073
 5732TIP3    H117137   6.251   7.265   0.022
 5732TIP3    H217138   6.118   7.194   0.032
 5733TIP3   OH217139   2.122   7.321   1.358
 5733TIP3    H117140   2.126   7.300   1.264
 5733TIP3    H217141   2.212   7.316   1.388
 5734TIP3   OH217142   3.028   4.847   3.753
 5734TIP3    H117143   3.100   4.804   3.799
 5734TIP3    H217144   2.968   4.775   3.732
 5735TIP3   OH217145   2.318   7.504   5.630
 5735TIP3    H117146   2.263   7.468   5.699
 5735TIP3    H217147   2.371   7.431   5.599
 5736TIP3   OH217148   1.420   0.532   1.948
 5736TIP3    H117149   1.445   0.446   1.914
 5736TIP3    H217150   1.411   0.519   2.042
 5737TIP3   OH217151   0.334   0.344   6.712
 5737TIP3    H117152   0.266   0.347   6.779
 5737TIP3    H217153   0.384   0.264   6.730
 5738TIP3   OH217154   4.104   1.807   3.325
 5738TIP3    H117155   4.078   1.716   3.314
 5738TIP3    H217156   4.124   1.837   3.236
 5739TIP3   OH217157   3.978   6.188   2.806
 5739TIP3    H117158   3.911   6.249   2.776
 5739TIP3    H217159   4.058   6.216   2.761
 5740TIP3   OH217160   7.287   2.993   4.241
 5740TIP3    H117161   7.368   3.042   4.249
 5740TIP3    H217162   7.229   3.050   4.191
 5741TIP3   OH217163   6.357   0.144   3.903
 5741TIP3    H117164   6.384   0.211   3.840
 5741TIP3    H217165   6.340   0.192   3.984
 5742TIP3   OH217166   2.281   0.942   1.257
 5742TIP3    H117167   2.220   1.013   1.278
 5742TIP3    H217168   2.275   0.932   1.162
 5743TIP3   OH217169   8.217   2.347   5.037
 5743TIP3    H117170   8.173   2.352   5.122
 5743TIP3    H217171   8.185   2.423   4.989
 5744TIP3   OH217172   2.300   2.458   3.938
 5744TIP3    H117173   2.250   2.506   4.003
 5744TIP3    H217174   2.363   2.407   3.989
 5745TIP3   OH217175   1.541   4.133   6.290
 5745TIP3    H117176   1.531   4.228   6.278
 5745TIP3    H217177   1.487   4.095   6.221
 5746TIP3   OH217178   4.939   0.962   1.290
 5746TIP3    H117179   5.010   1.023   1.268
 5746TIP3    H217180   4.984   0.878   1.305
 5747TIP3   OH217181   0.179   4.730   4.488
 5747TIP3    H117182   0.165   4.811   4.536
 5747TIP3    H217183   0.258   4.692   4.525
 5748TIP3   OH217184   5.424   0.835   2.037
 5748TIP3    H117185   5.415   0.930   2.037
 5748TIP3    H217186   5.496   0.817   1.976
 5749TIP3   OH217187   8.062   4.186   1.342
 5749TIP3    H117188   8.038   4.107   1.389
 5749TIP3    H217189   8.060   4.161   1.249
 5750TIP3   OH217190   0.438   4.578   5.391
 5750TIP3    H117191   0.490   4.638   5.338
 5750TIP3    H217192   0.442   4.614   5.479
 5751TIP3   OH217193   1.382   7.441   4.588
 5751TIP3    H117194   1.448   7.386   4.547
 5751TIP3    H217195   1.299   7.405   4.557
 5752TIP3   OH217196   0.986   7.231   5.547
 5752TIP3    H117197   0.950   7.273   5.470
 5752TIP3    H217198   1.057   7.288   5.576
 5753TIP3   OH217199   0.332   5.137   6.799
 5753TIP3    H117200   0.283   5.076   6.742
 5753TIP3    H217201   0.418   5.097   6.808
 5754TIP3   OH217202   4.160   0.163   3.229
 5754TIP3    H117203   4.129   0.077   3.256
 5754TIP3    H217204   4.129   0.174   3.140
 5755TIP3   OH217205   5.061   1.365   0.723
 5755TIP3    H117206   5.123   1.392   0.791
 5755TIP3    H217207   5.116   1.330   0.653
 5756TIP3   OH217208   0.769   1.757   0.629
 5756TIP3    H117209   0.697   1.775   0.569
 5756TIP3    H217210   0.839   1.725   0.573
 5757TIP3   OH217211   4.927   5.075   6.067
 5757TIP3    H117212   4.884   5.137   6.124
 5757TIP3    H217213   4.934   4.994   6.119
 5758TIP3   OH217214   2.811   4.857   0.310
 5758TIP3    H117215   2.825   4.767   0.281
 5758TIP3    H217216   2.769   4.849   0.395
 5759TIP3   OH217217   0.780   7.221   1.751
 5759TIP3    H117218   0.692   7.259   1.755
 5759TIP3    H217219   0.766   7.127   1.752
 5760TIP3   OH217220   3.841   4.912   5.053
 5760TIP3    H117221   3.795   4.970   4.992
 5760TIP3    H217222   3.921   4.887   5.006
 5761TIP3   OH217223   6.414   0.923   3.598
 5761TIP3    H117224   6.423   0.828   3.587
 5761TIP3    H217225   6.496   0.958   3.562
 5762TIP3   OH217226   3.902   7.296   2.404
 5762TIP3    H117227   3.841   7.371   2.404
 5762TIP3    H217228   3.964   7.317   2.474
 5763TIP3   OH217229   0.018   7.435   1.519
 5763TIP3    H117230   0.107   7.405   1.500
 5763TIP3    H217231  -0.039   7.369   1.478
 5764TIP3   OH217232   7.808   2.686   6.508
 5764TIP3    H117233   7.765   2.769   6.489
 5764TIP3    H217234   7.802   2.636   6.426
 5765TIP3   OH217235   8.262   3.528   3.528
 5765TIP3    H117236   8.222   3.490   3.450
 5765TIP3    H217237   8.356   3.511   3.518
 5766TIP3   OH217238   6.733   2.332   5.194
 5766TIP3    H117239   6.826   2.351   5.196
 5766TIP3    H217240   6.711   2.328   5.101
 5767TIP3   OH217241   5.288   1.126   4.679
 5767TIP3    H117242   5.320   1.150   4.592
 5767TIP3    H217243   5.319   1.036   4.691
 5768TIP3   OH217244   0.216   3.842   4.859
 5768TIP3    H117245   0.226   3.747   4.859
 5768TIP3    H217246   0.272   3.872   4.787
 5769TIP3   OH217247   7.163   2.997   2.938
 5769TIP3    H117248   7.136   2.920   2.889
 5769TIP3    H217249   7.226   3.041   2.880
 5770TIP3   OH217250   5.045   1.212   6.177
 5770TIP3    H117251   5.086   1.255   6.252
 5770TIP3    H217252   5.003   1.284   6.129
 5771TIP3   OH217253   7.757   7.129   3.251
 5771TIP3    H117254   7.823   7.061   3.239
 5771TIP3    H217255   7.698   7.119   3.177
 5772TIP3   OH217256   5.354   0.107   1.476
 5772TIP3    H117257   5.338   0.136   1.566
 5772TIP3    H217258   5.397   0.181   1.433
 5773TIP3   OH217259   3.230   4.073   3.605
 5773TIP3    H117260   3.213   4.034   3.690
 5773TIP3    H217261   3.144   4.099   3.573
 5774TIP3   OH217262   5.097   5.762   4.492
 5774TIP3    H117263   5.151   5.699   4.539
 5774TIP3    H217264   5.017   5.714   4.471
 5775TIP3   OH217265   2.673   3.123   2.104
 5775TIP3    H117266   2.697   3.039   2.066
 5775TIP3    H217267   2.588   3.144   2.065
 5776TIP3   OH217268   3.582   3.231   4.167
 5776TIP3    H117269   3.527   3.153   4.164
 5776TIP3    H217270   3.671   3.197   4.173
 5777TIP3   OH217271   2.134   3.495   6.835
 5777TIP3    H117272   2.222   3.516   6.804
 5777TIP3    H217273   2.148   3.452   6.919
 5778TIP3   OH217274   2.871   1.224   3.695
 5778TIP3    H117275   2.848   1.154   3.756
 5778TIP3    H217276   2.816   1.206   3.618
 5779TIP3   OH217277   7.348   2.445   2.277
 5779TIP3    H117278   7.314   2.356   2.279
 5779TIP3    H217279   7.272   2.499   2.253
 5780TIP3   OH217280   3.925   6.261   2.291
 5780TIP3    H117281   3.997   6.228   2.238
 5780TIP3    H217282   3.879   6.182   2.321
 5781TIP3   OH217283   1.881   4.783   1.753
 5781TIP3    H117284   1.917   4.715   1.810
 5781TIP3    H217285   1.958   4.835   1.728
 5782TIP3   OH217286   5.201   5.151   3.998
 5782TIP3    H117287   5.201   5.172   3.904
 5782TIP3    H217288   5.181   5.234   4.041
 5783TIP3   OH217289   5.701   5.609   6.738
 5783TIP3    H117290   5.677   5.655   6.657
 5783TIP3    H217291   5.795   5.622   6.746
 5784TIP3   OH217292   7.804   6.293   0.798
 5784TIP3    H117293   7.722   6.267   0.756
 5784TIP3    H217294   7.860   6.323   0.726
 5785TIP3   OH217295   1.630   5.367   0.715
 5785TIP3    H117296   1.709   5.391   0.667
 5785TIP3    H217297   1.657   5.368   0.807
 5786TIP3   OH217298   5.204   1.200   0.541
 5786TIP3    H117299   5.221   1.196   0.635
 5786TIP3    H217300   5.289   1.224   0.503
 5787TIP3   OH217301   6.829   2.554   1.271
 5787TIP3    H117302   6.842   2.505   1.190
 5787TIP3    H217303   6.823   2.646   1.243
 5788TIP3   OH217304   2.317   3.560   3.164
 5788TIP3    H117305   2.386   3.627   3.163
 5788TIP3    H217306   2.276   3.570   3.250
 5789TIP3   OH217307   3.976   3.358   2.472
 5789TIP3    H117308   4.036   3.285   2.486
 5789TIP3    H217309   3.897   3.334   2.520
 5790TIP3   OH217310   1.743   4.455   3.645
 5790TIP3    H117311   1.745   4.401   3.566
 5790TIP3    H217312   1.650   4.458   3.669
 5791TIP3   OH217313   5.797   3.516   4.107
 5791TIP3    H117314   5.812   3.441   4.048
 5791TIP3    H217315   5.852   3.586   4.071
 5792TIP3   OH217316   8.179   1.104   4.299
 5792TIP3    H117317   8.253   1.052   4.266
 5792TIP3    H217318   8.219   1.176   4.347
 5793TIP3   OH217319   5.527   3.124   2.657
 5793TIP3    H117320   5.493   3.211   2.635
 5793TIP3    H217321   5.544   3.128   2.752
 5794TIP3   OH217322   2.974   1.226   2.864
 5794TIP3    H117323   2.910   1.160   2.890
 5794TIP3    H217324   2.971   1.292   2.934
 5795TIP3   OH217325   2.217   5.949   6.223
 5795TIP3    H117326   2.169   5.953   6.306
 5795TIP3    H217327   2.205   6.035   6.184
 5796TIP3   OH217328   4.833   4.060   5.694
 5796TIP3    H117329   4.779   4.038   5.770
 5796TIP3    H217330   4.802   4.002   5.625
 5797TIP3   OH217331   6.499   1.283   0.575
 5797TIP3    H117332   6.471   1.201   0.535
 5797TIP3    H217333   6.555   1.324   0.508
 5798TIP3   OH217334   1.115   0.739   3.190
 5798TIP3    H117335   1.138   0.657   3.232
 5798TIP3    H217336   1.045   0.776   3.244
 5799TIP3   OH217337   6.072   5.885   3.285
 5799TIP3    H117338   6.101   5.934   3.362
 5799TIP3    H217339   6.127   5.807   3.284
 5800TIP3   OH217340   5.940   3.552   4.476
 5800TIP3    H117341   5.868   3.493   4.451
 5800TIP3    H217342   6.003   3.495   4.520
 5801TIP3   OH217343   2.506   6.429   5.364
 5801TIP3    H117344   2.420   6.396   5.340
 5801TIP3    H217345   2.567   6.363   5.330
 5802TIP3   OH217346   1.695   2.405   2.198
 5802TIP3    H117347   1.637   2.480   2.182
 5802TIP3    H217348   1.767   2.440   2.250
 5803TIP3   OH217349   5.945   4.235   3.852
 5803TIP3    H117350   5.851   4.245   3.836
 5803TIP3    H217351   5.950   4.186   3.934
 5804TIP3   OH217352   1.501   0.692   0.076
 5804TIP3    H117353   1.424   0.665   0.127
 5804TIP3    H217354   1.575   0.656   0.124
 5805TIP3   OH217355   6.602   6.046   0.461
 5805TIP3    H117356   6.508   6.064   0.466
 5805TIP3    H217357   6.629   6.034   0.552
 5806TIP3   OH217358   3.562   7.443   4.665
 5806TIP3    H117359   3.494   7.505   4.642
 5806TIP3    H217360   3.558   7.375   4.598
 5807TIP3   OH217361   6.561   0.362   0.430
 5807TIP3    H117362   6.573   0.413   0.349
 5807TIP3    H217363   6.509   0.420   0.487
 5808TIP3   OH217364   2.659   0.667   6.334
 5808TIP3    H117365   2.621   0.747   6.370
 5808TIP3    H217366   2.686   0.691   6.246
 5809TIP3   OH217367   7.920   2.881   1.080
 5809TIP3    H117368   7.977   2.806   1.066
 5809TIP3    H217369   7.842   2.864   1.027
 5810TIP3   OH217370   6.409   3.237   2.342
 5810TIP3    H117371   6.390   3.222   2.250
 5810TIP3    H217372   6.487   3.293   2.343
 5811TIP3   OH217373   1.614   5.184   2.400
 5811TIP3    H117374   1.647   5.097   2.421
 5811TIP3    H217375   1.679   5.244   2.437
 5812TIP3   OH217376   1.692   1.018   0.627
 5812TIP3    H117377   1.751   1.054   0.694
 5812TIP3    H217378   1.702   1.078   0.553
 5813TIP3   OH217379   0.511   6.623   4.349
 5813TIP3    H117380   0.529   6.538   4.310
 5813TIP3    H217381   0.598   6.661   4.365
 5814TIP3   OH217382   2.067   1.571   3.558
 5814TIP3    H117383   2.119   1.504   3.603
 5814TIP3    H217384   2.121   1.650   3.561
 5815TIP3   OH217385   1.041   7.048   1.198
 5815TIP3    H117386   1.132   7.045   1.168
 5815TIP3    H217387   0.994   7.089   1.126
 5816TIP3   OH217388   2.104   0.042   0.274
 5816TIP3    H117389   2.144   0.087   0.199
 5816TIP3    H217390   2.013   0.029   0.248
 5817TIP3   OH217391   3.137   7.161   4.551
 5817TIP3    H117392   3.053   7.130   4.519
 5817TIP3    H217393   3.144   7.125   4.639
 5818TIP3   OH217394   7.492   5.399   4.571
 5818TIP3    H117395   7.455   5.450   4.643
 5818TIP3    H217396   7.441   5.318   4.570
 5819TIP3   OH217397   7.693   2.162   5.732
 5819TIP3    H117398   7.680   2.112   5.652
 5819TIP3    H217399   7.675   2.099   5.802
 5820TIP3   OH217400   2.454   5.037   1.385
 5820TIP3    H117401   2.547   5.014   1.383
 5820TIP3    H217402   2.438   5.081   1.302
 5821TIP3   OH217403   0.250   2.217   4.199
 5821TIP3    H117404   0.286   2.246   4.115
 5821TIP3    H217405   0.327   2.196   4.252
 5822TIP3   OH217406   2.339   1.253   2.970
 5822TIP3    H117407   2.346   1.242   2.875
 5822TIP3    H217408   2.266   1.314   2.982
 5823TIP3   OH217409   4.374   3.554   3.791
 5823TIP3    H117410   4.340   3.624   3.846
 5823TIP3    H217411   4.301   3.529   3.734
 5824TIP3   OH217412   0.925   3.609   0.056
 5824TIP3    H117413   0.988   3.559   0.004
 5824TIP3    H217414   0.877   3.543   0.106
 5825TIP3   OH217415   4.887   2.042   4.823
 5825TIP3    H117416   4.828   1.967   4.832
 5825TIP3    H217417   4.888   2.082   4.910
 5826TIP3   OH217418   7.720   1.287   6.439
 5826TIP3    H117419   7.813   1.292   6.462
 5826TIP3    H217420   7.710   1.201   6.398
 5827TIP3   OH217421   7.779   3.595   6.100
 5827TIP3    H117422   7.697   3.602   6.149
 5827TIP3    H217423   7.764   3.526   6.036
 5828TIP3   OH217424   6.074   2.513   1.224
 5828TIP3    H117425   6.153   2.471   1.189
 5828TIP3    H217426   6.086   2.513   1.319
 5829TIP3   OH217427   2.210   6.659   2.491
 5829TIP3    H117428   2.137   6.715   2.464
 5829TIP3    H217429   2.200   6.579   2.439
 5830TIP3   OH217430   4.384   2.478   1.707
 5830TIP3    H117431   4.312   2.530   1.671
 5830TIP3    H217432   4.340   2.407   1.754
 5831TIP3   OH217433   7.639   2.310   0.057
 5831TIP3    H117434   7.720   2.262   0.071
 5831TIP3    H217435   7.665   2.402   0.065
 5832TIP3   OH217436   5.865   5.321   6.782
 5832TIP3    H117437   5.798   5.278   6.836
 5832TIP3    H217438   5.947   5.307   6.830
 5833TIP3   OH217439   1.017   6.189   0.117
 5833TIP3    H117440   0.930   6.229   0.124
 5833TIP3    H217441   1.075   6.249   0.163
 5834TIP3   OH217442   2.432   2.016   5.374
 5834TIP3    H117443   2.390   2.097   5.403
 5834TIP3    H217444   2.525   2.039   5.367
 5835TIP3   OH217445   5.619   4.301   4.347
 5835TIP3    H117446   5.688   4.366   4.344
 5835TIP3    H217447   5.600   4.290   4.441
 5836TIP3   OH217448   3.149   1.770   3.253
 5836TIP3    H117449   3.083   1.715   3.295
 5836TIP3    H217450   3.232   1.739   3.290
 5837TIP3   OH217451   7.974   4.651   3.588
 5837TIP3    H117452   7.989   4.636   3.681
 5837TIP3    H217453   7.879   4.643   3.577
 5838TIP3   OH217454   4.249   5.838   1.850
 5838TIP3    H117455   4.252   5.931   1.874
 5838TIP3    H217456   4.329   5.801   1.887
 5839TIP3   OH217457   5.753   0.262   5.204
 5839TIP3    H117458   5.713   0.242   5.289
 5839TIP3    H217459   5.731   0.186   5.149
 5840TIP3   OH217460   1.909   5.510   6.615
 5840TIP3    H117461   1.929   5.428   6.571
 5840TIP3    H217462   1.911   5.577   6.546
 5841TIP3   OH217463   7.046   4.208   2.799
 5841TIP3    H117464   6.965   4.195   2.749
 5841TIP3    H217465   7.025   4.176   2.887
 5842TIP3   OH217466   6.460   6.984   0.954
 5842TIP3    H117467   6.437   7.011   1.042
 5842TIP3    H217468   6.516   6.907   0.966
 5843TIP3   OH217469   6.224   4.615   2.169
 5843TIP3    H117470   6.234   4.537   2.115
 5843TIP3    H217471   6.232   4.583   2.259
 5844TIP3   OH217472   0.426   3.262   3.392
 5844TIP3    H117473   0.439   3.301   3.479
 5844TIP3    H217474   0.424   3.168   3.409
 5845TIP3   OH217475   7.034   5.107   1.505
 5845TIP3    H117476   7.098   5.044   1.472
 5845TIP3    H217477   7.001   5.152   1.427
 5846TIP3   OH217478   3.679   3.007   6.307
 5846TIP3    H117479   3.610   2.956   6.265
 5846TIP3    H217480   3.760   2.971   6.273
 5847TIP3   OH217481   5.006   6.944   5.533
 5847TIP3    H117482   4.974   7.025   5.573
 5847TIP3    H217483   4.970   6.874   5.588
 5848TIP3   OH217484   1.707   5.226   5.126
 5848TIP3    H117485   1.657   5.276   5.191
 5848TIP3    H217486   1.765   5.290   5.086
 5849TIP3   OH217487   1.820   5.909   3.083
 5849TIP3    H117488   1.824   5.927   3.177
 5849TIP3    H217489   1.841   5.816   3.076
 5850TIP3   OH217490   6.222   2.405   4.362
 5850TIP3    H117491   6.208   2.422   4.269
 5850TIP3    H217492   6.161   2.464   4.406
 5851TIP3   OH217493   0.723   1.781   6.599
 5851TIP3    H117494   0.666   1.858   6.597
 5851TIP3    H217495   0.771   1.789   6.682
 5852TIP3   OH217496   2.070   3.672   0.147
 5852TIP3    H117497   2.015   3.593   0.146
 5852TIP3    H217498   2.130   3.659   0.221
 5853TIP3   OH217499   2.012   7.302   3.389
 5853TIP3    H117500   1.998   7.211   3.364
 5853TIP3    H217501   1.927   7.344   3.378
 5854TIP3   OH217502   1.740   6.614   6.725
 5854TIP3    H117503   1.706   6.525   6.713
 5854TIP3    H217504   1.722   6.634   6.817
 5855TIP3   OH217505   4.055   7.639   5.007
 5855TIP3    H117506   4.043   7.626   5.101
 5855TIP3    H217507   3.991   7.581   4.967
 5856TIP3   OH217508   7.811   4.310   5.452
 5856TIP3    H117509   7.889   4.361   5.433
 5856TIP3    H217510   7.771   4.293   5.366
 5857TIP3   OH217511   0.566   2.783   6.196
 5857TIP3    H117512   0.614   2.863   6.214
 5857TIP3    H217513   0.586   2.763   6.105
 5858TIP3   OH217514   4.713   7.525   3.645
 5858TIP3    H117515   4.736   7.514   3.737
 5858TIP3    H217516   4.719   7.619   3.630
 5859TIP3   OH217517   0.794   3.587   5.237
 5859TIP3    H117518   0.793   3.493   5.215
 5859TIP3    H217519   0.742   3.628   5.168
 5860TIP3   OH217520   8.112   7.015   2.498
 5860TIP3    H117521   8.172   7.082   2.529
 5860TIP3    H217522   8.165   6.959   2.442
 5861TIP3   OH217523   3.870   4.883   6.210
 5861TIP3    H117524   3.862   4.790   6.229
 5861TIP3    H217525   3.951   4.910   6.253
 5862TIP3   OH217526   2.282   7.365   0.152
 5862TIP3    H117527   2.357   7.419   0.127
 5862TIP3    H217528   2.270   7.382   0.245
 5863TIP3   OH217529   0.737   0.879   5.522
 5863TIP3    H117530   0.801   0.894   5.453
 5863TIP3    H217531   0.756   0.945   5.588
 5864TIP3   OH217532   0.458   6.220   2.946
 5864TIP3    H117533   0.421   6.132   2.941
 5864TIP3    H217534   0.553   6.207   2.942
 5865TIP3   OH217535   4.914   2.629   1.167
 5865TIP3    H117536   5.005   2.630   1.194
 5865TIP3    H217537   4.916   2.622   1.072
 5866TIP3   OH217538   0.573   2.216   3.701
 5866TIP3    H117539   0.588   2.255   3.787
 5866TIP3    H217540   0.480   2.194   3.700
 5867TIP3   OH217541   3.917   0.934   4.179
 5867TIP3    H117542   3.829   0.909   4.153
 5867TIP3    H217543   3.971   0.859   4.155
 5868TIP3   OH217544   0.327   6.154   5.770
 5868TIP3    H117545   0.299   6.241   5.742
 5868TIP3    H217546   0.259   6.125   5.831
 5869TIP3   OH217547   4.365   0.975   2.868
 5869TIP3    H117548   4.418   0.930   2.803
 5869TIP3    H217549   4.335   0.906   2.927
 5870TIP3   OH217550   4.481   0.695   3.962
 5870TIP3    H117551   4.413   0.751   3.925
 5870TIP3    H217552   4.488   0.722   4.053
 5871TIP3   OH217553   1.546   1.496   3.361
 5871TIP3    H117554   1.482   1.545   3.309
 5871TIP3    H217555   1.618   1.479   3.300
 5872TIP3   OH217556   8.424   5.849   1.613
 5872TIP3    H117557   8.435   5.785   1.543
 5872TIP3    H217558   8.392   5.798   1.687
 5873TIP3   OH217559   6.616   5.141   6.895
 5873TIP3    H117560   6.630   5.167   6.804
 5873TIP3    H217561   6.674   5.067   6.909
 5874TIP3   OH217562   1.339   4.263   6.768
 5874TIP3    H117563   1.290   4.222   6.697
 5874TIP3    H217564   1.305   4.352   6.773
 5875TIP3   OH217565   8.010   6.307   5.211
 5875TIP3    H117566   8.000   6.350   5.126
 5875TIP3    H217567   7.984   6.216   5.196
 5876TIP3   OH217568   7.784   6.875   5.765
 5876TIP3    H117569   7.831   6.900   5.845
 5876TIP3    H217570   7.807   6.943   5.702
 5877TIP3   OH217571   2.241   5.054   1.866
 5877TIP3    H117572   2.206   5.061   1.777
 5877TIP3    H217573   2.249   4.960   1.881
 5878TIP3   OH217574   7.995   7.188   2.191
 5878TIP3    H117575   8.034   7.110   2.152
 5878TIP3    H217576   7.963   7.158   2.276
 5879TIP3   OH217577   7.844   6.252   1.147
 5879TIP3    H117578   7.813   6.178   1.094
 5879TIP3    H217579   7.771   6.314   1.145
 5880TIP3   OH217580   5.505   4.186   1.246
 5880TIP3    H117581   5.469   4.272   1.223
 5880TIP3    H217582   5.454   4.124   1.193
 5881TIP3   OH217583   1.980   7.490   1.109
 5881TIP3    H117584   1.995   7.580   1.139
 5881TIP3    H217585   2.045   7.476   1.040
 5882TIP3   OH217586   1.714   4.168   0.422
 5882TIP3    H117587   1.800   4.127   0.419
 5882TIP3    H217588   1.681   4.147   0.510
 5883TIP3   OH217589   8.335   2.006   4.266
 5883TIP3    H117590   8.403   2.052   4.317
 5883TIP3    H217591   8.255   2.019   4.317
 5884TIP3   OH217592   5.035   5.705   3.491
 5884TIP3    H117593   5.084   5.728   3.412
 5884TIP3    H217594   5.059   5.773   3.555
 5885TIP3   OH217595   2.074   0.728   6.490
 5885TIP3    H117596   2.091   0.808   6.441
 5885TIP3    H217597   2.145   0.669   6.466
 5886TIP3   OH217598   4.534   0.803   1.495
 5886TIP3    H117599   4.448   0.839   1.472
 5886TIP3    H217600   4.596   0.864   1.455
 5887TIP3   OH217601   5.686   0.473   6.140
 5887TIP3    H117602   5.749   0.509   6.203
 5887TIP3    H217603   5.632   0.413   6.192
 5888TIP3   OH217604   2.116   0.258   2.841
 5888TIP3    H117605   2.203   0.295   2.828
 5888TIP3    H217606   2.092   0.281   2.931
 5889TIP3   OH217607   6.488   6.852   4.933
 5889TIP3    H117608   6.467   6.821   4.845
 5889TIP3    H217609   6.581   6.876   4.929
 5890TIP3   OH217610   4.158   1.167   2.345
 5890TIP3    H117611   4.096   1.240   2.354
 5890TIP3    H217612   4.167   1.155   2.250
 5891TIP3   OH217613   3.072   1.331   1.704
 5891TIP3    H117614   3.004   1.266   1.686
 5891TIP3    H217615   3.136   1.319   1.634
 5892TIP3   OH217616   3.663   5.064   1.037
 5892TIP3    H117617   3.575   5.037   1.012
 5892TIP3    H217618   3.673   5.036   1.128
 5893TIP3   OH217619   2.443   4.945   3.461
 5893TIP3    H117620   2.465   5.004   3.533
 5893TIP3    H217621   2.526   4.927   3.419
 5894TIP3   OH217622   3.276   6.206   3.906
 5894TIP3    H117623   3.229   6.134   3.949
 5894TIP3    H217624   3.220   6.283   3.920
 5895TIP3   OH217625   0.017   0.554   3.938
 5895TIP3    H117626   0.089   0.510   3.983
 5895TIP3    H217627  -0.022   0.486   3.883
 5896TIP3   OH217628   5.568   3.555   3.363
 5896TIP3    H117629   5.654   3.595   3.380
 5896TIP3    H217630   5.588   3.463   3.343
 5897TIP3   OH217631   2.391   5.293   2.538
 5897TIP3    H117632   2.326   5.361   2.519
 5897TIP3    H217633   2.386   5.233   2.464
 5898TIP3   OH217634   1.843   4.956   2.995
 5898TIP3    H117635   1.852   5.045   2.960
 5898TIP3    H217636   1.839   4.967   3.090
 5899TIP3   OH217637   4.483   5.441   5.093
 5899TIP3    H117638   4.518   5.387   5.165
 5899TIP3    H217639   4.557   5.451   5.034
 5900TIP3   OH217640   7.467   1.817   6.773
 5900TIP3    H117641   7.527   1.889   6.754
 5900TIP3    H217642   7.435   1.789   6.687
 5901TIP3   OH217643   6.632   2.921   1.826
 5901TIP3    H117644   6.585   2.946   1.905
 5901TIP3    H217645   6.567   2.877   1.771
 5902TIP3   OH217646   1.936   2.639   2.750
 5902TIP3    H117647   1.922   2.641   2.655
 5902TIP3    H217648   1.936   2.546   2.772
 5903TIP3   OH217649   5.812   6.261   4.484
 5903TIP3    H117650   5.841   6.182   4.530
 5903TIP3    H217651   5.889   6.288   4.433
 5904TIP3   OH217652   5.988   5.079   0.891
 5904TIP3    H117653   6.009   4.987   0.905
 5904TIP3    H217654   5.923   5.078   0.820
 5905TIP3   OH217655   8.113   1.477   2.168
 5905TIP3    H117656   8.035   1.422   2.160
 5905TIP3    H217657   8.183   1.425   2.128
 5906TIP3   OH217658   5.674   4.344   4.103
 5906TIP3    H117659   5.668   4.440   4.109
 5906TIP3    H217660   5.642   4.313   4.188
 5907TIP3   OH217661   1.888   1.124   4.271
 5907TIP3    H117662   1.813   1.066   4.261
 5907TIP3    H217663   1.963   1.065   4.281
 5908TIP3   OH217664   6.668   0.453   0.691
 5908TIP3    H117665   6.688   0.436   0.599
 5908TIP3    H217666   6.647   0.546   0.694
 5909TIP3   OH217667   1.186   6.989   3.424
 5909TIP3    H117668   1.140   7.072   3.410
 5909TIP3    H217669   1.158   6.933   3.352
 5910TIP3   OH217670   1.641   5.968   5.821
 5910TIP3    H117671   1.648   5.982   5.915
 5910TIP3    H217672   1.575   6.031   5.792
 5911TIP3   OH217673   7.898   5.306   3.641
 5911TIP3    H117674   7.934   5.371   3.581
 5911TIP3    H217675   7.916   5.222   3.599
 5912TIP3   OH217676   5.656   4.713   3.813
 5912TIP3    H117677   5.750   4.728   3.805
 5912TIP3    H217678   5.637   4.644   3.750
 5913TIP3   OH217679   1.621   6.709   3.048
 5913TIP3    H117680   1.547   6.684   2.993
 5913TIP3    H217681   1.598   6.797   3.080
 5914TIP3   OH217682   8.117   7.858   6.575
 5914TIP3    H117683   8.070   7.870   6.658
 5914TIP3    H217684   8.084   7.775   6.540
 5915TIP3   OH217685   7.922   2.537   4.817
 5915TIP3    H117686   7.992   2.479   4.786
 5915TIP3    H217687   7.888   2.577   4.737
 5916TIP3   OH217688   1.180   0.896   1.446
 5916TIP3    H117689   1.175   0.960   1.375
 5916TIP3    H217690   1.246   0.931   1.506
 5917TIP3   OH217691   5.792   4.591   0.026
 5917TIP3    H117692   5.751   4.532   0.089
 5917TIP3    H217693   5.812   4.536  -0.050
 5918TIP3   OH217694   8.305   0.649   2.518
 5918TIP3    H117695   8.373   0.709   2.550
 5918TIP3    H217696   8.260   0.700   2.450
 5919TIP3   OH217697   5.668   6.688   4.267
 5919TIP3    H117698   5.728   6.637   4.214
 5919TIP3    H217699   5.698   6.778   4.257
 5920TIP3   OH217700   1.242   1.188   3.229
 5920TIP3    H117701   1.319   1.133   3.243
 5920TIP3    H217702   1.247   1.255   3.298
 5921TIP3   OH217703   0.501   2.139   4.321
 5921TIP3    H117704   0.533   2.078   4.388
 5921TIP3    H217705   0.570   2.204   4.313
 5922TIP3   OH217706   2.475   0.468   6.484
 5922TIP3    H117707   2.456   0.396   6.545
 5922TIP3    H217708   2.558   0.504   6.515
 5923TIP3   OH217709   1.137   1.589   0.731
 5923TIP3    H117710   1.062   1.648   0.744
 5923TIP3    H217711   1.212   1.639   0.764
 5924TIP3   OH217712   6.591   3.593   1.211
 5924TIP3    H117713   6.533   3.645   1.267
 5924TIP3    H217714   6.544   3.510   1.198
 5925TIP3   OH217715   8.163   1.859   2.523
 5925TIP3    H117716   8.092   1.919   2.502
 5925TIP3    H217717   8.137   1.776   2.484
 5926TIP3   OH217718   0.144   1.967   4.105
 5926TIP3    H117719   0.180   2.050   4.137
 5926TIP3    H217720   0.055   1.964   4.140
 5927TIP3   OH217721   7.381   0.205   0.845
 5927TIP3    H117722   7.432   0.246   0.915
 5927TIP3    H217723   7.447   0.161   0.791
 5928TIP3   OH217724   4.824   0.078   6.841
 5928TIP3    H117725   4.802   0.053   6.931
 5928TIP3    H217726   4.869   0.162   6.850
 5929TIP3   OH217727   3.195   2.767   5.337
 5929TIP3    H117728   3.180   2.677   5.367
 5929TIP3    H217729   3.156   2.769   5.249
 5930TIP3   OH217730   3.526   2.710   4.433
 5930TIP3    H117731   3.498   2.791   4.476
 5930TIP3    H217732   3.612   2.731   4.397
 5931TIP3   OH217733   6.801   3.124   2.848
 5931TIP3    H117734   6.892   3.119   2.816
 5931TIP3    H217735   6.776   3.033   2.861
 5932TIP3   OH217736   7.897   3.523   1.765
 5932TIP3    H117737   7.866   3.435   1.788
 5932TIP3    H217738   7.832   3.582   1.805
 5933TIP3   OH217739   4.935   3.164   6.552
 5933TIP3    H117740   4.990   3.111   6.495
 5933TIP3    H217741   4.864   3.195   6.497
 5934TIP3   OH217742   7.431   1.936   5.013
 5934TIP3    H117743   7.516   1.897   4.996
 5934TIP3    H217744   7.405   1.976   4.930
 5935TIP3   OH217745   7.779   6.621   5.603
 5935TIP3    H117746   7.831   6.552   5.644
 5935TIP3    H217747   7.757   6.586   5.516
 5936TIP3   OH217748   6.234   2.396   4.083
 5936TIP3    H117749   6.313   2.341   4.082
 5936TIP3    H217750   6.191   2.377   4.000
 5937TIP3   OH217751   4.530   5.781   2.301
 5937TIP3    H117752   4.554   5.724   2.373
 5937TIP3    H217753   4.438   5.761   2.284
 5938TIP3   OH217754   2.777   3.968   6.753
 5938TIP3    H117755   2.774   4.059   6.784
 5938TIP3    H217756   2.864   3.959   6.715
 5939TIP3   OH217757   8.161   4.503   4.485
 5939TIP3    H117758   8.091   4.547   4.534
 5939TIP3    H217759   8.120   4.476   4.403
 5940TIP3   OH217760   2.369   4.254   1.421
 5940TIP3    H117761   2.307   4.317   1.382
 5940TIP3    H217762   2.391   4.195   1.350
 5941TIP3   OH217763   5.320   0.054   2.008
 5941TIP3    H117764   5.281   0.109   2.076
 5941TIP3    H217765   5.359  -0.019   2.056
 5942TIP3   OH217766   3.200   0.623   0.105
 5942TIP3    H117767   3.240   0.693   0.157
 5942TIP3    H217768   3.106   0.634   0.120
 5943TIP3   OH217769   2.713   1.641   4.714
 5943TIP3    H117770   2.724   1.677   4.802
 5943TIP3    H217771   2.735   1.548   4.724
 5944TIP3   OH217772   1.813   2.623   0.349
 5944TIP3    H117773   1.833   2.530   0.359
 5944TIP3    H217774   1.895   2.668   0.370
 5945TIP3   OH217775   5.952   7.066   6.784
 5945TIP3    H117776   5.918   7.141   6.832
 5945TIP3    H217777   5.934   7.085   6.692
 5946TIP3   OH217778   3.418   5.740   5.132
 5946TIP3    H117779   3.425   5.808   5.199
 5946TIP3    H217780   3.409   5.659   5.182
 5947TIP3   OH217781   0.060   2.775   5.278
 5947TIP3    H117782   0.034   2.785   5.186
 5947TIP3    H217783   0.075   2.681   5.288
 5948TIP3   OH217784   3.767   5.904   0.810
 5948TIP3    H117785   3.823   5.896   0.733
 5948TIP3    H217786   3.689   5.949   0.779
 5949TIP3   OH217787   5.082   3.839   4.957
 5949TIP3    H117788   5.169   3.797   4.956
 5949TIP3    H217789   5.033   3.792   4.889
 5950TIP3   OH217790   0.527   5.215   4.966
 5950TIP3    H117791   0.621   5.205   4.979
 5950TIP3    H217792   0.497   5.264   5.042
 5951TIP3   OH217793   3.696   7.364   2.155
 5951TIP3    H117794   3.751   7.286   2.144
 5951TIP3    H217795   3.647   7.348   2.235
 5952TIP3   OH217796   7.846   5.313   6.753
 5952TIP3    H117797   7.891   5.276   6.829
 5952TIP3    H217798   7.880   5.402   6.746
 5953TIP3   OH217799   4.092   3.019   0.474
 5953TIP3    H117800   4.182   2.987   0.478
 5953TIP3    H217801   4.089   3.090   0.538
 5954TIP3   OH217802   2.335   1.076   5.616
 5954TIP3    H117803   2.382   1.050   5.695
 5954TIP3    H217804   2.382   1.153   5.584
 5955TIP3   OH217805   6.872   4.332   2.468
 5955TIP3    H117806   6.943   4.346   2.406
 5955TIP3    H217807   6.838   4.245   2.447
 5956TIP3   OH217808   0.140   1.449   4.296
 5956TIP3    H117809   0.216   1.465   4.352
 5956TIP3    H217810   0.144   1.518   4.229
 5957TIP3   OH217811   5.775   4.828   6.768
 5957TIP3    H117812   5.751   4.835   6.675
 5957TIP3    H217813   5.736   4.746   6.797
 5958TIP3   OH217814   2.713   4.555   0.491
 5958TIP3    H117815   2.694   4.644   0.520
 5958TIP3    H217816   2.646   4.501   0.533
 5959TIP3   OH217817   5.905   3.719   0.858
 5959TIP3    H117818   5.955   3.695   0.780
 5959TIP3    H217819   5.876   3.809   0.842
 5960TIP3   OH217820   5.746   5.547   3.527
 5960TIP3    H117821   5.764   5.562   3.620
 5960TIP3    H217822   5.780   5.459   3.511
 5961TIP3   OH217823   1.239   7.548   3.960
 5961TIP3    H117824   1.246   7.572   3.867
 5961TIP3    H217825   1.162   7.490   3.963
 5962TIP3   OH217826   8.063   4.558   5.610
 5962TIP3    H117827   8.124   4.632   5.607
 5962TIP3    H217828   8.102   4.493   5.550
 5963TIP3   OH217829   2.730   2.969   2.347
 5963TIP3    H117830   2.800   3.010   2.397
 5963TIP3    H217831   2.706   3.035   2.281
 5964TIP3   OH217832   4.081   0.325   2.360
 5964TIP3    H117833   4.049   0.411   2.384
 5964TIP3    H217834   4.048   0.267   2.429
 5965TIP3   OH217835   3.104   2.099   5.479
 5965TIP3    H117836   3.103   2.013   5.522
 5965TIP3    H217837   3.158   2.154   5.536
 5966TIP3   OH217838   1.098   3.224   0.085
 5966TIP3    H117839   1.177   3.170   0.085
 5966TIP3    H217840   1.029   3.165   0.114
 5967TIP3   OH217841   8.303   4.316   3.632
 5967TIP3    H117842   8.307   4.395   3.685
 5967TIP3    H217843   8.210   4.303   3.615
 5968TIP3   OH217844   5.968   5.210   2.569
 5968TIP3    H117845   5.923   5.290   2.595
 5968TIP3    H217846   6.008   5.178   2.649
 5969TIP3   OH217847   3.840   6.227   6.128
 5969TIP3    H117848   3.833   6.309   6.177
 5969TIP3    H217849   3.756   6.217   6.085
 5970TIP3   OH217850   3.776   7.721   0.046
 5970TIP3    H117851   3.736   7.673   0.118
 5970TIP3    H217852   3.869   7.699   0.050
 5971TIP3   OH217853   5.556   0.391   1.954
 5971TIP3    H117854   5.558   0.425   1.865
 5971TIP3    H217855   5.493   0.319   1.952
 5972TIP3   OH217856   2.485   5.479   6.543
 5972TIP3    H117857   2.579   5.478   6.525
 5972TIP3    H217858   2.475   5.543   6.613
 5973TIP3   OH217859   3.507   5.459   3.957
 5973TIP3    H117860   3.476   5.469   3.866
 5973TIP3    H217861   3.520   5.549   3.987
 5974TIP3   OH217862   3.103   5.913   0.450
 5974TIP3    H117863   3.077   5.826   0.480
 5974TIP3    H217864   3.110   5.965   0.531
 5975TIP3   OH217865   3.103   6.267   4.563
 5975TIP3    H117866   3.167   6.332   4.535
 5975TIP3    H217867   3.154   6.204   4.615
 5976TIP3   OH217868   2.551   6.071   2.789
 5976TIP3    H117869   2.456   6.072   2.786
 5976TIP3    H217870   2.572   6.005   2.855
 5977TIP3   OH217871   2.746   1.584   1.621
 5977TIP3    H117872   2.664   1.542   1.594
 5977TIP3    H217873   2.718   1.663   1.667
 5978TIP3   OH217874   7.816   6.343   2.981
 5978TIP3    H117875   7.910   6.360   2.976
 5978TIP3    H217876   7.785   6.356   2.891
 5979TIP3   OH217877   7.221   7.040   3.831
 5979TIP3    H117878   7.127   7.057   3.818
 5979TIP3    H217879   7.254   7.121   3.870
 5980TIP3   OH217880   1.567   4.357   0.267
 5980TIP3    H117881   1.609   4.300   0.331
 5980TIP3    H217882   1.631   4.426   0.249
 5981TIP3   OH217883   7.174   4.767   0.472
 5981TIP3    H117884   7.246   4.726   0.423
 5981TIP3    H217885   7.208   4.854   0.496
 5982TIP3   OH217886   5.259   0.584   4.784
 5982TIP3    H117887   5.284   0.569   4.875
 5982TIP3    H217888   5.314   0.524   4.733
 5983TIP3   OH217889   4.603   6.043   2.383
 5983TIP3    H117890   4.571   5.953   2.371
 5983TIP3    H217891   4.692   6.032   2.416
 5984TIP3   OH217892   1.244   6.776   5.943
 5984TIP3    H117893   1.194   6.701   5.909
 5984TIP3    H217894   1.315   6.787   5.879
 5985TIP3   OH217895   4.079   0.118   1.550
 5985TIP3    H117896   4.046   0.164   1.626
 5985TIP3    H217897   4.161   0.163   1.528
 5986TIP3   OH217898   0.191   2.414   6.667
 5986TIP3    H117899   0.146   2.498   6.671
 5986TIP3    H217900   0.250   2.415   6.742
 5987TIP3   OH217901   8.138   4.714   1.596
 5987TIP3    H117902   8.113   4.708   1.504
 5987TIP3    H217903   8.218   4.661   1.603
 5988TIP3   OH217904   5.035   6.997   0.345
 5988TIP3    H117905   5.112   7.030   0.297
 5988TIP3    H217906   5.001   7.074   0.391
 5989TIP3   OH217907   1.877   3.130   4.930
 5989TIP3    H117908   1.935   3.088   4.866
 5989TIP3    H217909   1.791   3.128   4.889
 5990TIP3   OH217910   3.887   5.301   1.886
 5990TIP3    H117911   3.849   5.383   1.917
 5990TIP3    H217912   3.896   5.312   1.792
 5991TIP3   OH217913   5.148   1.206   4.166
 5991TIP3    H117914   5.142   1.255   4.084
 5991TIP3    H217915   5.089   1.131   4.153
 5992TIP3   OH217916   1.578   1.086   5.377
 5992TIP3    H117917   1.549   1.163   5.424
 5992TIP3    H217918   1.573   1.110   5.285
 5993TIP3   OH217919   5.986   6.706   1.868
 5993TIP3    H117920   6.040   6.638   1.828
 5993TIP3    H217921   5.979   6.679   1.960
 5994TIP3   OH217922   7.039   0.587   3.033
 5994TIP3    H117923   7.129   0.614   3.052
 5994TIP3    H217924   7.049   0.513   2.973
 5995TIP3   OH217925   0.222   2.320   2.937
 5995TIP3    H117926   0.219   2.225   2.952
 5995TIP3    H217927   0.163   2.356   3.003
 5996TIP3   OH217928   0.842   7.909   5.378
 5996TIP3    H117929   0.863   7.830   5.328
 5996TIP3    H217930   0.863   7.981   5.318
 5997TIP3   OH217931   4.931   6.503   0.245
 5997TIP3    H117932   4.989   6.428   0.231
 5997TIP3    H217933   4.958   6.567   0.178
 5998TIP3   OH217934   2.936   3.127   5.606
 5998TIP3    H117935   3.028   3.103   5.614
 5998TIP3    H217936   2.936   3.223   5.604
 5999TIP3   OH217937   7.755   7.827   0.805
 5999TIP3    H117938   7.798   7.834   0.719
 5999TIP3    H217939   7.671   7.784   0.786
 6000TIP3   OH217940   7.063   0.986   3.970
 6000TIP3    H117941   7.009   0.914   4.002
 6000TIP3    H217942   7.120   1.008   4.044
 6001TIP3   OH217943   3.183   5.084   2.032
 6001TIP3    H117944   3.090   5.084   2.010
 6001TIP3    H217945   3.205   5.177   2.041
 6002TIP3   OH217946   0.217   2.879   4.568
 6002TIP3    H117947   0.181   2.807   4.621
 6002TIP3    H217948   0.292   2.910   4.619
 6003TIP3   OH217949   5.375   0.431   4.246
 6003TIP3    H117950   5.413   0.499   4.190
 6003TIP3    H217951   5.283   0.429   4.220
 6004TIP3   OH217952   1.996   6.400   1.656
 6004TIP3    H117953   2.045   6.376   1.577
 6004TIP3    H217954   2.029   6.487   1.679
 6005TIP3   OH217955   0.610   2.192   2.516
 6005TIP3    H117956   0.602   2.287   2.510
 6005TIP3    H217957   0.521   2.161   2.530
 6006TIP3   OH217958   4.753   6.048   0.207
 6006TIP3    H117959   4.670   6.082   0.242
 6006TIP3    H217960   4.737   6.042   0.113
 6007TIP3   OH217961   5.510   3.966   4.946
 6007TIP3    H117962   5.467   3.884   4.922
 6007TIP3    H217963   5.444   4.033   4.933
 6008TIP3   OH217964   6.653   3.752   1.964
 6008TIP3    H117965   6.721   3.819   1.962
 6008TIP3    H217966   6.612   3.762   2.050
 6009TIP3   OH217967   3.620   5.215   1.431
 6009TIP3    H117968   3.588   5.300   1.461
 6009TIP3    H217969   3.683   5.188   1.498
 6010TIP3   OH217970   0.526   5.155   1.894
 6010TIP3    H117971   0.620   5.153   1.913
 6010TIP3    H217972   0.517   5.225   1.829
 6011TIP3   OH217973   6.122   0.098   4.072
 6011TIP3    H117974   6.198   0.077   4.019
 6011TIP3    H217975   6.126   0.036   4.145
 6012TIP3   OH217976   6.418   4.104   0.613
 6012TIP3    H117977   6.359   4.172   0.644
 6012TIP3    H217978   6.452   4.137   0.530
 6013TIP3   OH217979   3.881   1.825   0.203
 6013TIP3    H117980   3.918   1.783   0.126
 6013TIP3    H217981   3.859   1.753   0.262
 6014TIP3   OH217982   2.300   5.046   3.923
 6014TIP3    H117983   2.235   4.976   3.932
 6014TIP3    H217984   2.325   5.066   4.013
 6015TIP3   OH217985   1.372   3.899   1.658
 6015TIP3    H117986   1.291   3.949   1.654
 6015TIP3    H217987   1.441   3.964   1.643
 6016TIP3   OH217988   4.444   7.752   6.265
 6016TIP3    H117989   4.538   7.753   6.282
 6016TIP3    H217990   4.421   7.844   6.258
 6017TIP3   OH217991   2.882   7.734   3.327
 6017TIP3    H117992   2.787   7.749   3.334
 6017TIP3    H217993   2.890   7.661   3.266
 6018TIP3   OH217994   4.465   3.587   2.806
 6018TIP3    H117995   4.541   3.604   2.863
 6018TIP3    H217996   4.432   3.502   2.835
 6019TIP3   OH217997   4.009   5.405   4.349
 6019TIP3    H117998   4.043   5.326   4.306
 6019TIP3    H217999   3.934   5.431   4.296
 6020TIP3   OH218000   8.315   0.034   5.896
 6020TIP3    H118001   8.329   0.093   5.823
 6020TIP3    H218002   8.327   0.088   5.974
 6021TIP3   OH218003   4.796   0.140   6.264
 6021TIP3    H118004   4.803   0.105   6.352
 6021TIP3    H218005   4.857   0.087   6.212
 6022TIP3   OH218006   2.358   3.300   3.094
 6022TIP3    H118007   2.316   3.356   3.030
 6022TIP3    H218008   2.360   3.352   3.174
 6023TIP3   OH218009   8.033   7.891   1.693
 6023TIP3    H118010   8.040   7.954   1.621
 6023TIP3    H218011   8.033   7.806   1.651
 6024TIP3   OH218012   7.562   3.916   4.698
 6024TIP3    H118013   7.491   3.860   4.668
 6024TIP3    H218014   7.609   3.863   4.763
 6025TIP3   OH218015   1.384   6.944   5.157
 6025TIP3    H118016   1.402   6.981   5.243
 6025TIP3    H218017   1.451   6.983   5.100
 6026TIP3   OH218018   3.966   2.053   2.894
 6026TIP3    H118019   3.931   2.136   2.924
 6026TIP3    H218020   3.904   1.987   2.926
 6027TIP3   OH218021   1.960   4.169   1.275
 6027TIP3    H118022   2.004   4.112   1.211
 6027TIP3    H218023   2.011   4.250   1.274
 6028TIP3   OH218024   5.383   4.390   5.159
 6028TIP3    H118025   5.400   4.326   5.227
 6028TIP3    H218026   5.296   4.425   5.179
 6029TIP3   OH218027   7.715   1.068   2.796
 6029TIP3    H118028   7.762   1.149   2.778
 6029TIP3    H218029   7.699   1.069   2.890
 6030TIP3   OH218030   1.506   0.758   1.025
 6030TIP3    H118031   1.442   0.829   1.033
 6030TIP3    H218032   1.500   0.711   1.108
 6031TIP3   OH218033   5.227   4.465   3.700
 6031TIP3    H118034   5.295   4.510   3.650
 6031TIP3    H218035   5.185   4.534   3.751
 6032TIP3   OH218036   5.945   2.025   4.740
 6032TIP3    H118037   5.913   1.939   4.766
 6032TIP3    H218038   5.871   2.066   4.695
 6033TIP3   OH218039   5.852   7.837   2.279
 6033TIP3    H118040   5.946   7.830   2.268
 6033TIP3    H218041   5.836   7.810   2.370
 6034TIP3   OH218042   2.272   0.920   0.975
 6034TIP3    H118043   2.339   0.939   0.910
 6034TIP3    H218044   2.190   0.914   0.925
 6035TIP3   OH218045   0.427   7.759   1.233
 6035TIP3    H118046   0.381   7.677   1.215
 6035TIP3    H218047   0.360   7.818   1.268
 6036TIP3   OH218048   7.747   1.657   1.420
 6036TIP3    H118049   7.660   1.619   1.431
 6036TIP3    H218050   7.806   1.582   1.422
 6037TIP3   OH218051   0.980   3.809   4.304
 6037TIP3    H118052   1.031   3.805   4.223
 6037TIP3    H218053   0.932   3.726   4.306
 6038TIP3   OH218054   5.523   3.476   4.460
 6038TIP3    H118055   5.606   3.429   4.466
 6038TIP3    H218056   5.531   3.529   4.380
 6039TIP3   OH218057   6.373   1.814   0.510
 6039TIP3    H118058   6.450   1.760   0.526
 6039TIP3    H218059   6.401   1.878   0.445
 6040TIP3   OH218060   3.906   2.910   6.161
 6040TIP3    H118061   3.960   2.847   6.114
 6040TIP3    H218062   3.909   2.989   6.106
 6041TIP3   OH218063   1.540   1.800   2.985
 6041TIP3    H118064   1.507   1.747   2.913
 6041TIP3    H218065   1.628   1.827   2.957
 6042TIP3   OH218066   2.262   6.182   2.425
 6042TIP3    H118067   2.247   6.265   2.380
 6042TIP3    H218068   2.194   6.179   2.493
 6043TIP3   OH218069   1.931   6.278   0.407
 6043TIP3    H118070   1.960   6.204   0.355
 6043TIP3    H218071   1.845   6.253   0.440
 6044TIP3   OH218072   2.122   7.452   1.614
 6044TIP3    H118073   2.095   7.423   1.527
 6044TIP3    H218074   2.218   7.447   1.612
 6045TIP3   OH218075   0.845   7.028   1.426
 6045TIP3    H118076   0.892   7.052   1.506
 6045TIP3    H218077   0.913   7.006   1.363
 6046TIP3   OH218078   1.512   3.330   2.729
 6046TIP3    H118079   1.544   3.364   2.646
 6046TIP3    H218080   1.590   3.316   2.782
 6047TIP3   OH218081   5.499   2.125   1.121
 6047TIP3    H118082   5.486   2.131   1.215
 6047TIP3    H218083   5.488   2.032   1.101
 6048TIP3   OH218084   7.426   7.233   6.570
 6048TIP3    H118085   7.501   7.205   6.622
 6048TIP3    H218086   7.407   7.159   6.513
 6049TIP3   OH218087   6.219   6.901   4.693
 6049TIP3    H118088   6.286   6.923   4.759
 6049TIP3    H218089   6.136   6.921   4.737
 6050TIP3   OH218090   1.812   7.386   1.297
 6050TIP3    H118091   1.873   7.433   1.240
 6050TIP3    H218092   1.813   7.296   1.264
 6051TIP3   OH218093   0.616   0.264   2.160
 6051TIP3    H118094   0.539   0.320   2.164
 6051TIP3    H218095   0.683   0.311   2.210
 6052TIP3   OH218096   1.753   4.898   2.357
 6052TIP3    H118097   1.813   4.947   2.301
 6052TIP3    H218098   1.682   4.871   2.298
 6053TIP3   OH218099   7.455   4.209   4.973
 6053TIP3    H118100   7.493   4.283   5.020
 6053TIP3    H218101   7.361   4.224   4.975
 6054TIP3   OH218102   5.109   7.034   1.512
 6054TIP3    H118103   5.129   7.127   1.525
 6054TIP3    H218104   5.026   7.021   1.560
 6055TIP3   OH218105   7.249   5.162   0.822
 6055TIP3    H118106   7.270   5.255   0.833
 6055TIP3    H218107   7.324   5.116   0.859
 6056TIP3   OH218108   2.284   3.839   6.440
 6056TIP3    H118109   2.274   3.925   6.481
 6056TIP3    H218110   2.248   3.849   6.352
 6057TIP3   OH218111   3.042   6.157   1.266
 6057TIP3    H118112   3.083   6.197   1.189
 6057TIP3    H218113   3.109   6.098   1.301
 6058TIP3   OH218114   3.463   2.102   0.352
 6058TIP3    H118115   3.550   2.069   0.334
 6058TIP3    H218116   3.417   2.029   0.394
 6059TIP3   OH218117   0.872   0.116   3.044
 6059TIP3    H118118   0.823   0.197   3.027
 6059TIP3    H218119   0.805   0.048   3.042
 6060TIP3   OH218120   4.690   1.790   4.260
 6060TIP3    H118121   4.734   1.874   4.271
 6060TIP3    H218122   4.758   1.725   4.283
 6061TIP3   OH218123   8.190   3.516   2.103
 6061TIP3    H118124   8.234   3.601   2.100
 6061TIP3    H218125   8.169   3.496   2.011
 6062TIP3   OH218126   7.204   5.178   2.930
 6062TIP3    H118127   7.272   5.241   2.955
 6062TIP3    H218128   7.202   5.114   3.001
 6063TIP3   OH218129   7.494   5.609   2.134
 6063TIP3    H118130   7.459   5.680   2.081
 6063TIP3    H218131   7.502   5.536   2.072
 6064TIP3   OH218132   0.840   6.399   4.387
 6064TIP3    H118133   0.929   6.426   4.408
 6064TIP3    H218134   0.786   6.433   4.459
 6065TIP3   OH218135   6.694   7.412   3.412
 6065TIP3    H118136   6.623   7.415   3.476
 6065TIP3    H218137   6.680   7.330   3.364
 6066TIP3   OH218138   1.810   3.083   5.934
 6066TIP3    H118139   1.756   3.099   6.012
 6066TIP3    H218140   1.830   2.989   5.937
 6067TIP3   OH218141   5.052   3.735   2.699
 6067TIP3    H118142   4.992   3.672   2.659
 6067TIP3    H218143   5.040   3.724   2.793
 6068TIP3   OH218144   0.230   4.065   3.329
 6068TIP3    H118145   0.200   4.077   3.419
 6068TIP3    H218146   0.230   3.970   3.317
 6069TIP3   OH218147   2.226   3.885   5.149
 6069TIP3    H118148   2.177   3.916   5.073
 6069TIP3    H218149   2.213   3.953   5.215
 6070TIP3   OH218150   7.714   6.171   5.633
 6070TIP3    H118151   7.740   6.083   5.660
 6070TIP3    H218152   7.630   6.159   5.590
 6071TIP3   OH218153   4.328   7.825   3.382
 6071TIP3    H118154   4.321   7.821   3.287
 6071TIP3    H218155   4.371   7.743   3.406
 6072TIP3   OH218156   5.495   6.413   3.187
 6072TIP3    H118157   5.400   6.409   3.174
 6072TIP3    H218158   5.520   6.323   3.210
 6073TIP3   OH218159   1.514   2.162   2.906
 6073TIP3    H118160   1.538   2.243   2.862
 6073TIP3    H218161   1.484   2.104   2.836
 6074TIP3   OH218162   0.961   3.358   0.738
 6074TIP3    H118163   0.927   3.339   0.825
 6074TIP3    H218164   0.946   3.452   0.726
 6075TIP3   OH218165   4.710   1.129   6.322
 6075TIP3    H118166   4.774   1.058   6.317
 6075TIP3    H218167   4.672   1.133   6.234
 6076TIP3   OH218168   6.643   1.316   4.260
 6076TIP3    H118169   6.552   1.286   4.260
 6076TIP3    H218170   6.637   1.411   4.265
 6077TIP3   OH218171   6.436   7.619   6.551
 6077TIP3    H118172   6.433   7.631   6.456
 6077TIP3    H218173   6.427   7.525   6.564
 6078TIP3   OH218174   6.723   1.279   0.224
 6078TIP3    H118175   6.812   1.244   0.230
 6078TIP3    H218176   6.667   1.203   0.210
 6079TIP3   OH218177   3.647   1.669   0.357
 6079TIP3    H118178   3.687   1.586   0.383
 6079TIP3    H218179   3.587   1.646   0.286
 6080TIP3   OH218180   5.322   0.348   5.633
 6080TIP3    H118181   5.271   0.351   5.552
 6080TIP3    H218182   5.339   0.439   5.654
 6081TIP3   OH218183   2.226   1.623   3.234
 6081TIP3    H118184   2.263   1.704   3.200
 6081TIP3    H218185   2.239   1.628   3.329
 6082TIP3   OH218186   0.094   2.980   0.667
 6082TIP3    H118187   0.035   2.906   0.652
 6082TIP3    H218188   0.066   3.016   0.751
 6083TIP3   OH218189   3.595   3.588   2.216
 6083TIP3    H118190   3.573   3.680   2.200
 6083TIP3    H218191   3.538   3.563   2.289
 6084TIP3   OH218192   8.407   3.231   3.800
 6084TIP3    H118193   8.383   3.194   3.885
 6084TIP3    H218194   8.333   3.210   3.743
 6085TIP3   OH218195   3.747   1.359   2.251
 6085TIP3    H118196   3.720   1.311   2.329
 6085TIP3    H218197   3.837   1.387   2.269
 6086TIP3   OH218198   8.007   4.758   6.486
 6086TIP3    H118199   7.946   4.803   6.427
 6086TIP3    H218200   8.015   4.670   6.451
 6087TIP3   OH218201   2.964   3.891   0.721
 6087TIP3    H118202   2.910   3.864   0.647
 6087TIP3    H218203   2.925   3.846   0.797
 6088TIP3   OH218204   2.692   7.715   4.769
 6088TIP3    H118205   2.664   7.764   4.692
 6088TIP3    H218206   2.663   7.767   4.844
 6089TIP3   OH218207   1.999   3.337   1.251
 6089TIP3    H118208   1.950   3.283   1.188
 6089TIP3    H218209   1.935   3.359   1.318
 6090TIP3   OH218210   1.017   0.126   1.202
 6090TIP3    H118211   0.996   0.033   1.217
 6090TIP3    H218212   1.111   0.131   1.214
 6091TIP3   OH218213   0.596   7.772   4.916
 6091TIP3    H118214   0.578   7.837   4.983
 6091TIP3    H218215   0.605   7.690   4.965
 6092TIP3   OH218216   7.614   3.434   5.186
 6092TIP3    H118217   7.537   3.381   5.208
 6092TIP3    H218218   7.604   3.513   5.238
 6093TIP3   OH218219   7.413   6.673   6.428
 6093TIP3    H118220   7.476   6.653   6.359
 6093TIP3    H218221   7.335   6.623   6.404
 6094TIP3   OH218222   8.140   0.174   3.976
 6094TIP3    H118223   8.182   0.113   3.915
 6094TIP3    H218224   8.143   0.259   3.931
 6095TIP3   OH218225   1.535   3.579   1.413
 6095TIP3    H118226   1.473   3.514   1.379
 6095TIP3    H218227   1.481   3.639   1.465
 6096TIP3   OH218228   7.599   4.880   2.419
 6096TIP3    H118229   7.677   4.935   2.426
 6096TIP3    H218230   7.628   4.792   2.441
 6097TIP3   OH218231   1.748   1.900   2.586
 6097TIP3    H118232   1.787   1.849   2.657
 6097TIP3    H218233   1.672   1.942   2.625
 6098TIP3   OH218234   4.141   0.219   2.964
 6098TIP3    H118235   4.049   0.244   2.969
 6098TIP3    H218236   4.188   0.301   2.947
 6099TIP3   OH218237   1.135   5.644   0.538
 6099TIP3    H118238   1.214   5.693   0.516
 6099TIP3    H218239   1.133   5.644   0.634
 6100TIP3   OH218240   8.003   0.520   5.239
 6100TIP3    H118241   7.958   0.551   5.318
 6100TIP3    H218242   8.042   0.436   5.265
 6101TIP3   OH218243   2.911   6.775   4.971
 6101TIP3    H118244   2.828   6.802   4.932
 6101TIP3    H218245   2.906   6.804   5.062
 6102TIP3   OH218246   5.804   5.756   4.847
 6102TIP3    H118247   5.743   5.822   4.880
 6102TIP3    H218248   5.837   5.713   4.926
 6103TIP3   OH218249   4.616   2.491   3.374
 6103TIP3    H118250   4.584   2.576   3.405
 6103TIP3    H218251   4.555   2.427   3.411
 6104TIP3   OH218252   1.765   5.416   3.623
 6104TIP3    H118253   1.776   5.333   3.578
 6104TIP3    H218254   1.670   5.421   3.640
 6105TIP3   OH218255   4.610   3.865   5.764
 6105TIP3    H118256   4.582   3.946   5.808
 6105TIP3    H218257   4.551   3.858   5.688
 6106TIP3   OH218258   5.909   0.007   6.474
 6106TIP3    H118259   5.915   0.096   6.508
 6106TIP3    H218260   5.954  -0.047   6.539
 6107TIP3   OH218261   5.583   7.123   3.975
 6107TIP3    H118262   5.603   7.071   3.897
 6107TIP3    H218263   5.535   7.063   4.032
 6108TIP3   OH218264   3.823   2.165   6.628
 6108TIP3    H118265   3.859   2.243   6.669
 6108TIP3    H218266   3.801   2.107   6.701
 6109TIP3   OH218267   0.362   7.920   6.209
 6109TIP3    H118268   0.330   7.840   6.166
 6109TIP3    H218269   0.356   7.900   6.302
 6110TIP3   OH218270   5.411   7.656   0.389
 6110TIP3    H118271   5.504   7.638   0.374
 6110TIP3    H218272   5.408   7.750   0.408
 6111TIP3   OH218273   2.034   7.423   2.800
 6111TIP3    H118274   2.037   7.403   2.706
 6111TIP3    H218275   2.021   7.518   2.804
 6112TIP3   OH218276   3.729   5.013   5.459
 6112TIP3    H118277   3.806   5.043   5.411
 6112TIP3    H218278   3.655   5.043   5.406
 6113TIP3   OH218279   3.372   0.291   3.927
 6113TIP3    H118280   3.439   0.228   3.955
 6113TIP3    H218281   3.410   0.332   3.849
 6114TIP3   OH218282   5.961   7.263   0.915
 6114TIP3    H118283   5.933   7.267   0.824
 6114TIP3    H218284   6.033   7.200   0.916
 6115TIP3   OH218285   6.736   0.676   2.751
 6115TIP3    H118286   6.702   0.678   2.662
 6115TIP3    H218287   6.659   0.685   2.807
 6116TIP3   OH218288   1.262   0.959   4.613
 6116TIP3    H118289   1.245   0.986   4.522
 6116TIP3    H218290   1.199   0.889   4.629
 6117TIP3   OH218291   6.658   7.079   6.174
 6117TIP3    H118292   6.626   7.167   6.154
 6117TIP3    H218293   6.740   7.094   6.222
 6118TIP3   OH218294   2.415   5.635   1.455
 6118TIP3    H118295   2.436   5.629   1.548
 6118TIP3    H218296   2.352   5.707   1.449
 6119TIP3   OH218297   1.851   0.084   5.231
 6119TIP3    H118298   1.877   0.000   5.268
 6119TIP3    H218299   1.841   0.067   5.137
 6120TIP3   OH218300   6.124   0.149   0.666
 6120TIP3    H118301   6.151   0.073   0.614
 6120TIP3    H218302   6.062   0.195   0.610
 6121TIP3   OH218303   5.686   5.038   4.634
 6121TIP3    H118304   5.670   5.132   4.637
 6121TIP3    H218305   5.683   5.016   4.541
 6122TIP3   OH218306   8.011   0.713   4.436
 6122TIP3    H118307   8.011   0.620   4.417
 6122TIP3    H218308   7.919   0.738   4.435
 6123TIP3   OH218309   0.153   5.685   3.617
 6123TIP3    H118310   0.127   5.761   3.670
 6123TIP3    H218311   0.096   5.690   3.540
 6124TIP3   OH218312   0.508   0.694   1.416
 6124TIP3    H118313   0.594   0.716   1.452
 6124TIP3    H218314   0.446   0.726   1.482
 6125TIP3   OH218315   6.162   3.311   4.315
 6125TIP3    H118316   6.134   3.370   4.245
 6125TIP3    H218317   6.206   3.240   4.269
 6126TIP3   OH218318   8.156   3.707   3.211
 6126TIP3    H118319   8.140   3.748   3.126
 6126TIP3    H218320   8.070   3.702   3.252
 6127TIP3   OH218321   3.036   5.278   5.837
 6127TIP3    H118322   3.050   5.250   5.928
 6127TIP3    H218323   3.033   5.197   5.787
 6128TIP3   OH218324   6.962   5.695   2.230
 6128TIP3    H118325   7.048   5.735   2.220
 6128TIP3    H218326   6.979   5.602   2.240
 6129TIP3   OH218327   4.012   0.504   1.982
 6129TIP3    H118328   4.101   0.495   2.016
 6129TIP3    H218329   4.018   0.477   1.890
 6130TIP3   OH218330   1.921   6.546   2.599
 6130TIP3    H118331   1.841   6.599   2.595
 6130TIP3    H218332   1.985   6.605   2.638
 6131TIP3   OH218333   8.326   5.983   3.159
 6131TIP3    H118334   8.404   6.038   3.152
 6131TIP3    H218335   8.253   6.044   3.167
 6132TIP3   OH218336   0.254   6.274   0.571
 6132TIP3    H118337   0.310   6.339   0.527
 6132TIP3    H218338   0.216   6.322   0.645
 6133TIP3   OH218339   0.689   6.021   2.799
 6133TIP3    H118340   0.692   5.925   2.801
 6133TIP3    H218341   0.605   6.041   2.758
 6134TIP3   OH218342   8.338   6.876   6.261
 6134TIP3    H118343   8.411   6.827   6.299
 6134TIP3    H218344   8.379   6.955   6.224
 6135TIP3   OH218345   6.941   7.373   5.165
 6135TIP3    H118346   6.850   7.380   5.194
 6135TIP3    H218347   6.974   7.295   5.208
 6136TIP3   OH218348   6.530   3.745   5.987
 6136TIP3    H118349   6.435   3.751   6.003
 6136TIP3    H218350   6.570   3.792   6.059
 6137TIP3   OH218351   6.207   0.376   0.425
 6137TIP3    H118352   6.119   0.411   0.438
 6137TIP3    H218353   6.222   0.318   0.499
 6138TIP3   OH218354   4.137   4.653   1.802
 6138TIP3    H118355   4.183   4.574   1.832
 6138TIP3    H218356   4.162   4.720   1.866
 6139TIP3   OH218357   7.004   6.401   4.466
 6139TIP3    H118358   6.957   6.357   4.395
 6139TIP3    H218359   7.009   6.493   4.439
 6140TIP3   OH218360   5.694   6.002   6.251
 6140TIP3    H118361   5.747   6.082   6.261
 6140TIP3    H218362   5.670   6.001   6.158
 6141TIP3   OH218363   2.866   7.411   2.303
 6141TIP3    H118364   2.864   7.427   2.397
 6141TIP3    H218365   2.782   7.370   2.284
 6142TIP3   OH218366   2.031   0.453   1.389
 6142TIP3    H118367   1.955   0.432   1.444
 6142TIP3    H218368   2.065   0.535   1.426
 6143TIP3   OH218369   7.846   5.332   2.326
 6143TIP3    H118370   7.753   5.323   2.307
 6143TIP3    H218371   7.868   5.419   2.292
 6144TIP3   OH218372   7.750   4.920   0.290
 6144TIP3    H118373   7.667   4.943   0.248
 6144TIP3    H218374   7.745   4.825   0.302
 6145TIP3   OH218375   7.201   7.577   1.693
 6145TIP3    H118376   7.224   7.665   1.723
 6145TIP3    H218377   7.241   7.518   1.756
 6146TIP3   OH218378   1.065   3.108   1.307
 6146TIP3    H118379   1.071   3.018   1.275
 6146TIP3    H218380   1.140   3.118   1.365
 6147TIP3   OH218381   5.339   6.028  -0.009
 6147TIP3    H118382   5.421   6.058   0.032
 6147TIP3    H218383   5.276   6.026   0.063
 6148TIP3   OH218384   2.635   6.356   1.634
 6148TIP3    H118385   2.712   6.393   1.592
 6148TIP3    H218386   2.667   6.278   1.680
 6149TIP3   OH218387   7.454   3.209   1.724
 6149TIP3    H118388   7.473   3.122   1.687
 6149TIP3    H218389   7.482   3.270   1.657
 6150TIP3   OH218390   7.123   6.547   5.472
 6150TIP3    H118391   7.069   6.481   5.515
 6150TIP3    H218392   7.210   6.536   5.510
 6151TIP3   OH218393   5.889   2.553   3.529
 6151TIP3    H118394   5.825   2.546   3.600
 6151TIP3    H218395   5.931   2.638   3.543
 6152TIP3   OH218396   4.815   3.320   4.676
 6152TIP3    H118397   4.763   3.394   4.646
 6152TIP3    H218398   4.767   3.286   4.751
 6153TIP3   OH218399   3.269   7.106   4.183
 6153TIP3    H118400   3.336   7.038   4.189
 6153TIP3    H218401   3.303   7.178   4.237
 6154TIP3   OH218402   2.488   1.853   5.952
 6154TIP3    H118403   2.512   1.932   5.905
 6154TIP3    H218404   2.534   1.783   5.906
 6155TIP3   OH218405   0.388   3.346   5.126
 6155TIP3    H118406   0.465   3.290   5.139
 6155TIP3    H218407   0.375   3.389   5.211
 6156TIP3   OH218408   2.279   2.918   2.067
 6156TIP3    H118409   2.276   2.868   1.986
 6156TIP3    H218410   2.348   2.876   2.119
 6157TIP3   OH218411   0.320   3.988   5.378
 6157TIP3    H118412   0.402   3.952   5.346
 6157TIP3    H218413   0.252   3.939   5.331
 6158TIP3   OH218414   0.591   2.810   3.880
 6158TIP3    H118415   0.537   2.816   3.958
 6158TIP3    H218416   0.661   2.749   3.903
 6159TIP3   OH218417   4.151   3.016   2.033
 6159TIP3    H118418   4.078   3.076   2.018
 6159TIP3    H218419   4.222   3.073   2.063
 6160TIP3   OH218420   1.458   4.092   5.214
 6160TIP3    H118421   1.497   4.022   5.161
 6160TIP3    H218422   1.365   4.091   5.189
 6161TIP3   OH218423   5.903   1.738   5.737
 6161TIP3    H118424   5.934   1.823   5.769
 6161TIP3    H218425   5.954   1.721   5.658
 6162TIP3   OH218426   6.081   6.809   2.707
 6162TIP3    H118427   5.999   6.831   2.751
 6162TIP3    H218428   6.057   6.741   2.644
 6163TIP3   OH218429   4.077   6.036   1.679
 6163TIP3    H118430   4.164   6.001   1.659
 6163TIP3    H218431   4.094   6.117   1.727
 6164TIP3   OH218432   1.097   5.054   3.118
 6164TIP3    H118433   1.100   4.994   3.193
 6164TIP3    H218434   1.107   4.997   3.041
 6165TIP3   OH218435   4.057   1.825   1.436
 6165TIP3    H118436   3.980   1.855   1.388
 6165TIP3    H218437   4.115   1.789   1.370
 6166TIP3   OH218438   4.957   2.313   4.341
 6166TIP3    H118439   5.034   2.258   4.359
 6166TIP3    H218440   4.994   2.399   4.320
 6167TIP3   OH218441   8.289   4.701   3.387
 6167TIP3    H118442   8.364   4.660   3.429
 6167TIP3    H218443   8.221   4.633   3.388
 6168TIP3   OH218444   6.350   1.449   2.277
 6168TIP3    H118445   6.394   1.398   2.345
 6168TIP3    H218446   6.413   1.453   2.205
 6169TIP3   OH218447   2.444   3.515   4.984
 6169TIP3    H118448   2.533   3.545   5.006
 6169TIP3    H218449   2.390   3.547   5.057
 6170TIP3   OH218450   1.390   1.253   0.525
 6170TIP3    H118451   1.417   1.206   0.446
 6170TIP3    H218452   1.371   1.342   0.495
 6171TIP3   OH218453   2.460   0.450   2.982
 6171TIP3    H118454   2.389   0.511   2.964
 6171TIP3    H218455   2.427   0.394   3.053
 6172TIP3   OH218456   7.708   4.321   2.497
 6172TIP3    H118457   7.799   4.329   2.471
 6172TIP3    H218458   7.706   4.242   2.552
 6173TIP3   OH218459   6.082   1.695   4.759
 6173TIP3    H118460   6.014   1.750   4.798
 6173TIP3    H218461   6.156   1.755   4.747
 6174TIP3   OH218462   4.455   4.214   1.569
 6174TIP3    H118463   4.375   4.242   1.613
 6174TIP3    H218464   4.456   4.264   1.487
 6175TIP3   OH218465   4.244   2.425   0.249
 6175TIP3    H118466   4.280   2.338   0.266
 6175TIP3    H218467   4.150   2.413   0.248
 6176TIP3   OH218468   1.989   6.662   2.125
 6176TIP3    H118469   2.021   6.677   2.214
 6176TIP3    H218470   1.931   6.736   2.107
 6177TIP3   OH218471   3.236   7.803   4.634
 6177TIP3    H118472   3.284   7.784   4.715
 6177TIP3    H218473   3.250   7.897   4.619
 6178TIP3   OH218474   2.556   0.378   4.843
 6178TIP3    H118475   2.587   0.449   4.787
 6178TIP3    H218476   2.571   0.409   4.932
 6179TIP3   OH218477   4.292   3.329   5.742
 6179TIP3    H118478   4.215   3.374   5.706
 6179TIP3    H218479   4.293   3.353   5.835
 6180TIP3   OH218480   2.250   7.000   1.745
 6180TIP3    H118481   2.318   7.053   1.786
 6180TIP3    H218482   2.293   6.958   1.670
 6181TIP3   OH218483   0.939   0.164   4.705
 6181TIP3    H118484   0.930   0.152   4.799
 6181TIP3    H218485   0.948   0.076   4.669
 6182TIP3   OH218486   5.816   6.267   2.406
 6182TIP3    H118487   5.800   6.316   2.487
 6182TIP3    H218488   5.737   6.281   2.354
 6183TIP3   OH218489   7.911   7.265   1.606
 6183TIP3    H118490   7.956   7.278   1.689
 6183TIP3    H218491   7.909   7.170   1.594
 6184TIP3   OH218492   0.499   3.586   2.356
 6184TIP3    H118493   0.427   3.642   2.327
 6184TIP3    H218494   0.505   3.604   2.450
 6185TIP3   OH218495   7.111   2.203   6.649
 6185TIP3    H118496   7.047   2.133   6.637
 6185TIP3    H218497   7.126   2.236   6.560
 6186TIP3   OH218498   2.358   3.365   5.361
 6186TIP3    H118499   2.405   3.391   5.441
 6186TIP3    H218500   2.335   3.448   5.319
 6187TIP3   OH218501   1.259   6.227   5.601
 6187TIP3    H118502   1.233   6.308   5.558
 6187TIP3    H218503   1.194   6.214   5.670
 6188TIP3   OH218504   6.321   2.455   1.971
 6188TIP3    H118505   6.250   2.505   1.931
 6188TIP3    H218506   6.383   2.521   2.002
 6189TIP3   OH218507   4.573   0.023   4.857
 6189TIP3    H118508   4.515   0.098   4.847
 6189TIP3    H218509   4.618   0.016   4.773
 6190TIP3   OH218510   0.180   3.939   4.087
 6190TIP3    H118511   0.195   4.019   4.037
 6190TIP3    H218512   0.234   3.948   4.165
 6191TIP3   OH218513   0.946   0.184   6.609
 6191TIP3    H118514   0.924   0.156   6.520
 6191TIP3    H218515   1.040   0.166   6.617
 6192TIP3   OH218516   1.232  -0.015   1.476
 6192TIP3    H118517   1.187  -0.098   1.459
 6192TIP3    H218518   1.162   0.045   1.502
 6193TIP3   OH218519   0.981   1.859   3.378
 6193TIP3    H118520   1.022   1.823   3.457
 6193TIP3    H218521   1.014   1.804   3.307
 6194TIP3   OH218522   8.092   0.893   5.862
 6194TIP3    H118523   8.156   0.879   5.932
 6194TIP3    H218524   8.143   0.932   5.791
 6195TIP3   OH218525   3.165   0.312   4.611
 6195TIP3    H118526   3.115   0.324   4.692
 6195TIP3    H218527   3.104   0.338   4.542
 6196TIP3   OH218528   2.001   0.752   4.632
 6196TIP3    H118529   1.933   0.736   4.567
 6196TIP3    H218530   1.976   0.698   4.707
 6197TIP3   OH218531   5.608   1.595   0.426
 6197TIP3    H118532   5.546   1.549   0.369
 6197TIP3    H218533   5.584   1.687   0.418
 6198TIP3   OH218534   0.889   2.998   4.102
 6198TIP3    H118535   0.874   3.091   4.120
 6198TIP3    H218536   0.862   2.986   4.011
 6199TIP3   OH218537   6.823   5.227   4.688
 6199TIP3    H118538   6.820   5.163   4.617
 6199TIP3    H218539   6.755   5.291   4.665
 6200TIP3   OH218540   0.696   2.343   4.224
 6200TIP3    H118541   0.785   2.377   4.220
 6200TIP3    H218542   0.647   2.410   4.273
 6201TIP3   OH218543   7.755   6.345   4.650
 6201TIP3    H118544   7.809   6.268   4.667
 6201TIP3    H218545   7.698   6.319   4.577
 6202TIP3   OH218546   1.184   0.952   3.037
 6202TIP3    H118547   1.157   0.883   3.097
 6202TIP3    H218548   1.186   1.031   3.091
 6203TIP3   OH218549   5.271   6.809   6.727
 6203TIP3    H118550   5.331   6.859   6.782
 6203TIP3    H218551   5.184   6.836   6.756
 6204TIP3   OH218552   5.122   4.441   2.374
 6204TIP3    H118553   5.191   4.474   2.431
 6204TIP3    H218554   5.058   4.513   2.369
 6205TIP3   OH218555   1.308   1.892   2.497
 6205TIP3    H118556   1.300   1.949   2.422
 6205TIP3    H218557   1.324   1.805   2.460
 6206TIP3   OH218558   5.616   1.436   2.787
 6206TIP3    H118559   5.584   1.374   2.721
 6206TIP3    H218560   5.592   1.522   2.753
 6207TIP3   OH218561   6.936   6.962   3.554
 6207TIP3    H118562   6.956   6.894   3.618
 6207TIP3    H218563   6.954   7.044   3.601
 6208TIP3   OH218564   2.920   1.836   4.590
 6208TIP3    H118565   2.850   1.780   4.625
 6208TIP3    H218566   2.910   1.829   4.495
 6209TIP3   OH218567   7.394   5.306   1.326
 6209TIP3    H118568   7.403   5.379   1.387
 6209TIP3    H218569   7.466   5.247   1.348
 6210TIP3   OH218570   2.721   1.916   6.695
 6210TIP3    H118571   2.626   1.918   6.707
 6210TIP3    H218572   2.754   1.987   6.750
 6211TIP3   OH218573   0.620   5.776   4.739
 6211TIP3    H118574   0.709   5.808   4.753
 6211TIP3    H218575   0.582   5.770   4.826
 6212TIP3   OH218576   6.669   2.565   3.665
 6212TIP3    H118577   6.746   2.620   3.653
 6212TIP3    H218578   6.680   2.526   3.751
 6213TIP3   OH218579   1.764   1.395   5.344
 6213TIP3    H118580   1.821   1.412   5.268
 6213TIP3    H218581   1.676   1.389   5.306
 6214TIP3   OH218582   5.333   4.626   1.349
 6214TIP3    H118583   5.283   4.637   1.430
 6214TIP3    H218584   5.364   4.714   1.328
 6215TIP3   OH218585   2.051   2.187   3.811
 6215TIP3    H118586   2.022   2.254   3.873
 6215TIP3    H218587   2.038   2.104   3.858
 6216TIP3   OH218588   0.379   1.013   6.793
 6216TIP3    H118589   0.409   0.979   6.877
 6216TIP3    H218590   0.303   0.959   6.771
 6217TIP3   OH218591   2.115   6.499   5.597
 6217TIP3    H118592   2.133   6.583   5.639
 6217TIP3    H218593   2.090   6.441   5.669
 6218TIP3   OH218594   6.117   5.281   2.794
 6218TIP3    H118595   6.081   5.227   2.865
 6218TIP3    H218596   6.189   5.229   2.759
 6219TIP3   OH218597   3.821   3.778   3.249
 6219TIP3    H118598   3.733   3.741   3.260
 6219TIP3    H218599   3.879   3.702   3.257
 6220TIP3   OH218600   2.264   5.091   3.080
 6220TIP3    H118601   2.201   5.035   3.125
 6220TIP3    H218602   2.341   5.093   3.138
 6221TIP3   OH218603   2.309   1.280   4.033
 6221TIP3    H118604   2.323   1.301   4.125
 6221TIP3    H218605   2.223   1.237   4.031
 6222TIP3   OH218606   1.473   2.620   6.589
 6222TIP3    H118607   1.449   2.663   6.672
 6222TIP3    H218608   1.399   2.637   6.531
 6223TIP3   OH218609   7.763   7.363   0.364
 6223TIP3    H118610   7.709   7.292   0.330
 6223TIP3    H218611   7.710   7.404   0.431
 6224TIP3   OH218612   4.587   0.475   3.376
 6224TIP3    H118613   4.612   0.505   3.463
 6224TIP3    H218614   4.607   0.382   3.375
 6225TIP3   OH218615   0.857   6.686   2.446
 6225TIP3    H118616   0.928   6.720   2.392
 6225TIP3    H218617   0.807   6.629   2.387
 6226TIP3   OH218618   4.662   4.746   4.118
 6226TIP3    H118619   4.624   4.716   4.201
 6226TIP3    H218620   4.733   4.684   4.100
 6227TIP3   OH218621   5.438   4.649   2.073
 6227TIP3    H118622   5.529   4.666   2.049
 6227TIP3    H218623   5.440   4.638   2.168
 6228TIP3   OH218624   1.401   3.286   1.960
 6228TIP3    H118625   1.403   3.287   1.864
 6228TIP3    H218626   1.325   3.232   1.982
 6229TIP3   OH218627   5.271   3.345   4.533
 6229TIP3    H118628   5.361   3.351   4.502
 6229TIP3    H218629   5.265   3.412   4.602
 6230TIP3   OH218630   8.220   0.651   4.161
 6230TIP3    H118631   8.293   0.600   4.125
 6230TIP3    H218632   8.151   0.587   4.176
 6231TIP3   OH218633   0.427   2.356   6.172
 6231TIP3    H118634   0.409   2.384   6.261
 6231TIP3    H218635   0.415   2.261   6.174
 6232TIP3   OH218636   6.816   4.513   1.893
 6232TIP3    H118637   6.796   4.420   1.897
 6232TIP3    H218638   6.892   4.524   1.949
 6233TIP3   OH218639   5.321   2.211   0.270
 6233TIP3    H118640   5.371   2.271   0.215
 6233TIP3    H218641   5.231   2.241   0.264
 6234TIP3   OH218642   6.213   4.946   5.048
 6234TIP3    H118643   6.173   4.993   4.975
 6234TIP3    H218644   6.172   4.860   5.047
 6235TIP3   OH218645   6.250   6.988   4.429
 6235TIP3    H118646   6.239   6.963   4.521
 6235TIP3    H218647   6.342   6.970   4.410
 6236TIP3   OH218648   5.686   3.818   2.117
 6236TIP3    H118649   5.661   3.779   2.033
 6236TIP3    H218650   5.776   3.848   2.104
 6237TIP3   OH218651   2.208   3.583   1.792
 6237TIP3    H118652   2.208   3.526   1.869
 6237TIP3    H218653   2.293   3.568   1.751
 6238TIP3   OH218654   3.477   7.562   2.125
 6238TIP3    H118655   3.496   7.469   2.132
 6238TIP3    H218656   3.403   7.576   2.185
 6239TIP3   OH218657   6.059   3.235   5.874
 6239TIP3    H118658   6.046   3.221   5.780
 6239TIP3    H218659   6.079   3.148   5.908
 6240TIP3   OH218660   1.215   1.724   1.268
 6240TIP3    H118661   1.155   1.673   1.214
 6240TIP3    H218662   1.160   1.765   1.334
 6241TIP3   OH218663   8.336   5.533   0.560
 6241TIP3    H118664   8.422   5.509   0.594
 6241TIP3    H218665   8.279   5.460   0.586
 6242TIP3   OH218666   3.349   4.070   6.385
 6242TIP3    H118667   3.384   4.009   6.450
 6242TIP3    H218668   3.302   4.136   6.436
 6243TIP3   OH218669   6.122   4.752   5.839
 6243TIP3    H118670   6.107   4.673   5.892
 6243TIP3    H218671   6.045   4.806   5.856
 6244TIP3   OH218672   7.915   4.338   4.649
 6244TIP3    H118673   7.927   4.411   4.710
 6244TIP3    H218674   7.852   4.280   4.693
 6245TIP3   OH218675   4.191   4.119   3.398
 6245TIP3    H118676   4.188   4.049   3.464
 6245TIP3    H218677   4.267   4.099   3.345
 6246TIP3   OH218678   4.724   3.826   0.870
 6246TIP3    H118679   4.642   3.852   0.913
 6246TIP3    H218680   4.704   3.829   0.777
 6247TIP3   OH218681   1.848   2.879   6.287
 6247TIP3    H118682   1.827   2.959   6.238
 6247TIP3    H218683   1.833   2.808   6.224
 6248TIP3   OH218684   4.775   6.924   2.423
 6248TIP3    H118685   4.716   6.998   2.409
 6248TIP3    H218686   4.785   6.885   2.337
 6249TIP3   OH218687   8.211   2.136   0.915
 6249TIP3    H118688   8.198   2.074   0.986
 6249TIP3    H218689   8.303   2.161   0.921
 6250TIP3   OH218690   7.958   2.111   0.385
 6250TIP3    H118691   8.014   2.076   0.315
 6250TIP3    H218692   8.017   2.165   0.437
 6251TIP3   OH218693   5.248   3.904   6.367
 6251TIP3    H118694   5.157   3.925   6.345
 6251TIP3    H218695   5.249   3.808   6.375
 6252TIP3   OH218696   0.540   1.241   0.753
 6252TIP3    H118697   0.490   1.176   0.802
 6252TIP3    H218698   0.562   1.196   0.671
 6253TIP3   OH218699   5.937   5.245  -0.004
 6253TIP3    H118700   5.903   5.278  -0.088
 6253TIP3    H218701   5.903   5.156   0.002
 6254TIP3   OH218702   7.831   5.284   6.247
 6254TIP3    H118703   7.865   5.200   6.279
 6254TIP3    H218704   7.844   5.344   6.320
 6255TIP3   OH218705   8.108   3.385   5.456
 6255TIP3    H118706   8.067   3.441   5.521
 6255TIP3    H218707   8.035   3.339   5.414
 6256TIP3   OH218708   2.606   5.933   3.024
 6256TIP3    H118709   2.693   5.970   3.038
 6256TIP3    H218710   2.583   5.894   3.109
 6257TIP3   OH218711   3.891   4.430   1.561
 6257TIP3    H118712   3.835   4.402   1.634
 6257TIP3    H218713   3.912   4.522   1.580
 6258TIP3   OH218714   0.167   1.103   2.365
 6258TIP3    H118715   0.242   1.160   2.381
 6258TIP3    H218716   0.197   1.043   2.296
 6259TIP3   OH218717   7.335   4.516   2.249
 6259TIP3    H118718   7.308   4.509   2.340
 6259TIP3    H218719   7.395   4.442   2.236
 6260TIP3   OH218720   3.130   2.137   0.757
 6260TIP3    H118721   3.061   2.124   0.693
 6260TIP3    H218722   3.209   2.153   0.705
 6261TIP3   OH218723   6.655   6.031   2.888
 6261TIP3    H118724   6.694   6.056   2.804
 6261TIP3    H218725   6.730   6.015   2.946
 6262TIP3   OH218726   1.118   4.375   0.139
 6262TIP3    H118727   1.070   4.330   0.069
 6262TIP3    H218728   1.095   4.326   0.219
 6263TIP3   OH218729   4.362   5.309   3.454
 6263TIP3    H118730   4.355   5.223   3.496
 6263TIP3    H218731   4.417   5.293   3.376
 6264TIP3   OH218732   6.412   5.569   3.928
 6264TIP3    H118733   6.340   5.590   3.986
 6264TIP3    H218734   6.384   5.491   3.881
 6265TIP3   OH218735   6.732   7.095   1.164
 6265TIP3    H118736   6.716   7.186   1.186
 6265TIP3    H218737   6.723   7.048   1.248
 6266TIP3   OH218738   1.335   2.285   3.090
 6266TIP3    H118739   1.249   2.243   3.097
 6266TIP3    H218740   1.383   2.231   3.027
 6267TIP3   OH218741   4.953   4.948   5.515
 6267TIP3    H118742   4.884   4.975   5.576
 6267TIP3    H218743   4.944   4.853   5.510
 6268TIP3   OH218744   6.066   3.829   3.558
 6268TIP3    H118745   5.992   3.872   3.602
 6268TIP3    H218746   6.116   3.902   3.520
 6269TIP3   OH218747   6.951   6.709   5.777
 6269TIP3    H118748   6.861   6.682   5.757
 6269TIP3    H218749   6.956   6.799   5.747
 6270TIP3   OH218750   1.368   0.998   1.031
 6270TIP3    H118751   1.374   1.060   0.958
 6270TIP3    H218752   1.424   1.036   1.099
 6271TIP3   OH218753   7.995   5.775   2.859
 6271TIP3    H118754   7.955   5.862   2.855
 6271TIP3    H218755   8.087   5.790   2.838
 6272TIP3   OH218756   4.838   2.848   1.659
 6272TIP3    H118757   4.869   2.837   1.749
 6272TIP3    H218758   4.898   2.911   1.620
 6273TIP3   OH218759   0.574   6.468   4.806
 6273TIP3    H118760   0.508   6.448   4.872
 6273TIP3    H218761   0.553   6.556   4.777
 6274TIP3   OH218762   4.205   7.795   4.829
 6274TIP3    H118763   4.180   7.734   4.898
 6274TIP3    H218764   4.177   7.753   4.748
 6275TIP3   OH218765   1.453   2.807   4.778
 6275TIP3    H118766   1.407   2.735   4.734
 6275TIP3    H218767   1.483   2.770   4.861
 6276TIP3   OH218768   3.369   6.374   6.560
 6276TIP3    H118769   3.414   6.430   6.623
 6276TIP3    H218770   3.335   6.301   6.613
 6277TIP3   OH218771   6.110   4.463   3.749
 6277TIP3    H118772   6.182   4.506   3.795
 6277TIP3    H218773   6.059   4.422   3.818
 6278TIP3   OH218774   7.367   5.823   2.456
 6278TIP3    H118775   7.350   5.747   2.511
 6278TIP3    H218776   7.462   5.836   2.463
 6279TIP3   OH218777   6.480   2.840   4.431
 6279TIP3    H118778   6.415   2.811   4.494
 6279TIP3    H218779   6.489   2.934   4.447
 6280TIP3   OH218780   4.233   5.318   4.099
 6280TIP3    H118781   4.183   5.400   4.092
 6280TIP3    H218782   4.166   5.251   4.116
 6281TIP3   OH218783   2.177   5.085   1.593
 6281TIP3    H118784   2.127   5.059   1.515
 6281TIP3    H218785   2.200   5.177   1.577
 6282TIP3   OH218786   5.210   7.166   6.808
 6282TIP3    H118787   5.288   7.134   6.854
 6282TIP3    H218788   5.210   7.117   6.726
 6283TIP3   OH218789   1.849   0.925   1.306
 6283TIP3    H118790   1.764   0.914   1.348
 6283TIP3    H218791   1.845   0.870   1.228
 6284TIP3   OH218792   7.107   7.428   2.257
 6284TIP3    H118793   7.154   7.405   2.337
 6284TIP3    H218794   7.128   7.519   2.241
 6285TIP3   OH218795   7.050   5.026   4.499
 6285TIP3    H118796   6.962   4.990   4.507
 6285TIP3    H218797   7.102   4.955   4.461
 6286TIP3   OH218798   0.157   2.447   2.078
 6286TIP3    H118799   0.243   2.406   2.076
 6286TIP3    H218800   0.163   2.512   2.149
 6287TIP3   OH218801   6.266   6.755   0.852
 6287TIP3    H118802   6.313   6.835   0.877
 6287TIP3    H218803   6.285   6.744   0.759
 6288TIP3   OH218804   6.170   3.527   4.013
 6288TIP3    H118805   6.216   3.592   4.067
 6288TIP3    H218806   6.186   3.556   3.923
 6289TIP3   OH218807   4.322   5.985   3.978
 6289TIP3    H118808   4.348   6.043   3.906
 6289TIP3    H218809   4.252   5.932   3.940
 6290TIP3   OH218810   5.527   4.654   0.402
 6290TIP3    H118811   5.461   4.664   0.471
 6290TIP3    H218812   5.605   4.697   0.437
 6291TIP3   OH218813   1.722   6.128   1.179
 6291TIP3    H118814   1.725   6.130   1.083
 6291TIP3    H218815   1.743   6.037   1.201
 6292TIP3   OH218816   5.346   5.183   2.665
 6292TIP3    H118817   5.265   5.186   2.616
 6292TIP3    H218818   5.321   5.146   2.750
 6293TIP3   OH218819   6.011   3.560   3.108
 6293TIP3    H118820   6.100   3.585   3.134
 6293TIP3    H218821   5.991   3.483   3.160
 6294TIP3   OH218822   4.744   6.213   4.222
 6294TIP3    H118823   4.691   6.289   4.197
 6294TIP3    H218824   4.702   6.180   4.302
 6295TIP3   OH218825   7.168   1.217   0.540
 6295TIP3    H118826   7.138   1.296   0.496
 6295TIP3    H218827   7.262   1.231   0.553
 6296TIP3   OH218828   5.616   5.674   1.085
 6296TIP3    H118829   5.697   5.671   1.137
 6296TIP3    H218830   5.547   5.654   1.147
 6297TIP3   OH218831   3.367   1.228   5.818
 6297TIP3    H118832   3.314   1.307   5.814
 6297TIP3    H218833   3.450   1.256   5.856
 6298TIP3   OH218834   5.937   3.891   5.703
 6298TIP3    H118835   5.868   3.844   5.655
 6298TIP3    H218836   5.910   3.983   5.698
 6299TIP3   OH218837   7.259   2.568   1.507
 6299TIP3    H118838   7.222   2.484   1.478
 6299TIP3    H218839   7.197   2.633   1.475
 6300TIP3   OH218840   2.132   2.687   1.199
 6300TIP3    H118841   2.153   2.770   1.242
 6300TIP3    H218842   2.038   2.692   1.181
 6301TIP3   OH218843   2.927   5.097   4.183
 6301TIP3    H118844   3.001   5.045   4.213
 6301TIP3    H218845   2.939   5.183   4.223
 6302TIP3   OH218846   6.741   4.915   2.749
 6302TIP3    H118847   6.690   4.854   2.697
 6302TIP3    H218848   6.681   4.987   2.769
 6303TIP3   OH218849   4.352   5.738   1.040
 6303TIP3    H118850   4.302   5.802   1.090
 6303TIP3    H218851   4.396   5.685   1.107
 6304TIP3   OH218852   5.736   1.906   3.286
 6304TIP3    H118853   5.792   1.982   3.270
 6304TIP3    H218854   5.795   1.831   3.278
 6305TIP3   OH218855   4.842   3.596   0.438
 6305TIP3    H118856   4.880   3.621   0.523
 6305TIP3    H218857   4.801   3.511   0.455
 6306TIP3   OH218858   2.309   5.520   4.503
 6306TIP3    H118859   2.227   5.557   4.468
 6306TIP3    H218860   2.310   5.547   4.595
 6307TIP3   OH218861   0.907   5.364   5.299
 6307TIP3    H118862   0.851   5.418   5.243
 6307TIP3    H218863   0.994   5.401   5.289
 6308TIP3   OH218864   7.139   0.384   4.433
 6308TIP3    H118865   7.085   0.336   4.496
 6308TIP3    H218866   7.077   0.436   4.382
 6309TIP3   OH218867   8.364   3.270   5.420
 6309TIP3    H118868   8.387   3.303   5.333
 6309TIP3    H218869   8.268   3.264   5.419
 6310TIP3   OH218870   0.923   1.041   5.355
 6310TIP3    H118871   0.835   1.077   5.353
 6310TIP3    H218872   0.959   1.061   5.268
 6311TIP3   OH218873   4.006   0.529   5.796
 6311TIP3    H118874   3.962   0.472   5.732
 6311TIP3    H218875   3.936   0.559   5.853
 6312TIP3   OH218876   3.305   6.526   1.655
 6312TIP3    H118877   3.347   6.460   1.710
 6312TIP3    H218878   3.211   6.508   1.664
 6313TIP3   OH218879   4.808   0.277   2.855
 6313TIP3    H118880   4.828   0.343   2.788
 6313TIP3    H218881   4.856   0.306   2.933
 6314TIP3   OH218882   2.281   1.608   5.094
 6314TIP3    H118883   2.365   1.564   5.111
 6314TIP3    H218884   2.296   1.699   5.120
 6315TIP3   OH218885   7.614   4.717   5.828
 6315TIP3    H118886   7.592   4.805   5.799
 6315TIP3    H218887   7.688   4.691   5.772
 6316TIP3   OH218888   0.864   5.898   0.709
 6316TIP3    H118889   0.790   5.846   0.741
 6316TIP3    H218890   0.826   5.952   0.640
 6317TIP3   OH218891   1.822   1.031   6.773
 6317TIP3    H118892   1.753   1.032   6.707
 6317TIP3    H218893   1.797   0.959   6.832
 6318TIP3   OH218894   6.311   1.439   4.226
 6318TIP3    H118895   6.235   1.463   4.279
 6318TIP3    H218896   6.362   1.379   4.281
 6319TIP3   OH218897   4.307   2.296   5.583
 6319TIP3    H118898   4.401   2.302   5.596
 6319TIP3    H218899   4.278   2.229   5.645
 6320TIP3   OH218900   7.956   4.183   4.910
 6320TIP3    H118901   7.899   4.209   4.982
 6320TIP3    H218902   7.998   4.264   4.882
 6321TIP3   OH218903   7.167   1.921   4.583
 6321TIP3    H118904   7.224   1.889   4.513
 6321TIP3    H218905   7.078   1.905   4.552
 6322TIP3   OH218906   8.244   5.251   2.532
 6322TIP3    H118907   8.186   5.217   2.599
 6322TIP3    H218908   8.205   5.223   2.449
 6323TIP3   OH218909   6.537   5.542   2.186
 6323TIP3    H118910   6.469   5.495   2.138
 6323TIP3    H218911   6.539   5.502   2.272
 6324TIP3   OH218912   1.020   6.889   0.812
 6324TIP3    H118913   1.079   6.891   0.737
 6324TIP3    H218914   1.009   6.981   0.837
 6325TIP3   OH218915   7.761   5.223   0.845
 6325TIP3    H118916   7.749   5.258   0.757
 6325TIP3    H218917   7.775   5.299   0.901
 6326TIP3   OH218918   0.454   1.295   1.120
 6326TIP3    H118919   0.423   1.336   1.039
 6326TIP3    H218920   0.545   1.321   1.128
 6327TIP3   OH218921   7.508   1.405   6.290
 6327TIP3    H118922   7.466   1.320   6.276
 6327TIP3    H218923   7.591   1.385   6.332
 6328TIP3   OH218924   7.017   0.107   3.966
 6328TIP3    H118925   6.952   0.138   3.904
 6328TIP3    H218926   6.985   0.021   3.993
 6329TIP3   OH218927   0.422   6.345   3.200
 6329TIP3    H118928   0.496   6.307   3.246
 6329TIP3    H218929   0.418   6.297   3.117
 6330TIP3   OH218930   3.789   4.595   3.440
 6330TIP3    H118931   3.724   4.604   3.510
 6330TIP3    H218932   3.754   4.526   3.383
 6331TIP3   OH218933   4.739   3.189   2.982
 6331TIP3    H118934   4.713   3.110   3.029
 6331TIP3    H218935   4.784   3.242   3.048
 6332TIP3   OH218936   4.169   7.383   3.978
 6332TIP3    H118937   4.252   7.429   3.966
 6332TIP3    H218938   4.167   7.359   4.071
 6333TIP3   OH218939   5.337   0.984   1.278
 6333TIP3    H118940   5.387   0.966   1.198
 6333TIP3    H218941   5.263   0.924   1.274
 6334TIP3   OH218942   6.851   0.781   6.304
 6334TIP3    H118943   6.885   0.753   6.219
 6334TIP3    H218944   6.782   0.717   6.324
 6335TIP3   OH218945   6.521   1.944   3.050
 6335TIP3    H118946   6.444   1.887   3.062
 6335TIP3    H218947   6.565   1.907   2.974
 6336TIP3   OH218948   0.000   0.649   5.688
 6336TIP3    H118949  -0.054   0.571   5.702
 6336TIP3    H218950   0.024   0.678   5.776
 6337TIP3   OH218951   6.497   7.321   6.099
 6337TIP3    H118952   6.408   7.324   6.065
 6337TIP3    H218953   6.511   7.409   6.136
 6338TIP3   OH218954   7.486   7.197   4.450
 6338TIP3    H118955   7.566   7.248   4.462
 6338TIP3    H218956   7.459   7.216   4.360
 6339TIP3   OH218957   7.165   1.418   6.498
 6339TIP3    H118958   7.244   1.456   6.458
 6339TIP3    H218959   7.102   1.490   6.500
 6340TIP3   OH218960   4.304   4.147   5.482
 6340TIP3    H118961   4.367   4.111   5.420
 6340TIP3    H218962   4.221   4.106   5.457
 6341TIP3   OH218963   1.595   5.984   5.418
 6341TIP3    H118964   1.644   5.992   5.336
 6341TIP3    H218965   1.511   6.027   5.400
 6342TIP3   OH218966   5.181   5.291   1.122
 6342TIP3    H118967   5.190   5.203   1.086
 6342TIP3    H218968   5.243   5.344   1.071
 6343TIP3   OH218969   2.465   7.065   0.153
 6343TIP3    H118970   2.440   6.974   0.138
 6343TIP3    H218971   2.388   7.115   0.127
 6344TIP3   OH218972   2.285   0.970   0.087
 6344TIP3    H118973   2.264   0.887   0.044
 6344TIP3    H218974   2.363   1.002   0.042
 6345TIP3   OH218975   0.063   3.314   4.297
 6345TIP3    H118976  -0.022   3.269   4.292
 6345TIP3    H218977   0.125   3.244   4.317
 6346TIP3   OH218978   6.238   7.789   1.255
 6346TIP3    H118979   6.240   7.878   1.219
 6346TIP3    H218980   6.234   7.732   1.178
 6347TIP3   OH218981   5.827   4.034   2.032
 6347TIP3    H118982   5.877   4.072   1.960
 6347TIP3    H218983   5.822   4.103   2.098
 6348TIP3   OH218984   2.301   1.474   4.298
 6348TIP3    H118985   2.245   1.546   4.326
 6348TIP3    H218986   2.376   1.477   4.357
 6349TIP3   OH218987   0.365   1.530   4.434
 6349TIP3    H118988   0.317   1.610   4.412
 6349TIP3    H218989   0.455   1.548   4.408
 6350TIP3   OH218990   3.308   1.492   0.873
 6350TIP3    H118991   3.358   1.505   0.792
 6350TIP3    H218992   3.343   1.556   0.934
 6351TIP3   OH218993   2.777   6.547   5.156
 6351TIP3    H118994   2.736   6.488   5.093
 6351TIP3    H218995   2.852   6.584   5.109
 6352TIP3   OH218996   0.628   3.614   6.683
 6352TIP3    H118997   0.671   3.589   6.765
 6352TIP3    H218998   0.639   3.539   6.626
 6353TIP3   OH218999   2.376   0.218   0.036
 6353TIP3    H119000   2.399   0.142  -0.018
 6353TIP3    H219001   2.302   0.258  -0.010
 6354TIP3   OH219002   0.632   6.401   6.746
 6354TIP3    H119003   0.590   6.335   6.690
 6354TIP3    H219004   0.582   6.398   6.827
 6355TIP3   OH219005   0.272   7.062   2.661
 6355TIP3    H119006   0.324   7.108   2.726
 6355TIP3    H219007   0.226   6.994   2.711
 6356TIP3   OH219008   3.856   1.619   3.307
 6356TIP3    H119009   3.903   1.599   3.227
 6356TIP3    H219010   3.815   1.704   3.291
 6357TIP3   OH219011   5.263   5.589   5.044
 6357TIP3    H119012   5.195   5.598   4.977
 6357TIP3    H219013   5.320   5.664   5.031
 6358TIP3   OH219014   7.075   6.762   3.943
 6358TIP3    H119015   7.081   6.818   4.020
 6358TIP3    H219016   7.118   6.680   3.970
 6359TIP3   OH219017   1.188   6.583   0.096
 6359TIP3    H119018   1.196   6.646   0.025
 6359TIP3    H219019   1.098   6.593   0.127
 6360TIP3   OH219020   1.170   2.496   6.082
 6360TIP3    H119021   1.165   2.463   6.172
 6360TIP3    H219022   1.207   2.584   6.091
 6361TIP3   OH219023   8.341   6.703   0.405
 6361TIP3    H119024   8.406   6.698   0.475
 6361TIP3    H219025   8.393   6.718   0.326
 6362TIP3   OH219026   1.893   5.047   2.151
 6362TIP3    H119027   1.909   4.955   2.130
 6362TIP3    H219028   1.973   5.076   2.194
 6363TIP3   OH219029   0.121   6.152   6.181
 6363TIP3    H119030   0.125   6.091   6.108
 6363TIP3    H219031   0.213   6.174   6.198
 6364TIP3   OH219032   1.239   0.523   5.267
 6364TIP3    H119033   1.306   0.551   5.205
 6364TIP3    H219034   1.229   0.597   5.327
 6365TIP3   OH219035   0.776   1.363   0.847
 6365TIP3    H119036   0.838   1.298   0.814
 6365TIP3    H219037   0.690   1.326   0.828
 6366TIP3   OH219038   5.477   1.197   4.456
 6366TIP3    H119039   5.550   1.177   4.514
 6366TIP3    H219040   5.515   1.250   4.386
 6367TIP3   OH219041   7.938   1.869   6.850
 6367TIP3    H119042   7.963   1.831   6.766
 6367TIP3    H219043   8.021   1.895   6.891
 6368TIP3   OH219044   5.651   0.170   5.519
 6368TIP3    H119045   5.604   0.162   5.602
 6368TIP3    H219046   5.642   0.262   5.495
 6369TIP3   OH219047   5.055   0.172   1.883
 6369TIP3    H119048   5.003   0.181   1.963
 6369TIP3    H219049   5.000   0.210   1.814
 6370TIP3   OH219050   3.659   7.824   1.750
 6370TIP3    H119051   3.666   7.863   1.837
 6370TIP3    H219052   3.568   7.838   1.725
 6371TIP3   OH219053   1.119   6.188   6.500
 6371TIP3    H119054   1.078   6.150   6.578
 6371TIP3    H219055   1.066   6.156   6.427
 6372TIP3   OH219056   3.385   2.156   6.549
 6372TIP3    H119057   3.461   2.189   6.597
 6372TIP3    H219058   3.414   2.072   6.513
 6373TIP3   OH219059   6.027   0.184   2.179
 6373TIP3    H119060   6.099   0.232   2.139
 6373TIP3    H219061   5.949   0.234   2.154
 6374TIP3   OH219062   1.879   6.423   4.456
 6374TIP3    H119063   1.880   6.352   4.392
 6374TIP3    H219064   1.892   6.380   4.541
 6375TIP3   OH219065   3.109   6.103   0.672
 6375TIP3    H119066   3.047   6.085   0.742
 6375TIP3    H219067   3.062   6.162   0.613
 6376TIP3   OH219068   1.836   3.225   3.733
 6376TIP3    H119069   1.906   3.263   3.786
 6376TIP3    H219070   1.787   3.169   3.793
 6377TIP3   OH219071   8.223   0.422   2.651
 6377TIP3    H119072   8.180   0.463   2.726
 6377TIP3    H219073   8.235   0.493   2.588
 6378TIP3   OH219074   7.032   5.420   2.306
 6378TIP3    H119075   7.107   5.455   2.354
 6378TIP3    H219076   7.066   5.343   2.260
 6379TIP3   OH219077   2.096   2.553   5.621
 6379TIP3    H119078   2.047   2.544   5.539
 6379TIP3    H219079   2.084   2.469   5.665
 6380TIP3   OH219080   1.397   2.697   3.884
 6380TIP3    H119081   1.349   2.677   3.804
 6380TIP3    H219082   1.469   2.633   3.886
 6381TIP3   OH219083   0.267   7.684   6.396
 6381TIP3    H119084   0.213   7.612   6.429
 6381TIP3    H219085   0.269   7.747   6.468
 6382TIP3   OH219086   3.707   7.183   5.500
 6382TIP3    H119087   3.750   7.189   5.586
 6382TIP3    H219088   3.703   7.089   5.482
 6383TIP3   OH219089   3.481   2.093   4.580
 6383TIP3    H119090   3.435   2.017   4.616
 6383TIP3    H219091   3.573   2.067   4.580
 6384TIP3   OH219092   2.367   3.802   2.171
 6384TIP3    H119093   2.433   3.734   2.159
 6384TIP3    H219094   2.360   3.844   2.085
 6385TIP3   OH219095   3.015   0.607   4.964
 6385TIP3    H119096   3.032   0.513   4.952
 6385TIP3    H219097   2.976   0.613   5.051
 6386TIP3   OH219098   8.139   1.793   3.023
 6386TIP3    H119099   8.094   1.873   2.997
 6386TIP3    H219100   8.072   1.742   3.070
 6387TIP3   OH219101   7.465   3.832   6.120
 6387TIP3    H119102   7.498   3.886   6.049
 6387TIP3    H219103   7.543   3.795   6.161
 6388TIP3   OH219104   1.573   6.930   6.402
 6388TIP3    H119105   1.557   6.964   6.490
 6388TIP3    H219106   1.611   6.843   6.416
 6389TIP3   OH219107   4.796   7.462   0.549
 6389TIP3    H119108   4.879   7.469   0.596
 6389TIP3    H219109   4.764   7.552   0.544
 6390TIP3   OH219110   6.003   4.520   5.941
 6390TIP3    H119111   5.990   4.490   6.031
 6390TIP3    H219112   6.025   4.441   5.892
 6391TIP3   OH219113   7.162   3.293   1.019
 6391TIP3    H119114   7.144   3.268   1.110
 6391TIP3    H219115   7.085   3.344   0.994
 6392TIP3   OH219116   3.884   1.897   3.666
 6392TIP3    H119117   3.978   1.914   3.668
 6392TIP3    H219118   3.857   1.902   3.758
 6393TIP3   OH219119   0.377   6.982   5.019
 6393TIP3    H119120   0.396   6.980   4.925
 6393TIP3    H219121   0.461   6.999   5.061
 6394TIP3   OH219122   7.550   4.272   2.259
 6394TIP3    H119123   7.603   4.295   2.335
 6394TIP3    H219124   7.473   4.227   2.295
 6395TIP3   OH219125   6.240   0.787   1.465
 6395TIP3    H119126   6.173   0.820   1.405
 6395TIP3    H219127   6.194   0.773   1.547
 6396TIP3   OH219128   0.350   1.298   5.706
 6396TIP3    H119129   0.365   1.244   5.784
 6396TIP3    H219130   0.294   1.245   5.650
 6397TIP3   OH219131   2.700   2.035   0.306
 6397TIP3    H119132   2.780   1.983   0.301
 6397TIP3    H219133   2.641   1.997   0.241
 6398TIP3   OH219134   5.987   3.365   3.639
 6398TIP3    H119135   6.006   3.438   3.579
 6398TIP3    H219136   6.073   3.325   3.655
 6399TIP3   OH219137   1.073   1.866   4.308
 6399TIP3    H119138   1.108   1.904   4.227
 6399TIP3    H219139   1.146   1.816   4.344
 6400TIP3   OH219140   7.668   1.490   3.369
 6400TIP3    H119141   7.679   1.402   3.406
 6400TIP3    H219142   7.603   1.479   3.300
 6401TIP3   OH219143   2.183   6.982   6.737
 6401TIP3    H119144   2.250   6.936   6.686
 6401TIP3    H219145   2.231   7.051   6.783
 6402TIP3   OH219146   5.437   0.990   1.021
 6402TIP3    H119147   5.426   1.081   1.048
 6402TIP3    H219148   5.452   0.996   0.926
 6403TIP3   OH219149   3.411   7.419   6.729
 6403TIP3    H119150   3.321   7.447   6.707
 6403TIP3    H219151   3.421   7.335   6.685
 6404TIP3   OH219152   8.341   3.831   2.856
 6404TIP3    H119153   8.392   3.755   2.883
 6404TIP3    H219154   8.291   3.856   2.934
 6405TIP3   OH219155   4.878   4.164   0.248
 6405TIP3    H119156   4.838   4.167   0.161
 6405TIP3    H219157   4.960   4.116   0.236
 6406TIP3   OH219158   6.664   0.535   4.298
 6406TIP3    H119159   6.648   0.471   4.367
 6406TIP3    H219160   6.757   0.557   4.307
 6407TIP3   OH219161   2.587   3.523   0.407
 6407TIP3    H119162   2.596   3.589   0.339
 6407TIP3    H219163   2.515   3.466   0.378
 6408TIP3   OH219164   4.478   4.725   4.970
 6408TIP3    H119165   4.435   4.809   4.986
 6408TIP3    H219166   4.494   4.689   5.057
 6409TIP3   OH219167   1.282   7.142   4.654
 6409TIP3    H119168   1.335   7.207   4.701
 6409TIP3    H219169   1.321   7.058   4.677
 6410TIP3   OH219170   4.075   6.119   6.156
 6410TIP3    H119171   3.992   6.166   6.166
 6410TIP3    H219172   4.066   6.072   6.074
 6411TIP3   OH219173   7.510   4.410   6.305
 6411TIP3    H119174   7.533   4.352   6.233
 6411TIP3    H219175   7.462   4.481   6.264
 6412TIP3   OH219176   3.093   6.091   3.618
 6412TIP3    H119177   3.162   6.034   3.651
 6412TIP3    H219178   3.053   6.129   3.696
 6413TIP3   OH219179   3.473   3.953   3.277
 6413TIP3    H119180   3.497   3.975   3.367
 6413TIP3    H219181   3.532   4.006   3.223
 6414TIP3   OH219182   0.975   7.150   3.217
 6414TIP3    H119183   0.932   7.218   3.166
 6414TIP3    H219184   1.066   7.150   3.186
 6415TIP3   OH219185   2.743   0.768   6.622
 6415TIP3    H119186   2.674   0.805   6.567
 6415TIP3    H219187   2.736   0.673   6.608
 6416TIP3   OH219188   4.119   0.818   1.682
 6416TIP3    H119189   4.211   0.816   1.705
 6416TIP3    H219190   4.073   0.832   1.765
 6417TIP3   OH219191   7.697   2.726   1.032
 6417TIP3    H119192   7.624   2.785   1.048
 6417TIP3    H219193   7.670   2.643   1.072
 6418TIP3   OH219194   4.671   4.381   1.272
 6418TIP3    H119195   4.667   4.402   1.366
 6418TIP3    H219196   4.658   4.286   1.269
 6419TIP3   OH219197   2.141   1.096   0.278
 6419TIP3    H119198   2.202   1.071   0.209
 6419TIP3    H219199   2.196   1.121   0.352
 6420TIP3   OH219200   6.757   7.130   0.169
 6420TIP3    H119201   6.808   7.187   0.113
 6420TIP3    H219202   6.666   7.147   0.145
 6421TIP3   OH219203   4.498   1.787   2.655
 6421TIP3    H119204   4.491   1.719   2.722
 6421TIP3    H219205   4.424   1.771   2.597
 6422TIP3   OH219206   7.571   3.962   2.316
 6422TIP3    H119207   7.613   3.948   2.232
 6422TIP3    H219208   7.488   4.006   2.294
 6423TIP3   OH219209   5.199   1.278   6.503
 6423TIP3    H119210   5.150   1.197   6.519
 6423TIP3    H219211   5.288   1.248   6.487
 6424TIP3   OH219212   2.627   3.095   0.097
 6424TIP3    H119213   2.710   3.047   0.091
 6424TIP3    H219214   2.649   3.173   0.148
 6425TIP3   OH219215   4.735   3.471   2.232
 6425TIP3    H119216   4.695   3.387   2.254
 6425TIP3    H219217   4.795   3.451   2.159
 6426TIP3   OH219218   8.349   1.200   6.629
 6426TIP3    H119219   8.330   1.243   6.545
 6426TIP3    H219220   8.441   1.172   6.621
 6427TIP3   OH219221   6.359   3.964   3.867
 6427TIP3    H119222   6.358   4.047   3.819
 6427TIP3    H219223   6.292   3.975   3.934
 6428TIP3   OH219224   0.709   7.139   5.381
 6428TIP3    H119225   0.745   7.214   5.334
 6428TIP3    H219226   0.648   7.176   5.444
 6429TIP3   OH219227   0.123   4.944   1.457
 6429TIP3    H119228   0.136   4.875   1.523
 6429TIP3    H219229   0.118   4.897   1.374
 6430TIP3   OH219230   0.775   2.802   1.457
 6430TIP3    H119231   0.771   2.839   1.545
 6430TIP3    H219232   0.723   2.862   1.404
 6431TIP3   OH219233   8.107   4.475   3.364
 6431TIP3    H119234   8.079   4.472   3.456
 6431TIP3    H219235   8.141   4.387   3.346
 6432TIP3   OH219236   3.085   5.485   6.531
 6432TIP3    H119237   3.149   5.450   6.469
 6432TIP3    H219238   3.063   5.572   6.497
 6433TIP3   OH219239   6.371  -0.013   2.856
 6433TIP3    H119240   6.403   0.075   2.879
 6433TIP3    H219241   6.329  -0.002   2.771
 6434TIP3   OH219242   1.450   4.482   5.576
 6434TIP3    H119243   1.469   4.546   5.507
 6434TIP3    H219244   1.509   4.409   5.558
 6435TIP3   OH219245   8.043   2.669   3.674
 6435TIP3    H119246   8.016   2.756   3.704
 6435TIP3    H219247   7.976   2.643   3.611
 6436TIP3   OH219248   4.994   7.869   5.257
 6436TIP3    H119249   5.021   7.782   5.285
 6436TIP3    H219250   5.035   7.881   5.172
 6437TIP3   OH219251   4.177   5.440   5.840
 6437TIP3    H119252   4.269   5.419   5.859
 6437TIP3    H219253   4.146   5.365   5.789
 6438TIP3   OH219254   5.712   1.182   4.633
 6438TIP3    H119255   5.706   1.265   4.680
 6438TIP3    H219256   5.799   1.184   4.592
 6439TIP3   OH219257   4.891   4.363   1.131
 6439TIP3    H119258   4.815   4.384   1.186
 6439TIP3    H219259   4.961   4.419   1.165
 6440TIP3   OH219260   2.334   7.066   4.860
 6440TIP3    H119261   2.407   7.087   4.918
 6440TIP3    H219262   2.328   7.142   4.802
 6441TIP3   OH219263   6.120   2.935   2.911
 6441TIP3    H119264   6.176   3.006   2.944
 6441TIP3    H219265   6.044   2.979   2.874
 6442TIP3   OH219266   5.317   2.329   3.734
 6442TIP3    H119267   5.291   2.416   3.764
 6442TIP3    H219268   5.266   2.315   3.655
 6443TIP3   OH219269   2.821   2.443   6.216
 6443TIP3    H119270   2.902   2.395   6.235
 6443TIP3    H219271   2.807   2.429   6.122
 6444TIP3   OH219272   2.221   4.167   3.119
 6444TIP3    H119273   2.288   4.104   3.093
 6444TIP3    H219274   2.152   4.156   3.053
 6445TIP3   OH219275   8.224   1.350   3.000
 6445TIP3    H119276   8.198   1.311   2.917
 6445TIP3    H219277   8.236   1.276   3.059
 6446TIP3   OH219278   2.746   6.487   3.063
 6446TIP3    H119279   2.682   6.532   3.007
 6446TIP3    H219280   2.742   6.396   3.036
 6447TIP3   OH219281   5.576   4.655   3.356
 6447TIP3    H119282   5.583   4.603   3.275
 6447TIP3    H219283   5.664   4.649   3.395
 6448TIP3   OH219284   4.026   0.695   0.585
 6448TIP3    H119285   3.934   0.721   0.580
 6448TIP3    H219286   4.072   0.757   0.530
 6449TIP3   OH219287   4.170   2.583   1.364
 6449TIP3    H119288   4.188   2.629   1.446
 6449TIP3    H219289   4.106   2.638   1.319
 6450TIP3   OH219290   6.597   3.280   2.763
 6450TIP3    H119291   6.574   3.218   2.694
 6450TIP3    H219292   6.669   3.238   2.810
 6451TIP3   OH219293   7.410   0.680   6.531
 6451TIP3    H119294   7.404   0.648   6.441
 6451TIP3    H219295   7.426   0.601   6.583
 6452TIP3   OH219296   4.115   0.219   2.051
 6452TIP3    H119297   4.057   0.181   1.985
 6452TIP3    H219298   4.061   0.225   2.130
 6453TIP3   OH219299   5.694   1.527   5.619
 6453TIP3    H119300   5.714   1.621   5.624
 6453TIP3    H219301   5.600   1.524   5.600
 6454TIP3   OH219302   1.012   1.675   1.062
 6454TIP3    H119303   1.025   1.768   1.048
 6454TIP3    H219304   0.963   1.646   0.985
 6455TIP3   OH219305   4.280   6.279   6.260
 6455TIP3    H119306   4.256   6.253   6.171
 6455TIP3    H219307   4.198   6.279   6.308
 6456TIP3   OH219308   6.913   2.001   3.068
 6456TIP3    H119309   6.915   1.908   3.089
 6456TIP3    H219310   6.995   2.017   3.023
 6457TIP3   OH219311   3.159   1.467   4.334
 6457TIP3    H119312   3.069   1.468   4.303
 6457TIP3    H219313   3.211   1.483   4.255
 6458TIP3   OH219314   5.859   4.562   1.490
 6458TIP3    H119315   5.772   4.555   1.453
 6458TIP3    H219316   5.849   4.620   1.565
 6459TIP3   OH219317   3.810   4.814   4.419
 6459TIP3    H119318   3.738   4.827   4.481
 6459TIP3    H219319   3.776   4.751   4.356
 6460TIP3   OH219320   5.974   2.888   2.258
 6460TIP3    H119321   5.932   2.845   2.332
 6460TIP3    H219322   6.057   2.842   2.247
 6461TIP3   OH219323   5.292   1.489   2.195
 6461TIP3    H119324   5.339   1.573   2.201
 6461TIP3    H219325   5.261   1.472   2.284
 6462TIP3   OH219326   3.351   6.375   3.668
 6462TIP3    H119327   3.387   6.288   3.648
 6462TIP3    H219328   3.343   6.376   3.763
 6463TIP3   OH219329   2.048   5.840   6.766
 6463TIP3    H119330   2.046   5.906   6.835
 6463TIP3    H219331   1.957   5.809   6.761
 6464TIP3   OH219332   0.328   5.247   5.450
 6464TIP3    H119333   0.423   5.241   5.457
 6464TIP3    H219334   0.296   5.192   5.521
 6465TIP3   OH219335   3.791   3.973   2.625
 6465TIP3    H119336   3.838   3.922   2.560
 6465TIP3    H219337   3.857   3.997   2.690
 6466TIP3   OH219338   2.188   3.392   0.042
 6466TIP3    H119339   2.240   3.335  -0.016
 6466TIP3    H219340   2.126   3.435  -0.017
 6467TIP3   OH219341   7.419   4.930   6.437
 6467TIP3    H119342   7.424   4.961   6.527
 6467TIP3    H219343   7.487   4.980   6.391
 6468TIP3   OH219344   3.720   7.086   4.305
 6468TIP3    H119345   3.812   7.075   4.332
 6468TIP3    H219346   3.725   7.126   4.218
 6469TIP3   OH219347   7.782   5.374   2.762
 6469TIP3    H119348   7.719   5.335   2.702
 6469TIP3    H219349   7.755   5.465   2.770
 6470TIP3   OH219350   7.649   2.723   5.037
 6470TIP3    H119351   7.599   2.772   4.972
 6470TIP3    H219352   7.739   2.728   5.006
 6471TIP3   OH219353   0.418   6.481   3.464
 6471TIP3    H119354   0.402   6.389   3.486
 6471TIP3    H219355   0.379   6.492   3.378
 6472TIP3   OH219356   3.235   5.507   6.009
 6472TIP3    H119357   3.217   5.565   6.084
 6472TIP3    H219358   3.303   5.448   6.040
 6473TIP3   OH219359   5.111   3.359   6.407
 6473TIP3    H119360   5.058   3.336   6.482
 6473TIP3    H219361   5.137   3.276   6.369
 6474TIP3   OH219362   7.035   2.528   1.769
 6474TIP3    H119363   7.071   2.458   1.715
 6474TIP3    H219364   6.999   2.591   1.707
 6475TIP3   OH219365   4.073   6.426   6.418
 6475TIP3    H119366   4.080   6.512   6.460
 6475TIP3    H219367   4.066   6.365   6.491
 6476TIP3   OH219368   4.902   2.696   5.628
 6476TIP3    H119369   4.973   2.633   5.636
 6476TIP3    H219370   4.945   2.780   5.615
 6477TIP3   OH219371   4.361   7.307   2.586
 6477TIP3    H119372   4.271   7.333   2.567
 6477TIP3    H219373   4.415   7.367   2.535
 6478TIP3   OH219374   7.006   3.112   4.755
 6478TIP3    H119375   7.098   3.132   4.736
 6478TIP3    H219376   6.988   3.033   4.704
 6479TIP3   OH219377   7.382   0.067   2.136
 6479TIP3    H119378   7.334  -0.008   2.101
 6479TIP3    H219379   7.350   0.075   2.227
 6480TIP3   OH219380   3.847   3.479   1.253
 6480TIP3    H119381   3.808   3.414   1.194
 6480TIP3    H219382   3.874   3.429   1.330
 6481TIP3   OH219383   1.712   4.041   2.070
 6481TIP3    H119384   1.788   4.095   2.049
 6481TIP3    H219385   1.641   4.078   2.017
 6482TIP3   OH219386   5.416   5.690   5.454
 6482TIP3    H119387   5.341   5.693   5.513
 6482TIP3    H219388   5.424   5.598   5.430
 6483TIP3   OH219389   5.714   3.790   5.013
 6483TIP3    H119390   5.681   3.707   4.977
 6483TIP3    H219391   5.652   3.856   4.983
 6484TIP3   OH219392   2.862   6.750   3.340
 6484TIP3    H119393   2.904   6.668   3.312
 6484TIP3    H219394   2.928   6.794   3.393
 6485TIP3   OH219395   2.631   1.336   5.788
 6485TIP3    H119396   2.598   1.401   5.726
 6485TIP3    H219397   2.649   1.259   5.735
 6486TIP3   OH219398   5.597   4.410   6.501
 6486TIP3    H119399   5.514   4.418   6.454
 6486TIP3    H219400   5.605   4.316   6.520
 6487TIP3   OH219401   1.304   4.431   0.406
 6487TIP3    H119402   1.302   4.342   0.372
 6487TIP3    H219403   1.363   4.479   0.348
 6488TIP3   OH219404   7.676   2.798   1.460
 6488TIP3    H119405   7.759   2.844   1.475
 6488TIP3    H219406   7.642   2.836   1.378
 6489TIP3   OH219407   7.596   3.053   2.206
 6489TIP3    H119408   7.560   3.141   2.222
 6489TIP3    H219409   7.554   3.025   2.125
 6490TIP3   OH219410   1.221   7.292   4.145
 6490TIP3    H119411   1.301   7.310   4.194
 6490TIP3    H219412   1.250   7.273   4.056
 6491TIP3   OH219413   2.934   6.833   0.280
 6491TIP3    H119414   2.839   6.827   0.294
 6491TIP3    H219415   2.947   6.794   0.193
 6492TIP3   OH219416   5.160   1.548   6.401
 6492TIP3    H119417   5.195   1.532   6.313
 6492TIP3    H219418   5.143   1.461   6.436
 6493TIP3   OH219419   0.065   4.800   2.606
 6493TIP3    H119420   0.054   4.706   2.622
 6493TIP3    H219421   0.054   4.841   2.691
 6494TIP3   OH219422   1.518   2.701   5.875
 6494TIP3    H119423   1.463   2.724   5.950
 6494TIP3    H219424   1.608   2.718   5.905
 6495TIP3   OH219425   2.175   2.170   0.734
 6495TIP3    H119426   2.259   2.155   0.689
 6495TIP3    H219427   2.185   2.125   0.818
 6496TIP3   OH219428   5.433   2.476   4.330
 6496TIP3    H119429   5.468   2.392   4.358
 6496TIP3    H219430   5.371   2.455   4.260
 6497TIP3   OH219431   5.874   5.879   0.129
 6497TIP3    H119432   5.819   5.812   0.089
 6497TIP3    H219433   5.822   5.959   0.123
 6498TIP3   OH219434   6.071   5.906   4.788
 6498TIP3    H119435   6.042   5.825   4.829
 6498TIP3    H219436   6.156   5.884   4.749
 6499TIP3   OH219437   3.443   2.642   0.088
 6499TIP3    H119438   3.353   2.609   0.091
 6499TIP3    H219439   3.434   2.732   0.056
 6500TIP3   OH219440   5.788   3.097   6.764
 6500TIP3    H119441   5.872   3.138   6.783
 6500TIP3    H219442   5.752   3.148   6.691
 6501TIP3   OH219443   7.188   6.887   2.541
 6501TIP3    H119444   7.185   6.799   2.578
 6501TIP3    H219445   7.260   6.930   2.587
 6502TIP3   OH219446   6.054   1.727   5.509
 6502TIP3    H119447   6.005   1.658   5.464
 6502TIP3    H219448   6.108   1.767   5.441
 6503TIP3   OH219449   0.258   5.659   2.463
 6503TIP3    H119450   0.190   5.592   2.460
 6503TIP3    H219451   0.280   5.667   2.555
 6504TIP3   OH219452   6.862   6.805   3.097
 6504TIP3    H119453   6.907   6.767   3.172
 6504TIP3    H219454   6.850   6.897   3.121
 6505TIP3   OH219455   7.525   7.762   3.802
 6505TIP3    H119456   7.564   7.790   3.884
 6505TIP3    H219457   7.461   7.696   3.827
 6506TIP3   OH219458   6.280   7.640   0.101
 6506TIP3    H119459   6.343   7.575   0.132
 6506TIP3    H219460   6.228   7.663   0.178
 6507TIP3   OH219461   1.860   4.448   3.160
 6507TIP3    H119462   1.894   4.498   3.086
 6507TIP3    H219463   1.924   4.460   3.230
 6508TIP3   OH219464   4.237   0.111   0.057
 6508TIP3    H119465   4.265   0.051  -0.012
 6508TIP3    H219466   4.142   0.116   0.048
 6509TIP3   OH219467   2.669   3.650   0.175
 6509TIP3    H119468   2.678   3.741   0.203
 6509TIP3    H219469   2.753   3.630   0.134
 6510TIP3   OH219470   6.709   6.106   4.952
 6510TIP3    H119471   6.714   6.140   5.041
 6510TIP3    H219472   6.618   6.121   4.925
 6511TIP3   OH219473   6.404   0.533   1.095
 6511TIP3    H119474   6.386   0.557   1.186
 6511TIP3    H219475   6.340   0.583   1.044
 6512TIP3   OH219476   0.155   0.807   4.741
 6512TIP3    H119477   0.158   0.740   4.810
 6512TIP3    H219478   0.066   0.841   4.744
 6513TIP3   OH219479   2.421   2.402   5.166
 6513TIP3    H119480   2.515   2.405   5.145
 6513TIP3    H219481   2.377   2.414   5.082
 6514TIP3   OH219482   6.390   0.440   2.675
 6514TIP3    H119483   6.406   0.519   2.727
 6514TIP3    H219484   6.432   0.458   2.590
 6515TIP3   OH219485   6.885   1.480   5.553
 6515TIP3    H119486   6.873   1.448   5.463
 6515TIP3    H219487   6.807   1.532   5.570
 6516TIP3   OH219488   6.102   2.512   1.489
 6516TIP3    H119489   6.034   2.461   1.534
 6516TIP3    H219490   6.111   2.591   1.541
 6517TIP3   OH219491   4.479   7.552   0.641
 6517TIP3    H119492   4.486   7.457   0.649
 6517TIP3    H219493   4.444   7.581   0.725
 6518TIP3   OH219494   6.836   2.186   2.028
 6518TIP3    H119495   6.832   2.279   2.006
 6518TIP3    H219496   6.745   2.159   2.032
 6519TIP3   OH219497   1.043   4.211   2.525
 6519TIP3    H119498   1.042   4.291   2.578
 6519TIP3    H219499   1.127   4.213   2.480
 6520TIP3   OH219500   3.315   6.758   1.519
 6520TIP3    H119501   3.305   6.676   1.568
 6520TIP3    H219502   3.245   6.754   1.453
 6521TIP3   OH219503   4.434   0.421   2.436
 6521TIP3    H119504   4.416   0.355   2.369
 6521TIP3    H219505   4.392   0.388   2.515
 6522TIP3   OH219506   4.257   6.112   4.474
 6522TIP3    H119507   4.196   6.175   4.513
 6522TIP3    H219508   4.254   6.132   4.380
 6523TIP3   OH219509   0.575   6.771   2.112
 6523TIP3    H119510   0.616   6.696   2.154
 6523TIP3    H219511   0.606   6.847   2.162
 6524TIP3   OH219512   1.873   0.643   1.544
 6524TIP3    H119513   1.902   0.732   1.566
 6524TIP3    H219514   1.871   0.597   1.628
 6525TIP3   OH219515   0.370   0.169   1.336
 6525TIP3    H119516   0.277   0.192   1.333
 6525TIP3    H219517   0.386   0.120   1.256
 6526TIP3   OH219518   3.895   3.231   3.361
 6526TIP3    H119519   3.930   3.216   3.448
 6526TIP3    H219520   3.972   3.250   3.307
 6527TIP3   OH219521   5.694   2.245   1.688
 6527TIP3    H119522   5.711   2.189   1.612
 6527TIP3    H219523   5.604   2.226   1.713
 6528TIP3   OH219524   8.280   7.250   0.331
 6528TIP3    H119525   8.198   7.235   0.377
 6528TIP3    H219526   8.255   7.265   0.240
 6529TIP3   OH219527   5.648   4.309   3.418
 6529TIP3    H119528   5.713   4.240   3.422
 6529TIP3    H219529   5.591   4.286   3.345
 6530TIP3   OH219530   3.025   0.213   3.847
 6530TIP3    H119531   3.101   0.170   3.809
 6530TIP3    H219532   3.014   0.293   3.794
 6531TIP3   OH219533   2.648   1.471   3.189
 6531TIP3    H119534   2.699   1.454   3.269
 6531TIP3    H219535   2.683   1.555   3.157
 6532TIP3   OH219536   2.654   7.174   5.581
 6532TIP3    H119537   2.693   7.227   5.512
 6532TIP3    H219538   2.728   7.128   5.620
 6533TIP3   OH219539   6.681   0.457   3.430
 6533TIP3    H119540   6.753   0.426   3.485
 6533TIP3    H219541   6.723   0.516   3.368
 6534TIP3   OH219542   2.370   7.596   5.306
 6534TIP3    H119543   2.427   7.583   5.231
 6534TIP3    H219544   2.323   7.678   5.287
 6535TIP3   OH219545   7.529   2.612   6.605
 6535TIP3    H119546   7.621   2.625   6.583
 6535TIP3    H219547   7.497   2.548   6.541
 6536TIP3   OH219548   8.221   6.764   1.620
 6536TIP3    H119549   8.185   6.833   1.565
 6536TIP3    H219550   8.284   6.808   1.677
 6537TIP3   OH219551   0.242   5.481   6.031
 6537TIP3    H119552   0.289   5.463   6.112
 6537TIP3    H219553   0.306   5.528   5.977
 6538TIP3   OH219554   4.547   7.165   5.396
 6538TIP3    H119555   4.592   7.093   5.350
 6538TIP3    H219556   4.608   7.239   5.390
 6539TIP3   OH219557   8.252   3.943   6.505
 6539TIP3    H119558   8.245   4.039   6.501
 6539TIP3    H219559   8.309   3.920   6.432
 6540TIP3   OH219560   7.298   3.622   3.719
 6540TIP3    H119561   7.260   3.692   3.668
 6540TIP3    H219562   7.247   3.620   3.800
 6541TIP3   OH219563   6.939   6.095  -0.012
 6541TIP3    H119564   6.963   6.111   0.080
 6541TIP3    H219565   6.886   6.015  -0.009
 6542TIP3   OH219566   5.306   5.952   2.333
 6542TIP3    H119567   5.264   5.921   2.413
 6542TIP3    H219568   5.375   6.011   2.364
 6543TIP3   OH219569   0.129   7.713   0.733
 6543TIP3    H119570   0.180   7.636   0.760
 6543TIP3    H219571   0.193   7.784   0.731
 6544TIP3   OH219572   5.306   4.307   4.689
 6544TIP3    H119573   5.288   4.317   4.596
 6544TIP3    H219574   5.327   4.396   4.719
 6545TIP3   OH219575   4.255   0.617   6.373
 6545TIP3    H119576   4.243   0.691   6.433
 6545TIP3    H219577   4.221   0.542   6.421
 6546TIP3   OH219578   1.085   4.582   4.209
 6546TIP3    H119579   1.157   4.638   4.241
 6546TIP3    H219580   1.074   4.516   4.277
 6547TIP3   OH219581   5.427   4.163   5.856
 6547TIP3    H119582   5.357   4.227   5.869
 6547TIP3    H219583   5.507   4.213   5.868
 6548TIP3   OH219584   3.813   0.611   1.701
 6548TIP3    H119585   3.888   0.568   1.660
 6548TIP3    H219586   3.820   0.703   1.674
 6549TIP3   OH219587   5.944   4.243   2.620
 6549TIP3    H119588   5.990   4.216   2.540
 6549TIP3    H219589   5.991   4.198   2.691
 6550TIP3   OH219590   5.773   5.332   2.889
 6550TIP3    H119591   5.868   5.336   2.882
 6550TIP3    H219592   5.741   5.353   2.802
 6551TIP3   OH219593   2.464   5.886   2.050
 6551TIP3    H119594   2.483   5.980   2.052
 6551TIP3    H219595   2.446   5.863   2.141
 6552TIP3   OH219596   3.941   6.625   2.991
 6552TIP3    H119597   3.871   6.573   2.953
 6552TIP3    H219598   3.992   6.656   2.917
 6553TIP3   OH219599   6.677   4.595   0.392
 6553TIP3    H119600   6.768   4.621   0.376
 6553TIP3    H219601   6.676   4.568   0.483
 6554TIP3   OH219602   0.044   2.311   6.013
 6554TIP3    H119603   0.106   2.374   6.049
 6554TIP3    H219604  -0.023   2.365   5.971
 6555TIP3   OH219605   5.741   5.359   4.582
 6555TIP3    H119606   5.682   5.397   4.648
 6555TIP3    H219607   5.812   5.320   4.633
 6556TIP3   OH219608   8.143   6.570   2.425
 6556TIP3    H119609   8.129   6.491   2.477
 6556TIP3    H219610   8.182   6.632   2.486
 6557TIP3   OH219611   5.469   5.306   4.522
 6557TIP3    H119612   5.434   5.395   4.527
 6557TIP3    H219613   5.562   5.316   4.539
 6558TIP3   OH219614   8.090   1.181   1.575
 6558TIP3    H119615   8.164   1.135   1.534
 6558TIP3    H219616   8.129   1.228   1.648
 6559TIP3   OH219617   2.702   0.623   1.108
 6559TIP3    H119618   2.642   0.693   1.135
 6559TIP3    H219619   2.672   0.546   1.156
 6560TIP3   OH219620   6.708   6.733   3.681
 6560TIP3    H119621   6.742   6.783   3.607
 6560TIP3    H219622   6.646   6.672   3.642
 6561TIP3   OH219623   1.749   6.114   0.903
 6561TIP3    H119624   1.724   6.043   0.843
 6561TIP3    H219625   1.788   6.181   0.846
 6562TIP3   OH219626   5.091   5.158   6.373
 6562TIP3    H119627   5.003   5.145   6.338
 6562TIP3    H219628   5.120   5.241   6.333
 6563TIP3   OH219629   2.398   4.488   1.768
 6563TIP3    H119630   2.412   4.530   1.683
 6563TIP3    H219631   2.326   4.427   1.753
 6564TIP3   OH219632   4.528   0.282   2.847
 6564TIP3    H119633   4.513   0.306   2.938
 6564TIP3    H219634   4.619   0.308   2.830
 6565TIP3   OH219635   3.347   4.908   0.145
 6565TIP3    H119636   3.436   4.936   0.125
 6565TIP3    H219637   3.308   4.983   0.191
 6566TIP3   OH219638   8.115   5.473   2.883
 6566TIP3    H119639   8.044   5.514   2.833
 6566TIP3    H219640   8.128   5.530   2.958
 6567TIP3   OH219641   0.227   2.624   3.987
 6567TIP3    H119642   0.224   2.691   3.919
 6567TIP3    H219643   0.317   2.590   3.983
 6568TIP3   OH219644   2.588   0.609   0.320
 6568TIP3    H119645   2.621   0.698   0.313
 6568TIP3    H219646   2.606   0.584   0.410
 6569TIP3   OH219647   8.323   7.470   6.382
 6569TIP3    H119648   8.359   7.558   6.372
 6569TIP3    H219649   8.376   7.431   6.452
 6570TIP3   OH219650   1.106   0.298   3.092
 6570TIP3    H119651   1.108   0.252   3.008
 6570TIP3    H219652   1.031   0.358   3.085
 6571TIP3   OH219653   1.521   0.445   6.814
 6571TIP3    H119654   1.430   0.429   6.839
 6571TIP3    H219655   1.542   0.373   6.755
 6572TIP3   OH219656   6.230   1.699   2.002
 6572TIP3    H119657   6.324   1.698   2.020
 6572TIP3    H219658   6.200   1.784   2.033
 6573TIP3   OH219659   1.386   4.952   3.371
 6573TIP3    H119660   1.312   4.922   3.318
 6573TIP3    H219661   1.445   4.994   3.308
 6574TIP3   OH219662   5.110   2.038   2.026
 6574TIP3    H119663   5.198   2.074   2.027
 6574TIP3    H219664   5.101   1.996   1.941
 6575TIP3   OH219665   5.380   2.106   2.020
 6575TIP3    H119666   5.433   2.038   2.062
 6575TIP3    H219667   5.428   2.129   1.941
 6576TIP3   OH219668   4.140   4.442   3.763
 6576TIP3    H119669   4.196   4.487   3.827
 6576TIP3    H219670   4.172   4.472   3.678
 6577TIP3   OH219671   0.533   7.420   1.188
 6577TIP3    H119672   0.456   7.413   1.132
 6577TIP3    H219673   0.600   7.460   1.133
 6578TIP3   OH219674   5.358   3.728   3.303
 6578TIP3    H119675   5.361   3.797   3.369
 6578TIP3    H219676   5.442   3.683   3.312
 6579TIP3   OH219677   5.448   7.178   0.797
 6579TIP3    H119678   5.542   7.187   0.810
 6579TIP3    H219679   5.431   7.085   0.812
 6580TIP3   OH219680   0.481   7.850   2.928
 6580TIP3    H119681   0.509   7.834   2.838
 6580TIP3    H219682   0.423   7.777   2.948
 6581TIP3   OH219683   1.413   7.219   1.360
 6581TIP3    H119684   1.328   7.240   1.399
 6581TIP3    H219685   1.471   7.289   1.390
 6582TIP3   OH219686   2.346   6.547   5.129
 6582TIP3    H119687   2.371   6.530   5.039
 6582TIP3    H219688   2.335   6.460   5.168
 6583TIP3   OH219689   1.745   6.026   4.590
 6583TIP3    H119690   1.678   6.001   4.526
 6583TIP3    H219691   1.811   6.073   4.539
 6584TIP3   OH219692   5.962   4.504   2.497
 6584TIP3    H119693   5.922   4.434   2.548
 6584TIP3    H219694   6.002   4.461   2.422
 6585TIP3   OH219695   3.914   5.877   5.535
 6585TIP3    H119696   3.886   5.878   5.626
 6585TIP3    H219697   3.865   5.947   5.493
 6586TIP3   OH219698   7.476   6.902   3.754
 6586TIP3    H119699   7.530   6.932   3.827
 6586TIP3    H219700   7.398   6.959   3.756
 6587TIP3   OH219701   5.630   2.513   5.241
 6587TIP3    H119702   5.584   2.430   5.226
 6587TIP3    H219703   5.662   2.506   5.331
 6588TIP3   OH219704   2.641   1.321   2.948
 6588TIP3    H119705   2.644   1.414   2.969
 6588TIP3    H219706   2.678   1.278   3.025
 6589TIP3   OH219707   2.985   1.503   3.599
 6589TIP3    H119708   3.019   1.579   3.646
 6589TIP3    H219709   2.998   1.430   3.660
 6590TIP3   OH219710   5.599   6.568   0.929
 6590TIP3    H119711   5.577   6.501   0.994
 6590TIP3    H219712   5.548   6.545   0.852
 6591TIP3   OH219713   6.779   5.394   2.024
 6591TIP3    H119714   6.706   5.336   2.001
 6591TIP3    H219715   6.751   5.481   1.997
 6592TIP3   OH219716   7.268   2.608   4.562
 6592TIP3    H119717   7.256   2.659   4.482
 6592TIP3    H219718   7.239   2.520   4.540
 6593TIP3   OH219719   6.229   3.998   2.163
 6593TIP3    H119720   6.251   4.089   2.143
 6593TIP3    H219721   6.151   4.003   2.217
 6594TIP3   OH219722   7.261   0.198   5.302
 6594TIP3    H119723   7.329   0.266   5.306
 6594TIP3    H219724   7.251   0.180   5.209
 6595TIP3   OH219725   2.006   5.619   0.107
 6595TIP3    H119726   1.944   5.648   0.040
 6595TIP3    H219727   2.048   5.700   0.137
 6596TIP3   OH219728   1.596   5.560   1.959
 6596TIP3    H119729   1.684   5.599   1.960
 6596TIP3    H219730   1.539   5.630   1.989
 6597TIP3   OH219731   4.756   2.054   4.022
 6597TIP3    H119732   4.806   2.120   3.974
 6597TIP3    H219733   4.805   2.043   4.104
 6598TIP3   OH219734   5.685   4.807   1.942
 6598TIP3    H119735   5.766   4.859   1.943
 6598TIP3    H219736   5.616   4.872   1.952
 6599TIP3   OH219737   4.296   6.651   3.181
 6599TIP3    H119738   4.202   6.665   3.190
 6599TIP3    H219739   4.317   6.583   3.245
 6600TIP3   OH219740   4.391   7.299   4.279
 6600TIP3    H119741   4.359   7.388   4.289
 6600TIP3    H219742   4.311   7.246   4.270
 6601TIP3   OH219743   5.219   4.909   0.501
 6601TIP3    H119744   5.287   4.960   0.456
 6601TIP3    H219745   5.182   4.854   0.432
 6602TIP3   OH219746   1.396   2.966   2.797
 6602TIP3    H119747   1.348   3.011   2.727
 6602TIP3    H219748   1.401   3.030   2.868
 6603TIP3   OH219749   6.073   7.637   5.702
 6603TIP3    H119750   6.160   7.615   5.735
 6603TIP3    H219751   6.031   7.552   5.686
 6604TIP3   OH219752   5.731   3.287   0.686
 6604TIP3    H119753   5.721   3.292   0.781
 6604TIP3    H219754   5.643   3.272   0.653
 6605TIP3   OH219755   3.451   3.043   1.057
 6605TIP3    H119756   3.528   3.098   1.076
 6605TIP3    H219757   3.467   2.963   1.107
 6606TIP3   OH219758   3.217   4.385   6.586
 6606TIP3    H119759   3.168   4.304   6.604
 6606TIP3    H219760   3.285   4.386   6.653
 6607TIP3   OH219761   4.507   4.565   4.307
 6607TIP3    H119762   4.586   4.513   4.320
 6607TIP3    H219763   4.501   4.620   4.385
 6608TIP3   OH219764   3.785   3.107   6.766
 6608TIP3    H119765   3.714   3.077   6.710
 6608TIP3    H219766   3.741   3.152   6.839
 6609TIP3   OH219767   2.790   5.967   2.722
 6609TIP3    H119768   2.785   5.902   2.652
 6609TIP3    H219769   2.702   6.004   2.727
 6610TIP3   OH219770   4.524   4.500   0.149
 6610TIP3    H119771   4.592   4.473   0.087
 6610TIP3    H219772   4.442   4.494   0.099
 6611TIP3   OH219773   5.451   0.384   3.142
 6611TIP3    H119774   5.507   0.452   3.181
 6611TIP3    H219775   5.508   0.308   3.133
 6612TIP3   OH219776   4.436   6.442   2.126
 6612TIP3    H119777   4.416   6.437   2.032
 6612TIP3    H219778   4.499   6.371   2.140
 6613TIP3   OH219779   6.597   1.590   5.942
 6613TIP3    H119780   6.646   1.669   5.918
 6613TIP3    H219781   6.628   1.568   6.029
 6614TIP3   OH219782   5.746   3.066   2.458
 6614TIP3    H119783   5.705   3.117   2.389
 6614TIP3    H219784   5.678   3.056   2.525
 6615TIP3   OH219785   7.218   5.420   6.069
 6615TIP3    H119786   7.149   5.355   6.084
 6615TIP3    H219787   7.173   5.495   6.030
 6616TIP3   OH219788   5.696   7.916   3.842
 6616TIP3    H119789   5.688   7.918   3.747
 6616TIP3    H219790   5.743   7.835   3.861
 6617TIP3   OH219791   6.762   7.029   3.870
 6617TIP3    H119792   6.667   7.026   3.862
 6617TIP3    H219793   6.787   6.938   3.886
 6618TIP3   OH219794   0.793   6.196   4.806
 6618TIP3    H119795   0.746   6.266   4.852
 6618TIP3    H219796   0.875   6.237   4.778
 6619TIP3   OH219797   4.962   1.539   6.812
 6619TIP3    H119798   4.967   1.497   6.726
 6619TIP3    H219799   4.989   1.629   6.795
 6620TIP3   OH219800   0.400   1.317   0.370
 6620TIP3    H119801   0.423   1.409   0.363
 6620TIP3    H219802   0.461   1.282   0.434
 6621TIP3   OH219803   3.921   2.425   1.416
 6621TIP3    H119804   3.917   2.520   1.428
 6621TIP3    H219805   4.014   2.407   1.403
 6622TIP3   OH219806   2.923   3.608   0.088
 6622TIP3    H119807   3.001   3.664   0.090
 6622TIP3    H219808   2.930   3.560   0.006
 6623TIP3   OH219809   2.048   6.272   1.393
 6623TIP3    H119810   2.114   6.209   1.365
 6623TIP3    H219811   1.998   6.293   1.314
 6624TIP3   OH219812   5.496   7.646   5.812
 6624TIP3    H119813   5.550   7.710   5.766
 6624TIP3    H219814   5.425   7.697   5.850
 6625TIP3   OH219815   2.881   1.754   4.340
 6625TIP3    H119816   2.787   1.761   4.324
 6625TIP3    H219817   2.902   1.662   4.324
 6626TIP3   OH219818   5.612   4.405   4.622
 6626TIP3    H119819   5.625   4.316   4.654
 6626TIP3    H219820   5.698   4.446   4.629
 6627TIP3   OH219821   0.869   4.337   3.926
 6627TIP3    H119822   0.816   4.309   3.852
 6627TIP3    H219823   0.935   4.268   3.936
 6628TIP3   OH219824   1.416   1.896   3.307
 6628TIP3    H119825   1.367   1.955   3.250
 6628TIP3    H219826   1.391   1.808   3.276
 6629TIP3   OH219827   6.794   2.368   5.666
 6629TIP3    H119828   6.739   2.355   5.743
 6629TIP3    H219829   6.804   2.281   5.628
 6630TIP3   OH219830   6.070   4.847   1.850
 6630TIP3    H119831   6.079   4.758   1.884
 6630TIP3    H219832   6.029   4.896   1.921
 6631TIP3   OH219833   0.385   7.415   3.951
 6631TIP3    H119834   0.416   7.352   4.016
 6631TIP3    H219835   0.304   7.377   3.918
 6632TIP3   OH219836   7.393   2.102   6.653
 6632TIP3    H119837   7.298   2.103   6.660
 6632TIP3    H219838   7.412   2.146   6.570
 6633TIP3   OH219839   1.925   3.331   5.895
 6633TIP3    H119840   1.845   3.380   5.880
 6633TIP3    H219841   1.896   3.239   5.901
 6634TIP3   OH219842   5.432   1.401   1.292
 6634TIP3    H119843   5.503   1.457   1.260
 6634TIP3    H219844   5.457   1.378   1.381
 6635TIP3   OH219845   0.580   5.003   3.532
 6635TIP3    H119846   0.639   5.014   3.457
 6635TIP3    H219847   0.509   4.950   3.499
 6636TIP3   OH219848   7.464   4.003   6.398
 6636TIP3    H119849   7.545   3.973   6.439
 6636TIP3    H219850   7.462   3.958   6.314
 6637TIP3   OH219851   5.813   0.111   1.055
 6637TIP3    H119852   5.901   0.105   1.018
 6637TIP3    H219853   5.773   0.026   1.037
 6638TIP3   OH219854   6.891   1.600   4.766
 6638TIP3    H119855   6.929   1.688   4.767
 6638TIP3    H219856   6.954   1.546   4.814
 6639TIP3   OH219857   7.768   3.727   5.612
 6639TIP3    H119858   7.740   3.639   5.586
 6639TIP3    H219859   7.709   3.786   5.564
 6640TIP3   OH219860   7.058   0.676   3.970
 6640TIP3    H119861   7.011   0.634   3.898
 6640TIP3    H219862   7.075   0.605   4.032
 6641TIP3   OH219863   2.334   2.101   1.680
 6641TIP3    H119864   2.385   2.167   1.633
 6641TIP3    H219865   2.399   2.046   1.723
 6642TIP3   OH219866   2.925   7.547   0.734
 6642TIP3    H119867   2.850   7.496   0.765
 6642TIP3    H219868   3.001   7.492   0.752
 6643TIP3   OH219869   5.909   2.823   1.724
 6643TIP3    H119870   5.835   2.883   1.716
 6643TIP3    H219871   5.923   2.816   1.819
 6644TIP3   OH219872   1.606   0.407   3.014
 6644TIP3    H119873   1.556   0.329   2.991
 6644TIP3    H219874   1.541   0.466   3.052
 6645TIP3   OH219875   0.757   5.150   3.998
 6645TIP3    H119876   0.790   5.060   3.995
 6645TIP3    H219877   0.728   5.168   3.908
 6646TIP3   OH219878   1.294   3.183   4.464
 6646TIP3    H119879   1.200   3.199   4.464
 6646TIP3    H219880   1.333   3.271   4.468
 6647TIP3   OH219881   5.008   6.013   6.414
 6647TIP3    H119882   4.919   6.048   6.410
 6647TIP3    H219883   5.000   5.931   6.461
 6648TIP3   OH219884   3.147   4.668   3.058
 6648TIP3    H119885   3.205   4.595   3.080
 6648TIP3    H219886   3.199   4.746   3.071
 6649TIP3   OH219887   7.509   6.391   5.115
 6649TIP3    H119888   7.425   6.345   5.122
 6649TIP3    H219889   7.567   6.345   5.174
 6650TIP3   OH219890   5.410   3.453   0.375
 6650TIP3    H119891   5.402   3.403   0.456
 6650TIP3    H219892   5.455   3.533   0.400
 6651TIP3   OH219893   2.675   2.443   6.463
 6651TIP3    H119894   2.737   2.452   6.390
 6651TIP3    H219895   2.727   2.465   6.541
 6652TIP3   OH219896   0.920   6.762   2.741
 6652TIP3    H119897   0.994   6.750   2.681
 6652TIP3    H219898   0.875   6.677   2.739
 6653TIP3   OH219899   4.272   4.343   0.659
 6653TIP3    H119900   4.231   4.267   0.700
 6653TIP3    H219901   4.360   4.345   0.697
 6654TIP3   OH219902   1.529   0.236   4.575
 6654TIP3    H119903   1.488   0.299   4.635
 6654TIP3    H219904   1.466   0.228   4.503
 6655TIP3   OH219905   0.915   3.830   0.325
 6655TIP3    H119906   0.965   3.840   0.244
 6655TIP3    H219907   0.975   3.783   0.384
 6656TIP3   OH219908   5.104   7.391   5.497
 6656TIP3    H119909   5.185   7.343   5.479
 6656TIP3    H219910   5.043   7.325   5.530
 6657TIP3   OH219911   6.306   1.758   3.057
 6657TIP3    H119912   6.314   1.681   3.114
 6657TIP3    H219913   6.264   1.723   2.978
 6658TIP3   OH219914   0.228   1.444   2.114
 6658TIP3    H119915   0.253   1.392   2.190
 6658TIP3    H219916   0.279   1.524   2.122
 6659TIP3   OH219917   2.236   7.765   1.060
 6659TIP3    H119918   2.303   7.811   1.112
 6659TIP3    H219919   2.154   7.785   1.104
 6660TIP3   OH219920   6.364   0.770   4.616
 6660TIP3    H119921   6.284   0.768   4.669
 6660TIP3    H219922   6.358   0.691   4.562
 6661TIP3   OH219923   5.102   5.405   6.270
 6661TIP3    H119924   5.066   5.476   6.323
 6661TIP3    H219925   5.058   5.412   6.186
 6662TIP3   OH219926   2.005   4.674   1.089
 6662TIP3    H119927   2.049   4.752   1.057
 6662TIP3    H219928   1.933   4.706   1.142
 6663TIP3   OH219929   7.048   4.831   2.041
 6663TIP3    H119930   7.096   4.830   1.958
 6663TIP3    H219931   7.106   4.877   2.102
 6664TIP3   OH219932   6.317   2.740   3.536
 6664TIP3    H119933   6.316   2.835   3.545
 6664TIP3    H219934   6.388   2.722   3.475
 6665TIP3   OH219935   2.089   3.309   3.493
 6665TIP3    H119936   2.132   3.270   3.569
 6665TIP3    H219937   2.132   3.269   3.417
 6666TIP3   OH219938   4.659   7.123   3.293
 6666TIP3    H119939   4.677   7.112   3.200
 6666TIP3    H219940   4.587   7.062   3.311
 6667TIP3   OH219941   2.856   6.128   5.020
 6667TIP3    H119942   2.776   6.159   5.062
 6667TIP3    H219943   2.892   6.205   4.976
 6668TIP3   OH219944   3.630   0.890   6.227
 6668TIP3    H119945   3.603   0.878   6.136
 6668TIP3    H219946   3.681   0.970   6.227
 6669TIP3   OH219947   2.808   3.371   4.370
 6669TIP3    H119948   2.792   3.281   4.399
 6669TIP3    H219949   2.900   3.388   4.392
 6670TIP3   OH219950   7.218   4.483   0.571
 6670TIP3    H119951   7.190   4.433   0.647
 6670TIP3    H219952   7.292   4.535   0.603
 6671TIP3   OH219953   1.811   6.758   5.217
 6671TIP3    H119954   1.836   6.834   5.164
 6671TIP3    H219955   1.725   6.780   5.252
 6672TIP3   OH219956   5.452   0.351   6.337
 6672TIP3    H119957   5.414   0.274   6.293
 6672TIP3    H219958   5.377   0.397   6.374
 6673TIP3   OH219959   1.855   3.930   1.023
 6673TIP3    H119960   1.781   3.912   0.964
 6673TIP3    H219961   1.815   3.935   1.110
 6674TIP3   OH219962   7.522   2.958   1.237
 6674TIP3    H119963   7.515   3.052   1.256
 6674TIP3    H219964   7.548   2.954   1.145
 6675TIP3   OH219965   6.244   1.434   4.508
 6675TIP3    H119966   6.153   1.461   4.494
 6675TIP3    H219967   6.237   1.353   4.560
 6676TIP3   OH219968   0.311   1.041   1.893
 6676TIP3    H119969   0.370   0.980   1.848
 6676TIP3    H219970   0.325   1.125   1.849
 6677TIP3   OH219971   4.207   7.028   0.515
 6677TIP3    H119972   4.295   7.057   0.490
 6677TIP3    H219973   4.158   7.110   0.525
 6678TIP3   OH219974   3.108   7.417   1.684
 6678TIP3    H119975   3.109   7.339   1.629
 6678TIP3    H219976   3.030   7.465   1.657
 6679TIP3   OH219977   4.826   6.602   3.711
 6679TIP3    H119978   4.765   6.529   3.698
 6679TIP3    H219979   4.912   6.565   3.694
 6680TIP3   OH219980   1.522   6.173   4.303
 6680TIP3    H119981   1.445   6.122   4.277
 6680TIP3    H219982   1.485   6.251   4.344
 6681TIP3   OH219983   3.914   3.009   2.298
 6681TIP3    H119984   3.994   3.009   2.350
 6681TIP3    H219985   3.943   3.025   2.208
 6682TIP3   OH219986   3.450   5.004   2.023
 6682TIP3    H119987   3.451   4.908   2.031
 6682TIP3    H219988   3.357   5.027   2.025
 6683TIP3   OH219989   7.191   4.814   6.124
 6683TIP3    H119990   7.172   4.881   6.059
 6683TIP3    H219991   7.277   4.780   6.099
 6684TIP3   OH219992   7.573   5.914   6.084
 6684TIP3    H119993   7.557   5.856   6.010
 6684TIP3    H219994   7.561   5.858   6.161
 6685TIP3   OH219995   0.428   2.860   4.099
 6685TIP3    H119996   0.472   2.864   4.184
 6685TIP3    H219997   0.335   2.855   4.120
 6686TIP3   OH219998   2.188   1.139   1.810
 6686TIP3    H119999   2.236   1.211   1.853
 6686TIP3    H220000   2.136   1.182   1.742
 6687TIP3   OH220001   1.283   0.336   1.578
 6687TIP3    H120002   1.224   0.275   1.534
 6687TIP3    H220003   1.326   0.284   1.646
 6688TIP3   OH220004   5.873   5.559   6.123
 6688TIP3    H120005   5.856   5.581   6.031
 6688TIP3    H220006   5.890   5.643   6.165
 6689TIP3   OH220007   6.144   6.025   0.977
 6689TIP3    H120008   6.072   6.056   0.922
 6689TIP3    H220009   6.190   5.961   0.923
 6690TIP3   OH220010   3.869   6.790   0.958
 6690TIP3    H120011   3.940   6.748   0.909
 6690TIP3    H220012   3.867   6.880   0.924
 6691TIP3   OH220013   7.523   4.622   5.122
 6691TIP3    H120014   7.514   4.606   5.028
 6691TIP3    H220015   7.473   4.703   5.136
 6692TIP3   OH220016   3.157   6.207   5.056
 6692TIP3    H120017   3.089   6.250   5.005
 6692TIP3    H220018   3.129   6.217   5.147
 6693TIP3   OH220019   3.397   7.067   3.740
 6693TIP3    H120020   3.471   7.099   3.792
 6693TIP3    H220021   3.417   6.974   3.725
 6694TIP3   OH220022   5.715   3.708   3.590
 6694TIP3    H120023   5.660   3.781   3.560
 6694TIP3    H220024   5.660   3.630   3.579
 6695TIP3   OH220025   5.712   3.924   3.874
 6695TIP3    H120026   5.701   3.959   3.963
 6695TIP3    H220027   5.627   3.885   3.854
 6696TIP3   OH220028   4.604   0.589   5.327
 6696TIP3    H120029   4.560   0.515   5.369
 6696TIP3    H220030   4.679   0.550   5.283
 6697TIP3   OH220031   2.545   7.697   3.175
 6697TIP3    H120032   2.518   7.618   3.223
 6697TIP3    H220033   2.548   7.669   3.084
 6698TIP3   OH220034   0.567   6.839   0.366
 6698TIP3    H120035   0.480   6.804   0.350
 6698TIP3    H220036   0.625   6.785   0.312
 6699TIP3   OH220037   8.314   0.893   2.010
 6699TIP3    H120038   8.398   0.852   2.030
 6699TIP3    H220039   8.285   0.850   1.929
 6700TIP3   OH220040   1.066   1.455   3.303
 6700TIP3    H120041   0.998   1.491   3.360
 6700TIP3    H220042   1.136   1.430   3.362
 6701TIP3   OH220043   3.529   4.916   5.898
 6701TIP3    H120044   3.515   4.880   5.810
 6701TIP3    H220045   3.518   4.842   5.957
 6702TIP3   OH220046   2.292   2.285   3.729
 6702TIP3    H120047   2.215   2.230   3.749
 6702TIP3    H220048   2.296   2.347   3.801
 6703TIP3   OH220049   3.889   4.578   6.268
 6703TIP3    H120050   3.864   4.486   6.277
 6703TIP3    H220051   3.932   4.583   6.183
 6704TIP3   OH220052   8.235   6.773   4.579
 6704TIP3    H120053   8.230   6.861   4.541
 6704TIP3    H220054   8.143   6.748   4.592
 6705TIP3   OH220055   6.071   0.556   6.601
 6705TIP3    H120056   5.985   0.597   6.602
 6705TIP3    H220057   6.054   0.463   6.586
 6706TIP3   OH220058   8.378   7.266   0.667
 6706TIP3    H120059   8.307   7.203   0.678
 6706TIP3    H220060   8.337   7.351   0.685
 6707TIP3   OH220061   6.549   3.250   6.325
 6707TIP3    H120062   6.456   3.237   6.306
 6707TIP3    H220063   6.552   3.280   6.416
 6708TIP3   OH220064   3.879   0.773   6.149
 6708TIP3    H120065   3.893   0.754   6.242
 6708TIP3    H220066   3.896   0.867   6.142
 6709TIP3   OH220067   5.682   4.629   4.090
 6709TIP3    H120068   5.699   4.701   4.150
 6709TIP3    H220069   5.650   4.671   4.010
 6710TIP3   OH220070   6.782   2.924   2.137
 6710TIP3    H120071   6.808   2.865   2.207
 6710TIP3    H220072   6.807   2.878   2.056
 6711TIP3   OH220073   6.319   3.579   0.164
 6711TIP3    H120074   6.281   3.639   0.100
 6711TIP3    H220075   6.398   3.623   0.194
 6712TIP3   OH220076   4.135   5.807   3.864
 6712TIP3    H120077   4.049   5.769   3.846
 6712TIP3    H220078   4.178   5.813   3.778
 6713TIP3   OH220079   2.555   7.572   0.666
 6713TIP3    H120080   2.615   7.498   0.678
 6713TIP3    H220081   2.598   7.627   0.600
 6714TIP3   OH220082   2.401   6.443   5.608
 6714TIP3    H120083   2.418   6.475   5.519
 6714TIP3    H220084   2.373   6.352   5.596
 6715TIP3   OH220085   0.589   6.060   3.505
 6715TIP3    H120086   0.658   6.060   3.571
 6715TIP3    H220087   0.556   5.970   3.504
 6716TIP3   OH220088   1.380   5.695   5.082
 6716TIP3    H120089   1.360   5.630   5.015
 6716TIP3    H220090   1.306   5.756   5.078
 6717TIP3   OH220091   2.468   4.401   5.082
 6717TIP3    H120092   2.381   4.370   5.056
 6717TIP3    H220093   2.484   4.362   5.167
 6718TIP3   OH220094   4.949   7.379   1.836
 6718TIP3    H120095   4.866   7.355   1.794
 6718TIP3    H220096   4.924   7.399   1.926
 6719TIP3   OH220097   1.700   2.164   3.132
 6719TIP3    H120098   1.653   2.246   3.147
 6719TIP3    H220099   1.649   2.117   3.067
 6720TIP3   OH220100   6.927   3.859   3.840
 6720TIP3    H120101   6.881   3.777   3.819
 6720TIP3    H220102   7.007   3.854   3.787
 6721TIP3   OH220103   3.613   4.080   3.077
 6721TIP3    H120104   3.622   4.019   3.003
 6721TIP3    H220105   3.540   4.137   3.052
 6722TIP3   OH220106   4.643   1.010   2.412
 6722TIP3    H120107   4.636   0.979   2.322
 6722TIP3    H220108   4.585   1.086   2.416
 6723TIP3   OH220109   8.254   7.194   1.907
 6723TIP3    H120110   8.327   7.209   1.847
 6723TIP3    H220111   8.289   7.214   1.994
 6724TIP3   OH220112   0.226   3.297   1.502
 6724TIP3    H120113   0.319   3.279   1.491
 6724TIP3    H220114   0.223   3.381   1.548
 6725TIP3   OH220115   7.719   7.519   1.588
 6725TIP3    H120116   7.776   7.454   1.548
 6725TIP3    H220117   7.760   7.538   1.672
 6726TIP3   OH220118   2.715   0.862   3.321
 6726TIP3    H120119   2.702   0.782   3.270
 6726TIP3    H220120   2.642   0.864   3.382
 6727TIP3   OH220121   6.816   3.092   3.876
 6727TIP3    H120122   6.808   3.176   3.921
 6727TIP3    H220123   6.840   3.031   3.945
 6728TIP3   OH220124   0.218   6.941   5.271
 6728TIP3    H120125   0.284   6.940   5.340
 6728TIP3    H220126   0.252   7.002   5.206
 6729TIP3   OH220127   6.655   6.855   2.617
 6729TIP3    H120128   6.700   6.778   2.653
 6729TIP3    H220129   6.701   6.930   2.654
 6730TIP3   OH220130   7.688   5.468   0.946
 6730TIP3    H120131   7.721   5.430   1.028
 6730TIP3    H220132   7.731   5.553   0.941
 6731TIP3   OH220133   4.016   1.027   6.553
 6731TIP3    H120134   3.928   1.050   6.525
 6731TIP3    H220135   4.026   1.068   6.639
 6732TIP3   OH220136   1.318   0.298   5.388
 6732TIP3    H120137   1.339   0.337   5.473
 6732TIP3    H220138   1.288   0.371   5.334
 6733TIP3   OH220139   5.250   3.644   2.497
 6733TIP3    H120140   5.206   3.690   2.568
 6733TIP3    H220141   5.232   3.698   2.419
 6734TIP3   OH220142   1.709   6.164   0.510
 6734TIP3    H120143   1.743   6.079   0.481
 6734TIP3    H220144   1.614   6.156   0.503
 6735TIP3   OH220145   5.855   7.709   1.739
 6735TIP3    H120146   5.803   7.769   1.792
 6735TIP3    H220147   5.929   7.761   1.710
 6736TIP3   OH220148   2.754   0.423   4.593
 6736TIP3    H120149   2.829   0.457   4.544
 6736TIP3    H220150   2.729   0.344   4.546
 6737TIP3   OH220151   2.819   5.070   3.453
 6737TIP3    H120152   2.898   5.081   3.507
 6737TIP3    H220153   2.803   4.976   3.454
 6738TIP3   OH220154   6.353   1.817   6.322
 6738TIP3    H120155   6.375   1.762   6.397
 6738TIP3    H220156   6.314   1.757   6.259
 6739TIP3   OH220157   3.168   1.805   1.461
 6739TIP3    H120158   3.135   1.834   1.376
 6739TIP3    H220159   3.204   1.718   1.444
 6740TIP3   OH220160   6.432   5.167   2.520
 6740TIP3    H120161   6.386   5.215   2.451
 6740TIP3    H220162   6.409   5.213   2.601
 6741TIP3   OH220163   2.726   3.723   1.740
 6741TIP3    H120164   2.812   3.697   1.773
 6741TIP3    H220165   2.702   3.655   1.678
 6742TIP3   OH220166   7.998   3.986   6.029
 6742TIP3    H120167   8.051   4.007   5.951
 6742TIP3    H220168   7.945   3.911   6.002
 6743TIP3   OH220169   3.058   2.588   1.497
 6743TIP3    H120170   3.096   2.670   1.526
 6743TIP3    H220171   2.996   2.612   1.428
 6744TIP3   OH220172   7.739   4.936   6.836
 6744TIP3    H120173   7.740   4.862   6.897
 6744TIP3    H220174   7.653   4.931   6.794
 6745TIP3   OH220175   7.282   0.791   6.073
 6745TIP3    H120176   7.376   0.776   6.082
 6745TIP3    H220177   7.276   0.876   6.028
 6746TIP3   OH220178   7.347   0.035   0.181
 6746TIP3    H120179   7.401   0.076   0.113
 6746TIP3    H220180   7.264   0.016   0.137
 6747TIP3   OH220181   6.697   2.586   3.111
 6747TIP3    H120182   6.786   2.569   3.082
 6747TIP3    H220183   6.641   2.542   3.046
 6748TIP3   OH220184   7.017   5.779   0.956
 6748TIP3    H120185   6.966   5.700   0.939
 6748TIP3    H220186   6.992   5.804   1.045
 6749TIP3   OH220187   6.445   2.614   1.490
 6749TIP3    H120188   6.412   2.680   1.550
 6749TIP3    H220189   6.519   2.656   1.447
 6750TIP3   OH220190   6.131   2.593   5.376
 6750TIP3    H120191   6.183   2.533   5.323
 6750TIP3    H220192   6.070   2.634   5.314
 6751TIP3   OH220193   0.529   1.486   5.653
 6751TIP3    H120194   0.499   1.558   5.598
 6751TIP3    H220195   0.455   1.426   5.658
 6752TIP3   OH220196   2.692   5.281   6.067
 6752TIP3    H120197   2.662   5.241   5.985
 6752TIP3    H220198   2.612   5.305   6.113
 6753TIP3   OH220199   6.433   0.327   4.685
 6753TIP3    H120200   6.378   0.368   4.618
 6753TIP3    H220201   6.376   0.262   4.726
 6754TIP3   OH220202   4.499   6.215   3.987
 6754TIP3    H120203   4.496   6.126   4.024
 6754TIP3    H220204   4.584   6.219   3.943
 6755TIP3   OH220205   7.622   2.414   0.372
 6755TIP3    H120206   7.588   2.501   0.389
 6755TIP3    H220207   7.552   2.354   0.399
 6756TIP3   OH220208   5.585   1.909   1.894
 6756TIP3    H120209   5.518   1.847   1.865
 6756TIP3    H220210   5.653   1.904   1.827
 6757TIP3   OH220211   6.638   6.528   5.239
 6757TIP3    H120212   6.605   6.615   5.262
 6757TIP3    H220213   6.733   6.538   5.240
 6758TIP3   OH220214   6.917   1.432   1.056
 6758TIP3    H120215   7.003   1.390   1.055
 6758TIP3    H220216   6.931   1.514   1.103
 6759TIP3   OH220217   1.768   2.528   6.789
 6759TIP3    H120218   1.710   2.464   6.830
 6759TIP3    H220219   1.719   2.610   6.794
 6760TIP3   OH220220   0.390   0.543   1.029
 6760TIP3    H120221   0.449   0.468   1.026
 6760TIP3    H220222   0.310   0.509   1.069
 6761TIP3   OH220223   2.679   4.125   5.162
 6761TIP3    H120224   2.588   4.103   5.146
 6761TIP3    H220225   2.724   4.103   5.080
 6762TIP3   OH220226   7.989   6.116   2.654
 6762TIP3    H120227   7.925   6.084   2.717
 6762TIP3    H220228   7.989   6.050   2.585
 6763TIP3   OH220229   8.147   6.711   4.133
 6763TIP3    H120230   8.107   6.668   4.059
 6763TIP3    H220231   8.206   6.776   4.094
 6764TIP3   OH220232   4.029   5.654   5.372
 6764TIP3    H120233   4.047   5.727   5.430
 6764TIP3    H220234   4.019   5.693   5.285
 6765TIP3   OH220235   5.253   1.463   6.709
 6765TIP3    H120236   5.234   1.438   6.619
 6765TIP3    H220237   5.253   1.381   6.758
 6766TIP3   OH220238   7.811   4.118   0.691
 6766TIP3    H120239   7.839   4.076   0.610
 6766TIP3    H220240   7.833   4.210   0.679
 6767TIP3   OH220241   4.828   4.085   6.572
 6767TIP3    H120242   4.857   4.147   6.506
 6767TIP3    H220243   4.853   3.999   6.538
 6768TIP3   OH220244   4.914   2.419   0.926
 6768TIP3    H120245   4.915   2.414   0.831
 6768TIP3    H220246   4.875   2.337   0.955
 6769TIP3   OH220247   5.596   5.065   1.611
 6769TIP3    H120248   5.576   5.064   1.518
 6769TIP3    H220249   5.684   5.029   1.618
 6770TIP3   OH220250   0.937   3.004   0.198
 6770TIP3    H120251   0.870   3.070   0.180
 6770TIP3    H220252   0.913   2.969   0.284
 6771TIP3   OH220253   2.488   2.766   6.805
 6771TIP3    H120254   2.553   2.778   6.735
 6771TIP3    H220255   2.445   2.852   6.811
 6772TIP3   OH220256   3.582   3.727   3.127
 6772TIP3    H120257   3.538   3.704   3.045
 6772TIP3    H220258   3.532   3.803   3.160
 6773TIP3   OH220259   0.978   3.354   3.315
 6773TIP3    H120260   1.023   3.299   3.250
 6773TIP3    H220261   0.886   3.353   3.288
 6774TIP3   OH220262   1.506   0.331   6.025
 6774TIP3    H120263   1.496   0.290   5.939
 6774TIP3    H220264   1.427   0.383   6.037
 6775TIP3   OH220265   1.297   5.758   3.107
 6775TIP3    H120266   1.263   5.809   3.033
 6775TIP3    H220267   1.219   5.728   3.153
 6776TIP3   OH220268   1.378   2.252   4.669
 6776TIP3    H120269   1.375   2.159   4.688
 6776TIP3    H220270   1.451   2.285   4.721
 6777TIP3   OH220271   0.207   0.583   6.870
 6777TIP3    H120272   0.288   0.546   6.907
 6777TIP3    H220273   0.234   0.665   6.830
 6778TIP3   OH220274   7.944   4.770   4.081
 6778TIP3    H120275   7.993   4.823   4.144
 6778TIP3    H220276   7.935   4.827   4.005
 6779TIP3   OH220277   2.933   7.389  -0.045
 6779TIP3    H120278   2.856   7.364   0.006
 6779TIP3    H220279   3.001   7.407   0.021
 6780TIP3   OH220280   2.710   0.479   3.439
 6780TIP3    H120281   2.698   0.385   3.435
 6780TIP3    H220282   2.621   0.515   3.434
 6781TIP3   OH220283   5.155   5.979   3.604
 6781TIP3    H120284   5.104   6.020   3.674
 6781TIP3    H220285   5.232   5.943   3.648
 6782TIP3   OH220286   1.409   0.210   0.724
 6782TIP3    H120287   1.478   0.165   0.772
 6782TIP3    H220288   1.357   0.254   0.792
 6783TIP3   OH220289   1.703   1.577   2.312
 6783TIP3    H120290   1.745   1.491   2.317
 6783TIP3    H220291   1.775   1.638   2.296
 6784TIP3   OH220292   4.480   3.330   5.010
 6784TIP3    H120293   4.485   3.292   5.098
 6784TIP3    H220294   4.558   3.298   4.965
 6785TIP3   OH220295   1.599   1.917   0.502
 6785TIP3    H120296   1.520   1.969   0.483
 6785TIP3    H220297   1.566   1.831   0.526
 6786TIP3   OH220298   5.238   4.608   4.190
 6786TIP3    H120299   5.316   4.566   4.225
 6786TIP3    H220300   5.272   4.680   4.137
 6787TIP3   OH220301   1.384   2.894   5.316
 6787TIP3    H120302   1.403   2.832   5.246
 6787TIP3    H220303   1.399   2.846   5.397
 6788TIP3   OH220304   2.532   2.591   1.648
 6788TIP3    H120305   2.484   2.508   1.654
 6788TIP3    H220306   2.605   2.572   1.589
 6789TIP3   OH220307   4.831   6.756   5.696
 6789TIP3    H120308   4.831   6.798   5.782
 6789TIP3    H220309   4.867   6.669   5.711
 6790TIP3   OH220310   7.083   1.957   1.482
 6790TIP3    H120311   7.009   1.912   1.522
 6790TIP3    H220312   7.059   2.050   1.483
 6791TIP3   OH220313   7.774   6.436   1.683
 6791TIP3    H120314   7.826   6.472   1.755
 6791TIP3    H220315   7.776   6.504   1.615
 6792TIP3   OH220316   1.120   3.421   5.582
 6792TIP3    H120317   1.056   3.407   5.653
 6792TIP3    H220318   1.147   3.333   5.557
 6793TIP3   OH220319   5.185   4.324   5.838
 6793TIP3    H120320   5.195   4.418   5.824
 6793TIP3    H220321   5.134   4.294   5.763
 6794TIP3   OH220322   0.929   2.293   1.520
 6794TIP3    H120323   1.014   2.280   1.478
 6794TIP3    H220324   0.882   2.352   1.461
 6795TIP3   OH220325   6.261   1.204   5.861
 6795TIP3    H120326   6.167   1.203   5.843
 6795TIP3    H220327   6.301   1.177   5.778
 6796TIP3   OH220328   6.223   1.256   6.141
 6796TIP3    H120329   6.281   1.311   6.194
 6796TIP3    H220330   6.245   1.279   6.050
 6797TIP3   OH220331   4.596   5.019   4.372
 6797TIP3    H120332   4.691   5.011   4.367
 6797TIP3    H220333   4.581   5.097   4.426
 6798TIP3   OH220334   3.946   7.528   3.509
 6798TIP3    H120335   3.968   7.545   3.417
 6798TIP3    H220336   4.029   7.539   3.555
 6799TIP3   OH220337   3.175   1.100   1.945
 6799TIP3    H120338   3.196   1.101   1.852
 6799TIP3    H220339   3.204   1.013   1.975
 6800TIP3   OH220340   1.164   2.078   4.845
 6800TIP3    H120341   1.242   2.041   4.804
 6800TIP3    H220342   1.108   2.104   4.772
 6801TIP3   OH220343   6.258   1.612   4.025
 6801TIP3    H120344   6.181   1.654   4.064
 6801TIP3    H220345   6.280   1.541   4.085
 6802TIP3   OH220346   1.629   5.739   5.160
 6802TIP3    H120347   1.650   5.647   5.180
 6802TIP3    H220348   1.534   5.742   5.159
 6803TIP3   OH220349   7.263   7.561   1.117
 6803TIP3    H120350   7.338   7.611   1.084
 6803TIP3    H220351   7.265   7.479   1.067
 6804TIP3   OH220352   8.048   1.282   6.474
 6804TIP3    H120353   8.025   1.195   6.505
 6804TIP3    H220354   8.121   1.268   6.414
 6805TIP3   OH220355   6.472   6.416   0.328
 6805TIP3    H120356   6.544   6.469   0.293
 6805TIP3    H220357   6.411   6.480   0.364
 6806TIP3   OH220358   6.497   2.113   5.572
 6806TIP3    H120359   6.410   2.134   5.605
 6806TIP3    H220360   6.531   2.195   5.537
 6807TIP3   OH220361   4.053   6.645   5.735
 6807TIP3    H120362   4.139   6.646   5.776
 6807TIP3    H220363   4.031   6.552   5.727
 6808TIP3   OH220364   0.565   2.396   5.617
 6808TIP3    H120365   0.593   2.371   5.705
 6808TIP3    H220366   0.525   2.482   5.628
 6809TIP3   OH220367   1.811   0.401   4.601
 6809TIP3    H120368   1.848   0.315   4.582
 6809TIP3    H220369   1.873   0.441   4.662
 6810TIP3   OH220370   8.433   4.066   5.264
 6810TIP3    H120371   8.434   4.159   5.288
 6810TIP3    H220372   8.341   4.040   5.277
 6811TIP3   OH220373   6.381   4.199   2.386
 6811TIP3    H120374   6.355   4.107   2.380
 6811TIP3    H220375   6.301   4.248   2.367
 6812TIP3   OH220376   5.684   7.168   0.387
 6812TIP3    H120377   5.762   7.119   0.361
 6812TIP3    H220378   5.634   7.180   0.306
 6813TIP3   OH220379   5.520   6.094   6.596
 6813TIP3    H120380   5.464   6.131   6.664
 6813TIP3    H220381   5.505   6.149   6.519
 6814TIP3   OH220382   7.681   3.598   6.543
 6814TIP3    H120383   7.721   3.654   6.610
 6814TIP3    H220384   7.711   3.510   6.564
 6815TIP3   OH220385   6.370   4.536   1.507
 6815TIP3    H120386   6.297   4.484   1.539
 6815TIP3    H220387   6.440   4.472   1.493
 6816TIP3   OH220388   7.332   4.140   2.344
 6816TIP3    H120389   7.269   4.147   2.417
 6816TIP3    H220390   7.277   4.127   2.267
 6817TIP3   OH220391   6.496   1.289   3.553
 6817TIP3    H120392   6.591   1.280   3.552
 6817TIP3    H220393   6.470   1.266   3.642
 6818TIP3   OH220394   4.484   6.267   5.747
 6818TIP3    H120395   4.557   6.232   5.696
 6818TIP3    H220396   4.411   6.272   5.685
 6819TIP3   OH220397   3.609   0.648   4.517
 6819TIP3    H120398   3.637   0.716   4.456
 6819TIP3    H220399   3.682   0.587   4.521
 6820TIP3   OH220400   4.849   4.213   4.924
 6820TIP3    H120401   4.928   4.171   4.889
 6820TIP3    H220402   4.820   4.155   4.994
 6821TIP3   OH220403   4.027   6.118   0.445
 6821TIP3    H120404   4.092   6.163   0.499
 6821TIP3    H220405   3.944   6.161   0.466
 6822TIP3   OH220406   2.485   5.869   6.471
 6822TIP3    H120407   2.560   5.925   6.492
 6822TIP3    H220408   2.417   5.897   6.532
 6823TIP3   OH220409   6.173   5.142   0.303
 6823TIP3    H120410   6.227   5.197   0.246
 6823TIP3    H220411   6.117   5.093   0.243
 6824TIP3   OH220412   1.052   4.028   0.516
 6824TIP3    H120413   1.011   3.942   0.527
 6824TIP3    H220414   1.138   4.020   0.558
 6825TIP3   OH220415   1.705   7.706   1.864
 6825TIP3    H120416   1.779   7.705   1.804
 6825TIP3    H220417   1.628   7.700   1.808
 6826TIP3   OH220418   8.235   4.713   4.118
 6826TIP3    H120419   8.277   4.737   4.201
 6826TIP3    H220420   8.160   4.659   4.143
 6827TIP3   OH220421   5.197   3.389   6.069
 6827TIP3    H120422   5.172   3.298   6.057
 6827TIP3    H220423   5.229   3.417   5.984
 6828TIP3   OH220424   2.578   7.536   4.128
 6828TIP3    H120425   2.656   7.484   4.148
 6828TIP3    H220426   2.547   7.566   4.213
 6829TIP3   OH220427   3.195   5.495   3.852
 6829TIP3    H120428   3.279   5.521   3.813
 6829TIP3    H220429   3.138   5.477   3.777
 6830TIP3   OH220430   1.856   2.602   4.874
 6830TIP3    H120431   1.851   2.547   4.952
 6830TIP3    H220432   1.935   2.573   4.829
 6831TIP3   OH220433   5.811   5.246   3.813
 6831TIP3    H120434   5.842   5.246   3.904
 6831TIP3    H220435   5.785   5.155   3.797
 6832TIP3   OH220436   6.112   7.665   1.037
 6832TIP3    H120437   6.035   7.722   1.031
 6832TIP3    H220438   6.143   7.658   0.946
 6833TIP3   OH220439   7.392   0.490   3.905
 6833TIP3    H120440   7.406   0.535   3.989
 6833TIP3    H220441   7.429   0.550   3.840
 6834TIP3   OH220442   7.178   0.635   4.639
 6834TIP3    H120443   7.211   0.688   4.567
 6834TIP3    H220444   7.175   0.546   4.604
 6835TIP3   OH220445   2.911   7.375   3.848
 6835TIP3    H120446   3.001   7.399   3.870
 6835TIP3    H220447   2.879   7.327   3.925
 6836TIP3   OH220448   0.279   5.081   5.724
 6836TIP3    H120449   0.257   5.028   5.800
 6836TIP3    H220450   0.330   5.154   5.759
 6837TIP3   OH220451   8.170   3.491   1.829
 6837TIP3    H120452   8.207   3.409   1.797
 6837TIP3    H220453   8.086   3.499   1.784
 6838TIP3   OH220454   4.434   0.461   1.746
 6838TIP3    H120455   4.509   0.520   1.753
 6838TIP3    H220456   4.388   0.488   1.667
 6839TIP3   OH220457   1.520   7.214   3.187
 6839TIP3    H120458   1.584   7.276   3.221
 6839TIP3    H220459   1.522   7.226   3.092
 6840TIP3   OH220460   0.347   4.745   2.698
 6840TIP3    H120461   0.380   4.776   2.614
 6840TIP3    H220462   0.306   4.822   2.737
 6841TIP3   OH220463   8.208   4.407   1.174
 6841TIP3    H120464   8.171   4.322   1.151
 6841TIP3    H220465   8.220   4.403   1.269
 6842TIP3   OH220466   0.033   7.252   3.573
 6842TIP3    H120467   0.014   7.292   3.658
 6842TIP3    H220468   0.094   7.313   3.531
 6843TIP3   OH220469   2.981   0.613   6.024
 6843TIP3    H120470   2.890   0.638   6.035
 6843TIP3    H220471   3.025   0.694   5.998
 6844TIP3   OH220472   7.285   6.427   0.787
 6844TIP3    H120473   7.341   6.503   0.768
 6844TIP3    H220474   7.222   6.425   0.715
 6845TIP3   OH220475   3.417   2.114   1.899
 6845TIP3    H120476   3.362   2.148   1.829
 6845TIP3    H220477   3.507   2.131   1.868
 6846TIP3   OH220478   6.096   6.845   5.511
 6846TIP3    H120479   6.139   6.900   5.446
 6846TIP3    H220480   6.017   6.893   5.535
 6847TIP3   OH220481   6.357   1.518   3.476
 6847TIP3    H120482   6.410   1.547   3.402
 6847TIP3    H220483   6.407   1.448   3.517
 6848TIP3   OH220484   6.566   5.842   2.377
 6848TIP3    H120485   6.646   5.880   2.339
 6848TIP3    H220486   6.592   5.754   2.403
 6849TIP3   OH220487   3.038   6.739   2.655
 6849TIP3    H120488   3.097   6.790   2.710
 6849TIP3    H220489   2.987   6.687   2.717
 6850TIP3   OH220490   1.846   1.632   0.633
 6850TIP3    H120491   1.768   1.606   0.583
 6850TIP3    H220492   1.918   1.625   0.571
 6851TIP3   OH220493   8.405   2.009   5.734
 6851TIP3    H120494   8.348   1.956   5.678
 6851TIP3    H220495   8.455   2.062   5.673
 6852TIP3   OH220496   6.746   4.230   6.134
 6852TIP3    H120497   6.836   4.207   6.112
 6852TIP3    H220498   6.716   4.284   6.060
 6853TIP3   OH220499   6.308   5.838   4.629
 6853TIP3    H120500   6.332   5.754   4.590
 6853TIP3    H220501   6.391   5.882   4.645
 6854TIP3   OH220502   7.490   4.936   3.098
 6854TIP3    H120503   7.487   4.901   3.009
 6854TIP3    H220504   7.406   4.913   3.136
 6855TIP3   OH220505   2.502   4.181   3.213
 6855TIP3    H120506   2.468   4.092   3.210
 6855TIP3    H220507   2.429   4.235   3.182
 6856TIP3   OH220508   1.638   4.729   6.442
 6856TIP3    H120509   1.576   4.788   6.401
 6856TIP3    H220510   1.705   4.714   6.376
 6857TIP3   OH220511   6.084   5.535   2.038
 6857TIP3    H120512   6.108   5.627   2.033
 6857TIP3    H220513   6.165   5.487   2.025
 6858TIP3   OH220514   6.391   0.533   0.552
 6858TIP3    H120515   6.319   0.532   0.615
 6858TIP3    H220516   6.353   0.497   0.472
 6859TIP3   OH220517   4.560   6.927   1.877
 6859TIP3    H120518   4.468   6.906   1.859
 6859TIP3    H220519   4.586   6.986   1.806
 6860TIP3   OH220520   3.958   7.543   1.000
 6860TIP3    H120521   4.027   7.481   0.976
 6860TIP3    H220522   3.971   7.617   0.941
 6861TIP3   OH220523   0.753   0.812   0.067
 6861TIP3    H120524   0.669   0.858   0.070
 6861TIP3    H220525   0.818   0.882   0.061
 6862TIP3   OH220526   3.532   7.740   3.614
 6862TIP3    H120527   3.576   7.805   3.559
 6862TIP3    H220528   3.521   7.664   3.556
 6863TIP3   OH220529   6.280   4.316   2.914
 6863TIP3    H120530   6.331   4.280   2.986
 6863TIP3    H220531   6.330   4.294   2.835
 6864TIP3   OH220532   0.348   2.788   5.258
 6864TIP3    H120533   0.256   2.774   5.233
 6864TIP3    H220534   0.390   2.820   5.179
 6865TIP3   OH220535   8.220   3.781   3.601
 6865TIP3    H120536   8.245   3.692   3.578
 6865TIP3    H220537   8.291   3.812   3.658
 6866TIP3   OH220538   5.629   4.152   0.177
 6866TIP3    H120539   5.690   4.083   0.203
 6866TIP3    H220540   5.543   4.110   0.179
 6867TIP3   OH220541   3.466   5.493   2.232
 6867TIP3    H120542   3.528   5.563   2.252
 6867TIP3    H220543   3.505   5.414   2.268
 6868TIP3   OH220544   1.081   5.769   5.628
 6868TIP3    H120545   0.988   5.773   5.648
 6868TIP3    H220546   1.124   5.761   5.714
 6869TIP3   OH220547   4.322   3.363   3.432
 6869TIP3    H120548   4.404   3.354   3.481
 6869TIP3    H220549   4.348   3.348   3.341
 6870TIP3   OH220550   6.999   2.496   2.174
 6870TIP3    H120551   7.063   2.444   2.125
 6870TIP3    H220552   6.921   2.497   2.118
 6871TIP3   OH220553   7.148   7.703   4.679
 6871TIP3    H120554   7.204   7.651   4.621
 6871TIP3    H220555   7.140   7.651   4.758
 6872TIP3   OH220556   4.914   7.087   6.656
 6872TIP3    H120557   4.821   7.110   6.662
 6872TIP3    H220558   4.924   7.013   6.716
 6873TIP3   OH220559   7.698   3.415   4.933
 6873TIP3    H120560   7.676   3.409   5.026
 6873TIP3    H220561   7.618   3.388   4.888
 6874TIP3   OH220562   3.942   7.435   6.823
 6874TIP3    H120563   3.894   7.361   6.858
 6874TIP3    H220564   4.029   7.430   6.864
 6875TIP3   OH220565   1.788   4.165   3.995
 6875TIP3    H120566   1.735   4.243   4.015
 6875TIP3    H220567   1.723   4.096   3.980
 6876TIP3   OH220568   2.076   0.976   3.441
 6876TIP3    H120569   2.143   0.924   3.487
 6876TIP3    H220570   2.118   1.061   3.426
 6877TIP3   OH220571   2.756   2.918   6.708
 6877TIP3    H120572   2.833   2.879   6.668
 6877TIP3    H220573   2.721   2.977   6.640
 6878TIP3   OH220574   6.113   1.790   5.229
 6878TIP3    H120575   6.139   1.722   5.167
 6878TIP3    H220576   6.100   1.868   5.174
 6879TIP3   OH220577   1.967   1.058   1.963
 6879TIP3    H120578   2.056   1.051   1.930
 6879TIP3    H220579   1.911   1.044   1.887
 6880TIP3   OH220580   7.868   1.021   4.440
 6880TIP3    H120581   7.961   1.001   4.455
 6880TIP3    H220582   7.835   0.945   4.391
 6881TIP3   OH220583   1.473   4.111   3.182
 6881TIP3    H120584   1.560   4.151   3.175
 6881TIP3    H220585   1.453   4.084   3.092
 6882TIP3   OH220586   7.252   4.641   2.978
 6882TIP3    H120587   7.341   4.674   2.969
 6882TIP3    H220588   7.263   4.549   3.004
 6883TIP3   OH220589   4.833   7.321   3.428
 6883TIP3    H120590   4.790   7.245   3.389
 6883TIP3    H220591   4.773   7.349   3.498
 6884TIP3   OH220592   8.271   6.719   6.797
 6884TIP3    H120593   8.208   6.693   6.864
 6884TIP3    H220594   8.258   6.656   6.726
 6885TIP3   OH220595   4.620   7.230   3.932
 6885TIP3    H120596   4.554   7.286   3.892
 6885TIP3    H220597   4.616   7.251   4.026
 6886TIP3   OH220598   3.803   5.973   6.620
 6886TIP3    H120599   3.722   5.959   6.670
 6886TIP3    H220600   3.783   6.049   6.564
 6887TIP3   OH220601   0.978   5.988   1.584
 6887TIP3    H120602   0.976   5.992   1.488
 6887TIP3    H220603   0.903   5.934   1.608
 6888TIP3   OH220604   6.176   6.476   5.390
 6888TIP3    H120605   6.240   6.408   5.368
 6888TIP3    H220606   6.198   6.549   5.332
 6889TIP3   OH220607   5.112   4.444   4.888
 6889TIP3    H120608   5.188   4.493   4.857
 6889TIP3    H220609   5.123   4.356   4.851
 6890TIP3   OH220610   0.920   5.239   1.336
 6890TIP3    H120611   0.989   5.241   1.402
 6890TIP3    H220612   0.918   5.327   1.300
 6891TIP3   OH220613   7.430   1.513   6.741
 6891TIP3    H120614   7.519   1.542   6.759
 6891TIP3    H220615   7.381   1.534   6.820
 6892TIP3   OH220616   5.570   0.787   3.058
 6892TIP3    H120617   5.648   0.735   3.074
 6892TIP3    H220618   5.516   0.774   3.135
 6893TIP3   OH220619   3.328   7.198   3.196
 6893TIP3    H120620   3.241   7.158   3.201
 6893TIP3    H220621   3.314   7.290   3.219
 6894TIP3   OH220622   1.227   5.275   3.761
 6894TIP3    H120623   1.266   5.228   3.687
 6894TIP3    H220624   1.137   5.292   3.734
 6895TIP3   OH220625   1.671   5.516   0.144
 6895TIP3    H120626   1.585   5.533   0.106
 6895TIP3    H220627   1.664   5.429   0.182
 6896TIP3   OH220628   5.773   3.363   4.385
 6896TIP3    H120629   5.782   3.393   4.295
 6896TIP3    H220630   5.801   3.272   4.384
 6897TIP3   OH220631   4.332   7.462   4.949
 6897TIP3    H120632   4.400   7.431   5.009
 6897TIP3    H220633   4.271   7.511   5.005
 6898TIP3   OH220634   2.281   7.220   6.759
 6898TIP3    H120635   2.353   7.234   6.697
 6898TIP3    H220636   2.308   7.269   6.837
 6899TIP3   OH220637   7.559   3.861   4.258
 6899TIP3    H120638   7.596   3.923   4.195
 6899TIP3    H220639   7.587   3.894   4.344
 6900TIP3   OH220640   4.796   5.326   3.362
 6900TIP3    H120641   4.808   5.421   3.356
 6900TIP3    H220642   4.749   5.314   3.445
 6901TIP3   OH220643   5.494   4.831   4.014
 6901TIP3    H120644   5.534   4.788   3.938
 6901TIP3    H220645   5.417   4.875   3.979
 6902TIP3   OH220646   7.055   4.073   1.008
 6902TIP3    H120647   7.039   4.164   0.986
 6902TIP3    H220648   7.049   4.027   0.924
 6903TIP3   OH220649   6.580   5.167   1.322
 6903TIP3    H120650   6.632   5.142   1.398
 6903TIP3    H220651   6.489   5.154   1.350
 6904TIP3   OH220652   5.077   0.801   0.577
 6904TIP3    H120653   5.006   0.791   0.513
 6904TIP3    H220654   5.143   0.854   0.532
 6905TIP3   OH220655   1.372   5.231   3.523
 6905TIP3    H120656   1.323   5.216   3.442
 6905TIP3    H220657   1.424   5.310   3.505
 6906TIP3   OH220658   7.063   5.306   6.791
 6906TIP3    H120659   7.024   5.229   6.833
 6906TIP3    H220660   7.001   5.330   6.722
 6907TIP3   OH220661   6.909   6.514   5.279
 6907TIP3    H120662   6.932   6.593   5.329
 6907TIP3    H220663   6.960   6.444   5.319
 6908TIP3   OH220664   7.814   7.336   5.312
 6908TIP3    H120665   7.893   7.364   5.359
 6908TIP3    H220666   7.831   7.245   5.289
 6909TIP3   OH220667   2.296   5.235   3.384
 6909TIP3    H120668   2.375   5.181   3.380
 6909TIP3    H220669   2.270   5.233   3.476
 6910TIP3   OH220670   7.578   3.476   1.133
 6910TIP3    H120671   7.589   3.384   1.154
 6910TIP3    H220672   7.649   3.496   1.072
 6911TIP3   OH220673   3.424   5.005   2.820
 6911TIP3    H120674   3.445   5.097   2.837
 6911TIP3    H220675   3.505   4.968   2.785
 6912TIP3   OH220676   6.139   6.691   1.612
 6912TIP3    H120677   6.211   6.728   1.663
 6912TIP3    H220678   6.181   6.659   1.532
 6913TIP3   OH220679   1.497   6.924   3.282
 6913TIP3    H120680   1.466   6.958   3.198
 6913TIP3    H220681   1.425   6.870   3.315
 6914TIP3   OH220682   1.294   1.150   6.659
 6914TIP3    H120683   1.267   1.091   6.730
 6914TIP3    H220684   1.275   1.101   6.579
 6915TIP3   OH220685   6.080   5.543   3.458
 6915TIP3    H120686   6.064   5.481   3.387
 6915TIP3    H220687   6.070   5.492   3.538
 6916TIP3   OH220688   7.744   6.365   2.714
 6916TIP3    H120689   7.664   6.339   2.669
 6916TIP3    H220690   7.736   6.460   2.724
 6917TIP3   OH220691   6.088   6.268   4.362
 6917TIP3    H120692   6.153   6.199   4.370
 6917TIP3    H220693   6.136   6.349   4.379
 6918TIP3   OH220694   3.213   4.605   5.569
 6918TIP3    H120695   3.269   4.599   5.491
 6918TIP3    H220696   3.156   4.680   5.552
 6919TIP3   OH220697   0.934   1.145   4.384
 6919TIP3    H120698   0.913   1.198   4.460
 6919TIP3    H220699   1.027   1.162   4.368
 6920TIP3   OH220700   7.638   2.577   0.046
 6920TIP3    H120701   7.646   2.611  -0.043
 6920TIP3    H220702   7.728   2.577   0.080
 6921TIP3   OH220703   5.632   2.974   0.573
 6921TIP3    H120704   5.541   2.995   0.595
 6921TIP3    H220705   5.666   3.053   0.533
 6922TIP3   OH220706   6.915   6.236   6.847
 6922TIP3    H120707   6.881   6.299   6.910
 6922TIP3    H220708   7.010   6.251   6.847
 6923TIP3   OH220709   0.739   5.711   2.813
 6923TIP3    H120710   0.687   5.699   2.733
 6923TIP3    H220711   0.774   5.624   2.832
 6924TIP3   OH220712   0.070   4.191   6.635
 6924TIP3    H120713   0.021   4.215   6.557
 6924TIP3    H220714   0.010   4.136   6.687
 6925TIP3   OH220715   1.208   1.024   0.281
 6925TIP3    H120716   1.302   1.041   0.291
 6925TIP3    H220717   1.184   1.068   0.199
 6926TIP3   OH220718   2.396   0.088   6.371
 6926TIP3    H120719   2.470   0.131   6.329
 6926TIP3    H220720   2.435   0.037   6.442
 6927TIP3   OH220721   7.890   4.273   6.063
 6927TIP3    H120722   7.941   4.312   5.993
 6927TIP3    H220723   7.903   4.178   6.053
 6928TIP3   OH220724   2.986   6.948   3.005
 6928TIP3    H120725   3.035   6.883   2.955
 6928TIP3    H220726   2.985   7.026   2.949
 6929TIP3   OH220727   6.038   4.540   3.509
 6929TIP3    H120728   5.973   4.611   3.507
 6929TIP3    H220729   6.053   4.525   3.603
 6930TIP3   OH220730   0.360   5.257   1.118
 6930TIP3    H120731   0.357   5.162   1.102
 6930TIP3    H220732   0.437   5.287   1.069
 6931TIP3   OH220733   4.027   7.633   5.922
 6931TIP3    H120734   3.958   7.589   5.973
 6931TIP3    H220735   4.095   7.654   5.986
 6932TIP3   OH220736   1.193   1.260   5.965
 6932TIP3    H120737   1.206   1.228   6.054
 6932TIP3    H220738   1.101   1.287   5.962
 6933TIP3   OH220739   4.580   3.381   0.948
 6933TIP3    H120740   4.651   3.379   0.884
 6933TIP3    H220741   4.592   3.464   0.995
 6934TIP3   OH220742   7.459   6.078   3.675
 6934TIP3    H120743   7.425   5.989   3.680
 6934TIP3    H220744   7.553   6.070   3.690
 6935TIP3   OH220745   7.042   6.688   0.641
 6935TIP3    H120746   7.121   6.718   0.687
 6935TIP3    H220747   6.994   6.639   0.707
 6936TIP3   OH220748   1.237   7.020   0.644
 6936TIP3    H120749   1.314   6.965   0.655
 6936TIP3    H220750   1.235   7.076   0.722
 6937TIP3   OH220751   0.572   2.399   2.992
 6937TIP3    H120752   0.519   2.364   3.064
 6937TIP3    H220753   0.641   2.449   3.034
 6938TIP3   OH220754   3.611   7.509   4.958
 6938TIP3    H120755   3.575   7.530   4.872
 6938TIP3    H220756   3.706   7.521   4.949
 6939TIP3   OH220757   4.408   2.486   4.924
 6939TIP3    H120758   4.475   2.497   4.857
 6939TIP3    H220759   4.326   2.479   4.874
 6940TIP3   OH220760   8.184   1.802   4.667
 6940TIP3    H120761   8.182   1.709   4.689
 6940TIP3    H220762   8.092   1.830   4.671
 6941TIP3   OH220763   3.573   0.830   4.261
 6941TIP3    H120764   3.572   0.900   4.196
 6941TIP3    H220765   3.522   0.865   4.334
 6942TIP3   OH220766   6.216   3.083   5.458
 6942TIP3    H120767   6.212   3.103   5.551
 6942TIP3    H220768   6.304   3.048   5.444
 6943TIP3   OH220769   2.409   4.391   2.272
 6943TIP3    H120770   2.424   4.467   2.215
 6943TIP3    H220771   2.369   4.326   2.214
 6944TIP3   OH220772   5.361   6.094   1.858
 6944TIP3    H120773   5.389   6.096   1.949
 6944TIP3    H220774   5.442   6.099   1.807
 6945TIP3   OH220775   5.919   7.244   0.641
 6945TIP3    H120776   5.855   7.304   0.603
 6945TIP3    H220777   5.917   7.167   0.584
 6946TIP3   OH220778   3.008   4.130   1.150
 6946TIP3    H120779   2.920   4.143   1.115
 6946TIP3    H220780   3.066   4.159   1.081
 6947TIP3   OH220781   3.681   1.438   3.848
 6947TIP3    H120782   3.626   1.464   3.774
 6947TIP3    H220783   3.734   1.515   3.867
 6948TIP3   OH220784   6.938   1.565   1.555
 6948TIP3    H120785   7.032   1.553   1.569
 6948TIP3    H220786   6.898   1.487   1.594
 6949TIP3   OH220787   4.605   0.071   6.633
 6949TIP3    H120788   4.624  -0.009   6.584
 6949TIP3    H220789   4.663   0.067   6.709
 6950TIP3   OH220790   2.270   1.231   5.375
 6950TIP3    H120791   2.355   1.235   5.419
 6950TIP3    H220792   2.212   1.190   5.439
 6951TIP3   OH220793   8.245   0.265   5.200
 6951TIP3    H120794   8.246   0.181   5.246
 6951TIP3    H220795   8.290   0.326   5.259
 6952TIP3   OH220796   3.678   2.150   1.812
 6952TIP3    H120797   3.737   2.128   1.739
 6952TIP3    H220798   3.622   2.219   1.778
 6953TIP3   OH220799   3.286   4.695   1.766
 6953TIP3    H120800   3.301   4.673   1.675
 6953TIP3    H220801   3.231   4.624   1.800
 6954TIP3   OH220802   0.741   0.082   0.049
 6954TIP3    H120803   0.752   0.030   0.128
 6954TIP3    H220804   0.657   0.054   0.013
 6955TIP3   OH220805   1.982   7.094   1.427
 6955TIP3    H120806   1.933   7.099   1.345
 6955TIP3    H220807   2.023   7.180   1.437
 6956TIP3   OH220808   7.641   4.785   5.434
 6956TIP3    H120809   7.683   4.755   5.515
 6956TIP3    H220810   7.640   4.708   5.378
 6957TIP3   OH220811   3.105   5.966   4.132
 6957TIP3    H120812   3.113   6.055   4.167
 6957TIP3    H220813   3.028   5.931   4.177
 6958TIP3   OH220814   4.861   7.600   3.291
 6958TIP3    H120815   4.869   7.509   3.319
 6958TIP3    H220816   4.851   7.649   3.372
 6959TIP3   OH220817   5.018   1.440   1.494
 6959TIP3    H120818   4.982   1.514   1.544
 6959TIP3    H220819   5.021   1.368   1.556
 6960TIP3   OH220820   1.602   2.806   2.709
 6960TIP3    H120821   1.666   2.843   2.648
 6960TIP3    H220822   1.551   2.882   2.738
 6961TIP3   OH220823   6.977   3.924   5.457
 6961TIP3    H120824   6.952   3.944   5.367
 6961TIP3    H220825   6.933   3.990   5.510
 6962TIP3   OH220826   0.692   1.405   0.207
 6962TIP3    H120827   0.769   1.438   0.161
 6962TIP3    H220828   0.714   1.413   0.299
 6963TIP3   OH220829   7.502   1.789   5.291
 6963TIP3    H120830   7.487   1.864   5.233
 6963TIP3    H220831   7.495   1.825   5.379
 6964TIP3   OH220832   3.707   0.299   3.651
 6964TIP3    H120833   3.721   0.301   3.746
 6964TIP3    H220834   3.735   0.211   3.625
 6965TIP3   OH220835   4.839   4.221   0.620
 6965TIP3    H120836   4.828   4.260   0.707
 6965TIP3    H220837   4.879   4.291   0.568
 6966TIP3   OH220838   0.597   1.031   2.815
 6966TIP3    H120839   0.525   1.013   2.876
 6966TIP3    H220840   0.621   0.945   2.781
 6967TIP3   OH220841   7.155   5.044   4.950
 6967TIP3    H120842   7.217   5.069   5.018
 6967TIP3    H220843   7.178   5.099   4.875
 6968TIP3   OH220844   4.962   6.382   2.521
 6968TIP3    H120845   4.913   6.348   2.596
 6968TIP3    H220846   5.034   6.319   2.510
 6969TIP3   OH220847   3.966   1.891   4.544
 6969TIP3    H120848   4.037   1.831   4.522
 6969TIP3    H220849   4.007   1.977   4.547
 6970TIP3   OH220850   5.654   3.891   5.627
 6970TIP3    H120851   5.689   3.883   5.538
 6970TIP3    H220852   5.589   3.961   5.621
 6971TIP3   OH220853   5.045   3.972   4.447
 6971TIP3    H120854   5.129   4.016   4.435
 6971TIP3    H220855   5.068   3.886   4.481
 6972TIP3   OH220856   3.099   5.714   5.146
 6972TIP3    H120857   3.095   5.778   5.217
 6972TIP3    H220858   3.132   5.764   5.071
 6973TIP3   OH220859   0.911   3.595   0.591
 6973TIP3    H120860   0.891   3.689   0.590
 6973TIP3    H220861   0.990   3.588   0.536
 6974TIP3   OH220862   6.026   2.457   0.076
 6974TIP3    H120863   6.082   2.481   0.150
 6974TIP3    H220864   6.014   2.539   0.028
 6975TIP3   OH220865   3.182   2.793   3.972
 6975TIP3    H120866   3.264   2.756   4.006
 6975TIP3    H220867   3.125   2.797   4.049
 6976TIP3   OH220868   3.966   2.176   0.876
 6976TIP3    H120869   3.875   2.154   0.857
 6976TIP3    H220870   3.962   2.260   0.921
 6977TIP3   OH220871   4.789   7.640   5.072
 6977TIP3    H120872   4.861   7.636   5.009
 6977TIP3    H220873   4.827   7.610   5.154
 6978TIP3   OH220874   7.520   7.710   4.877
 6978TIP3    H120875   7.563   7.761   4.809
 6978TIP3    H220876   7.511   7.622   4.839
 6979TIP3   OH220877   4.937   5.619   5.099
 6979TIP3    H120878   4.997   5.602   5.171
 6979TIP3    H220879   4.891   5.699   5.123
 6980TIP3   OH220880   0.966   0.828   2.807
 6980TIP3    H120881   0.900   0.776   2.853
 6980TIP3    H220882   1.049   0.803   2.849
 6981TIP3   OH220883   4.324   7.531   5.310
 6981TIP3    H120884   4.385   7.471   5.267
 6981TIP3    H220885   4.380   7.587   5.365
 6982TIP3   OH220886   0.612   6.839   0.864
 6982TIP3    H120887   0.679   6.818   0.799
 6982TIP3    H220888   0.583   6.754   0.897
 6983TIP3   OH220889   4.595   5.421   1.092
 6983TIP3    H120890   4.644   5.341   1.070
 6983TIP3    H220891   4.553   5.446   1.009
 6984TIP3   OH220892   1.333   6.739   4.955
 6984TIP3    H120893   1.243   6.758   4.928
 6984TIP3    H220894   1.346   6.791   5.035
 6985TIP3   OH220895   4.520   5.874   4.722
 6985TIP3    H120896   4.586   5.943   4.716
 6985TIP3    H220897   4.558   5.801   4.673
 6986TIP3   OH220898   6.645   0.306   1.829
 6986TIP3    H120899   6.698   0.234   1.794
 6986TIP3    H220900   6.707   0.362   1.875
 6987TIP3   OH220901   1.506   5.515   2.478
 6987TIP3    H120902   1.594   5.478   2.491
 6987TIP3    H220903   1.471   5.526   2.566
 6988TIP3   OH220904   3.903   7.787   2.440
 6988TIP3    H120905   3.943   7.733   2.508
 6988TIP3    H220906   3.862   7.724   2.380
 6989TIP3   OH220907   1.985   1.543   5.837
 6989TIP3    H120908   2.054   1.581   5.892
 6989TIP3    H220909   2.031   1.514   5.758
 6990TIP3   OH220910   1.697   1.353   4.908
 6990TIP3    H120911   1.746   1.417   4.857
 6990TIP3    H220912   1.620   1.333   4.856
 6991TIP3   OH220913   3.203   4.395   0.195
 6991TIP3    H120914   3.282   4.424   0.149
 6991TIP3    H220915   3.234   4.363   0.279
 6992TIP3   OH220916   1.274   2.948   2.393
 6992TIP3    H120917   1.244   2.895   2.467
 6992TIP3    H220918   1.194   2.984   2.356
 6993TIP3   OH220919   5.125   7.311   2.111
 6993TIP3    H120920   5.080   7.249   2.055
 6993TIP3    H220921   5.203   7.336   2.063
 6994TIP3   OH220922   1.103   5.502   2.263
 6994TIP3    H120923   1.019   5.547   2.274
 6994TIP3    H220924   1.105   5.439   2.335
 6995TIP3   OH220925   1.888   6.868   6.781
 6995TIP3    H120926   1.879   6.792   6.723
 6995TIP3    H220927   1.982   6.876   6.795
 6996TIP3   OH220928   7.589   3.229   5.969
 6996TIP3    H120929   7.564   3.205   6.058
 6996TIP3    H220930   7.623   3.148   5.931
 6997TIP3   OH220931   0.371   1.688   2.152
 6997TIP3    H120932   0.429   1.755   2.187
 6997TIP3    H220933   0.304   1.677   2.220
 6998TIP3   OH220934   5.459   5.290   1.043
 6998TIP3    H120935   5.462   5.270   0.950
 6998TIP3    H220936   5.542   5.258   1.078
 6999TIP3   OH220937   2.352   7.618   6.639
 6999TIP3    H120938   2.417   7.686   6.621
 6999TIP3    H220939   2.401   7.536   6.629
 7000TIP3   OH220940   6.072   5.055   3.397
 7000TIP3    H120941   6.105   5.074   3.485
 7000TIP3    H220942   6.065   4.960   3.394
 7001TIP3   OH220943   5.197   0.500   2.621
 7001TIP3    H120944   5.202   0.535   2.533
 7001TIP3    H220945   5.189   0.405   2.609
 7002TIP3   OH220946   2.469   0.399   0.571
 7002TIP3    H120947   2.432   0.424   0.656
 7002TIP3    H220948   2.560   0.426   0.576
 7003TIP3   OH220949   2.126   7.830   2.368
 7003TIP3    H120950   2.109   7.919   2.399
 7003TIP3    H220951   2.083   7.826   2.283
 7004TIP3   OH220952   1.613   0.034   4.770
 7004TIP3    H120953   1.547  -0.032   4.789
 7004TIP3    H220954   1.568   0.100   4.718
 7005TIP3   OH220955   2.314   7.236   2.001
 7005TIP3    H120956   2.381   7.207   1.939
 7005TIP3    H220957   2.318   7.332   1.999
 7006TIP3   OH220958   6.107   3.017   6.019
 7006TIP3    H120959   6.139   3.063   6.097
 7006TIP3    H220960   6.028   2.972   6.050
 7007TIP3   OH220961   8.122   2.310   0.519
 7007TIP3    H120962   8.115   2.350   0.606
 7007TIP3    H220963   8.182   2.367   0.471
 7008TIP3   OH220964   6.980   2.098   3.774
 7008TIP3    H120965   6.887   2.100   3.751
 7008TIP3    H220966   7.025   2.096   3.689
 7009TIP3   OH220967   3.101   4.585   6.242
 7009TIP3    H120968   3.140   4.578   6.155
 7009TIP3    H220969   3.155   4.650   6.287
 7010TIP3   OH220970   2.152   0.315   5.230
 7010TIP3    H120971   2.231   0.365   5.251
 7010TIP3    H220972   2.082   0.381   5.230
 7011TIP3   OH220973   4.966   1.258   1.701
 7011TIP3    H120974   4.882   1.211   1.707
 7011TIP3    H220975   5.025   1.197   1.657
 7012TIP3   OH220976   2.204   6.975   0.558
 7012TIP3    H120977   2.230   7.042   0.620
 7012TIP3    H220978   2.209   7.018   0.472
 7013TIP3   OH220979   2.244   1.628   6.002
 7013TIP3    H120980   2.308   1.558   6.011
 7013TIP3    H220981   2.296   1.707   5.986
 7014TIP3   OH220982   3.293   5.339   1.468
 7014TIP3    H120983   3.227   5.385   1.416
 7014TIP3    H220984   3.338   5.282   1.405
 7015TIP3   OH220985   1.466   0.393   3.820
 7015TIP3    H120986   1.555   0.369   3.793
 7015TIP3    H220987   1.436   0.318   3.872
 7016TIP3   OH220988   0.364   3.100   2.181
 7016TIP3    H120989   0.294   3.124   2.242
 7016TIP3    H220990   0.444   3.137   2.220
 7017TIP3   OH220991   5.746   5.391   2.295
 7017TIP3    H120992   5.840   5.410   2.300
 7017TIP3    H220993   5.739   5.322   2.228
 7018TIP3   OH220994   1.948   4.051   4.215
 7018TIP3    H120995   1.894   4.080   4.142
 7018TIP3    H220996   2.033   4.032   4.176
 7019TIP3   OH220997   8.043   7.370   5.456
 7019TIP3    H120998   8.138   7.355   5.464
 7019TIP3    H220999   8.024   7.435   5.524
 7020TIP3   OH221000   2.033   4.679   0.787
 7020TIP3    H121001   2.117   4.698   0.745
 7020TIP3    H221002   2.056   4.635   0.869
 7021TIP3   OH221003   3.040   1.838   2.243
 7021TIP3    H121004   3.135   1.831   2.231
 7021TIP3    H221005   3.023   1.932   2.243
 7022TIP3   OH221006   3.407   0.559   5.437
 7022TIP3    H121007   3.315   0.551   5.414
 7022TIP3    H221008   3.448   0.597   5.359
 7023TIP3   OH221009   4.768   3.424   0.747
 7023TIP3    H121010   4.689   3.464   0.711
 7023TIP3    H221011   4.840   3.475   0.710
 7024TIP3   OH221012   4.109   3.033   3.022
 7024TIP3    H121013   4.187   3.045   2.968
 7024TIP3    H221014   4.130   2.959   3.079
 7025TIP3   OH221015   6.700   0.884   0.879
 7025TIP3    H121016   6.736   0.805   0.839
 7025TIP3    H221017   6.605   0.874   0.871
 7026TIP3   OH221018   3.093   4.564   1.485
 7026TIP3    H121019   3.008   4.526   1.505
 7026TIP3    H221020   3.153   4.525   1.549
 7027TIP3   OH221021   6.776   7.586   6.550
 7027TIP3    H121022   6.694   7.608   6.594
 7027TIP3    H221023   6.837   7.569   6.622
 7028TIP3   OH221024   5.613   6.071   0.046
 7028TIP3    H121025   5.640   6.083  -0.045
 7028TIP3    H221026   5.605   6.160   0.080
 7029TIP3   OH221027   4.027   7.660   4.614
 7029TIP3    H121028   3.984   7.743   4.593
 7029TIP3    H221029   3.956   7.603   4.644
 7030TIP3   OH221030   4.495   4.601   3.312
 7030TIP3    H121031   4.404   4.630   3.317
 7030TIP3    H221032   4.546   4.679   3.334
 7031TIP3   OH221033   6.840   0.178   3.177
 7031TIP3    H121034   6.881   0.251   3.224
 7031TIP3    H221035   6.766   0.217   3.131
 7032TIP3   OH221036   7.015   7.243   3.149
 7032TIP3    H121037   7.072   7.319   3.161
 7032TIP3    H221038   7.045   7.181   3.215
 7033TIP3   OH221039   7.171   5.957   6.459
 7033TIP3    H121040   7.125   5.946   6.543
 7033TIP3    H221041   7.207   5.870   6.440
 7034TIP3   OH221042   8.050   6.724   5.172
 7034TIP3    H121043   8.021   6.764   5.089
 7034TIP3    H221044   8.011   6.637   5.171
 7035TIP3   OH221045   6.171   1.051   3.627
 7035TIP3    H121046   6.250   1.008   3.660
 7035TIP3    H221047   6.204   1.128   3.581
 7036TIP3   OH221048   3.593   4.757   0.364
 7036TIP3    H121049   3.517   4.746   0.307
 7036TIP3    H221050   3.590   4.849   0.390
 7037TIP3   OH221051   6.709   7.003   4.923
 7037TIP3    H121052   6.747   6.975   5.007
 7037TIP3    H221053   6.758   7.081   4.900
 7038TIP3   OH221054   7.907   2.831   0.651
 7038TIP3    H121055   7.852   2.757   0.626
 7038TIP3    H221056   7.845   2.896   0.684
 7039TIP3   OH221057   3.620   0.116   3.983
 7039TIP3    H121058   3.653   0.141   4.069
 7039TIP3    H221059   3.685   0.151   3.922
 7040TIP3   OH221060   2.428   6.253   6.727
 7040TIP3    H121061   2.453   6.327   6.784
 7040TIP3    H221062   2.375   6.293   6.658
 7041TIP3   OH221063   3.440   2.537   2.698
 7041TIP3    H121064   3.471   2.610   2.644
 7041TIP3    H221065   3.476   2.459   2.655
 7042TIP3   OH221066   8.435   1.206   2.727
 7042TIP3    H121067   8.341   1.185   2.729
 7042TIP3    H221068   8.449   1.245   2.641
 7043TIP3   OH221069   0.952   4.507   1.631
 7043TIP3    H121070   0.897   4.448   1.579
 7043TIP3    H221071   0.996   4.450   1.694
 7044TIP3   OH221072   6.668   0.127   2.452
 7044TIP3    H121073   6.576   0.152   2.454
 7044TIP3    H221074   6.667   0.032   2.465
 7045TIP3   OH221075   2.223   6.589   3.135
 7045TIP3    H121076   2.176   6.507   3.118
 7045TIP3    H221077   2.186   6.651   3.072
 7046TIP3   OH221078   6.658   2.752   6.154
 7046TIP3    H121079   6.637   2.820   6.090
 7046TIP3    H221080   6.611   2.674   6.123
 7047TIP3   OH221081   7.920   7.235   1.903
 7047TIP3    H121082   7.998   7.239   1.959
 7047TIP3    H221083   7.902   7.141   1.893
 7048TIP3   OH221084   7.504   4.247   6.055
 7048TIP3    H121085   7.534   4.234   5.965
 7048TIP3    H221086   7.428   4.190   6.063
 7049TIP3   OH221087   0.810   1.446   6.298
 7049TIP3    H121088   0.799   1.388   6.373
 7049TIP3    H221089   0.724   1.446   6.255
 7050TIP3   OH221090   7.688   7.888   4.699
 7050TIP3    H121091   7.741   7.812   4.673
 7050TIP3    H221092   7.748   7.942   4.751
 7051TIP3   OH221093   3.041   4.584   2.395
 7051TIP3    H121094   3.134   4.574   2.376
 7051TIP3    H221095   3.036   4.585   2.490
 7052TIP3   OH221096   2.833   0.168   1.843
 7052TIP3    H121097   2.768   0.187   1.774
 7052TIP3    H221098   2.780   0.155   1.922
 7053TIP3   OH221099   5.109   4.329   4.223
 7053TIP3    H121100   5.096   4.278   4.142
 7053TIP3    H221101   5.119   4.419   4.193
 7054TIP3   OH221102   5.253   5.560   5.660
 7054TIP3    H121103   5.275   5.578   5.751
 7054TIP3    H221104   5.278   5.469   5.646
 7055TIP3   OH221105   8.007   6.764   2.849
 7055TIP3    H121106   7.993   6.858   2.846
 7055TIP3    H221107   8.101   6.753   2.863
 7056TIP3   OH221108   3.304   6.462   4.534
 7056TIP3    H121109   3.386   6.412   4.527
 7056TIP3    H221110   3.306   6.497   4.623
 7057TIP3   OH221111   2.160   5.518   6.253
 7057TIP3    H121112   2.182   5.604   6.289
 7057TIP3    H221113   2.198   5.455   6.315
 7058TIP3   OH221114   6.491   1.799   1.961
 7058TIP3    H121115   6.474   1.888   1.992
 7058TIP3    H221116   6.488   1.806   1.866
 7059TIP3   OH221117   3.451   1.869   1.780
 7059TIP3    H121118   3.419   1.952   1.815
 7059TIP3    H221119   3.480   1.820   1.856
 7060TIP3   OH221120   1.154   2.446   6.336
 7060TIP3    H121121   1.060   2.463   6.332
 7060TIP3    H221122   1.163   2.378   6.402
 7061TIP3   OH221123   7.422   4.934   4.147
 7061TIP3    H121124   7.399   4.874   4.076
 7061TIP3    H221125   7.351   4.997   4.149
 7062TIP3   OH221126   5.293   1.375   6.188
 7062TIP3    H121127   5.306   1.307   6.123
 7062TIP3    H221128   5.376   1.381   6.234
 7063TIP3   OH221129   0.304   0.520   6.519
 7063TIP3    H121130   0.306   0.457   6.591
 7063TIP3    H221131   0.378   0.578   6.535
 7064TIP3   OH221132   1.143   0.666   2.941
 7064TIP3    H121133   1.084   0.662   3.016
 7064TIP3    H221134   1.211   0.727   2.969
 7065TIP3   OH221135   3.843   6.170   4.117
 7065TIP3    H121136   3.900   6.102   4.152
 7065TIP3    H221137   3.782   6.189   4.188
 7066TIP3   OH221138   7.757   7.204   3.562
 7066TIP3    H121139   7.704   7.129   3.534
 7066TIP3    H221140   7.760   7.261   3.485
 7067TIP3   OH221141   1.035   2.771   3.472
 7067TIP3    H121142   1.007   2.798   3.385
 7067TIP3    H221143   0.990   2.687   3.486
 7068TIP3   OH221144   0.054   6.877   1.118
 7068TIP3    H121145   0.147   6.902   1.118
 7068TIP3    H221146   0.025   6.891   1.028
 7069TIP3   OH221147   1.977   3.253   3.102
 7069TIP3    H121148   1.929   3.195   3.161
 7069TIP3    H221149   1.986   3.203   3.021
 7070TIP3   OH221150   0.797   3.275   1.740
 7070TIP3    H121151   0.742   3.277   1.819
 7070TIP3    H221152   0.795   3.365   1.708
 7071TIP3   OH221153   4.546   5.511   6.848
 7071TIP3    H121154   4.531   5.448   6.777
 7071TIP3    H221155   4.461   5.551   6.863
 7072TIP3   OH221156   8.011   2.229   5.405
 7072TIP3    H121157   8.059   2.168   5.349
 7072TIP3    H221158   7.978   2.175   5.477
 7073TIP3   OH221159   5.292   0.491   6.001
 7073TIP3    H121160   5.239   0.551   6.054
 7073TIP3    H221161   5.259   0.404   6.023
 7074TIP3   OH221162   6.020   2.865   4.230
 7074TIP3    H121163   6.029   2.788   4.174
 7074TIP3    H221164   6.054   2.937   4.177
 7075TIP3   OH221165   0.427   2.934   3.016
 7075TIP3    H121166   0.496   2.953   2.953
 7075TIP3    H221167   0.425   2.838   3.021
 7076TIP3   OH221168   1.988   0.702   4.311
 7076TIP3    H121169   1.969   0.784   4.266
 7076TIP3    H221170   2.084   0.698   4.315
 7077TIP3   OH221171   4.166   6.795   1.468
 7077TIP3    H121172   4.176   6.781   1.374
 7077TIP3    H221173   4.163   6.890   1.478
 7078TIP3   OH221174   4.944   2.452   5.159
 7078TIP3    H121175   4.862   2.436   5.113
 7078TIP3    H221176   4.921   2.452   5.252
 7079TIP3   OH221177   1.075   2.507   1.015
 7079TIP3    H121178   1.103   2.418   0.991
 7079TIP3    H221179   1.137   2.564   0.969
 7080TIP3   OH221180   8.257   0.615   5.056
 7080TIP3    H121181   8.188   0.655   5.109
 7080TIP3    H221182   8.209   0.563   4.991
 7081TIP3   OH221183   6.125   6.312   1.098
 7081TIP3    H121184   6.079   6.238   1.058
 7081TIP3    H221185   6.148   6.369   1.025
 7082TIP3   OH221186   1.785   0.536   0.108
 7082TIP3    H121187   1.839   0.596   0.056
 7082TIP3    H221188   1.804   0.560   0.199
 7083TIP3   OH221189   8.400   7.896   6.436
 7083TIP3    H121190   8.329   7.861   6.489
 7083TIP3    H221191   8.479   7.883   6.489
 7084TIP3   OH221192   4.114   6.108   0.814
 7084TIP3    H121193   4.063   6.171   0.765
 7084TIP3    H221194   4.185   6.082   0.754
 7085TIP3   OH221195   6.466   4.775   0.321
 7085TIP3    H121196   6.508   4.830   0.255
 7085TIP3    H221197   6.538   4.723   0.357
 7086TIP3   OH221198   8.418   4.357   5.329
 7086TIP3    H121199   8.322   4.360   5.338
 7086TIP3    H221200   8.450   4.368   5.418
 7087TIP3   OH221201   4.360   4.277   3.611
 7087TIP3    H121202   4.319   4.231   3.538
 7087TIP3    H221203   4.336   4.369   3.599
 7088TIP3   OH221204   0.575   6.868   1.439
 7088TIP3    H121205   0.483   6.843   1.443
 7088TIP3    H221206   0.623   6.786   1.453
 7089TIP3   OH221207   5.885   3.711   3.790
 7089TIP3    H121208   5.831   3.784   3.820
 7089TIP3    H221209   5.843   3.680   3.710
 7090TIP3   OH221210   5.786   1.452   3.228
 7090TIP3    H121211   5.694   1.467   3.204
 7090TIP3    H221212   5.805   1.518   3.294
 7091TIP3   OH221213   2.156   5.212   0.345
 7091TIP3    H121214   2.074   5.166   0.327
 7091TIP3    H221215   2.144   5.299   0.306
 7092TIP3   OH221216   5.165   2.919   3.939
 7092TIP3    H121217   5.203   2.907   3.852
 7092TIP3    H221218   5.075   2.888   3.931
 7093TIP3   OH221219   4.844   4.591   3.918
 7093TIP3    H121220   4.850   4.498   3.899
 7093TIP3    H221221   4.883   4.601   4.005
 7094TIP3   OH221222   0.670   0.150   2.460
 7094TIP3    H121223   0.583   0.183   2.438
 7094TIP3    H221224   0.716   0.226   2.495
 7095TIP3   OH221225   1.317   3.204   3.873
 7095TIP3    H121226   1.363   3.220   3.791
 7095TIP3    H221227   1.386   3.195   3.939
 7096TIP3   OH221228   0.609   2.759   1.126
 7096TIP3    H121229   0.515   2.743   1.136
 7096TIP3    H221230   0.643   2.762   1.215
 7097TIP3   OH221231   2.826   7.621   4.377
 7097TIP3    H121232   2.863   7.620   4.466
 7097TIP3    H221233   2.781   7.705   4.371
 7098TIP3   OH221234   7.237   0.809   1.861
 7098TIP3    H121235   7.320   0.827   1.906
 7098TIP3    H221236   7.196   0.740   1.913
 7099TIP3   OH221237   3.735   1.871   2.957
 7099TIP3    H121238   3.651   1.870   3.004
 7099TIP3    H221239   3.769   1.782   2.967
 7100TIP3   OH221240   0.875   5.921   4.800
 7100TIP3    H121241   0.923   5.942   4.880
 7100TIP3    H221242   0.844   6.005   4.767
 7101TIP3   OH221243   4.750   7.612   4.450
 7101TIP3    H121244   4.760   7.566   4.367
 7101TIP3    H221245   4.710   7.696   4.427
 7102TIP3   OH221246   0.773   0.389   2.355
 7102TIP3    H121247   0.826   0.468   2.358
 7102TIP3    H221248   0.689   0.414   2.391
 7103TIP3   OH221249   2.177   5.811   0.213
 7103TIP3    H121250   2.223   5.797   0.131
 7103TIP3    H221251   2.240   5.784   0.280
 7104TIP3   OH221252   4.979   4.606   4.165
 7104TIP3    H121253   5.073   4.624   4.167
 7104TIP3    H221254   4.942   4.669   4.227
 7105TIP3   OH221255   6.544   5.459   2.943
 7105TIP3    H121256   6.476   5.407   2.985
 7105TIP3    H221257   6.503   5.544   2.927
 7106TIP3   OH221258   5.610   4.740   6.317
 7106TIP3    H121259   5.543   4.724   6.382
 7106TIP3    H221260   5.588   4.826   6.280
 7107TIP3   OH221261   0.371   2.100   2.628
 7107TIP3    H121262   0.392   2.009   2.607
 7107TIP3    H221263   0.394   2.109   2.721
 7108TIP3   OH221264   3.294   1.267   1.274
 7108TIP3    H121265   3.383   1.300   1.259
 7108TIP3    H221266   3.250   1.279   1.190
 7109TIP3   OH221267   0.425   5.944   2.967
 7109TIP3    H121268   0.512   5.976   2.990
 7109TIP3    H221269   0.433   5.849   2.970
 7110TIP3   OH221270   2.999   6.139   2.654
 7110TIP3    H121271   2.938   6.088   2.706
 7110TIP3    H221272   2.944   6.192   2.596
 7111TIP3   OH221273   1.333   6.553   5.752
 7111TIP3    H121274   1.332   6.576   5.659
 7111TIP3    H221275   1.242   6.530   5.772
 7112TIP3   OH221276   2.981   6.917   1.444
 7112TIP3    H121277   2.963   6.973   1.369
 7112TIP3    H221278   2.935   6.959   1.517
 7113TIP3   OH221279   2.495   0.095   3.569
 7113TIP3    H121280   2.471   0.078   3.660
 7113TIP3    H221281   2.435   0.041   3.518
 7114TIP3   OH221282   1.436   6.974   2.098
 7114TIP3    H121283   1.342   6.964   2.106
 7114TIP3    H221284   1.469   6.886   2.081
 7115TIP3   OH221285   3.064   0.498   3.739
 7115TIP3    H121286   3.020   0.555   3.676
 7115TIP3    H221287   3.150   0.538   3.753
 7116TIP3   OH221288   5.808   1.757   6.104
 7116TIP3    H121289   5.807   1.710   6.188
 7116TIP3    H221290   5.834   1.846   6.126
 7117TIP3   OH221291   8.267   7.131   6.537
 7117TIP3    H121292   8.340   7.164   6.484
 7117TIP3    H221293   8.288   7.039   6.551
 7118TIP3   OH221294   3.599   3.022   5.322
 7118TIP3    H121295   3.506   3.015   5.343
 7118TIP3    H221296   3.635   2.936   5.345
 7119TIP3   OH221297   3.874   1.394   1.018
 7119TIP3    H121298   3.866   1.299   1.028
 7119TIP3    H221299   3.919   1.423   1.098
 7120TIP3   OH221300   5.830   2.682   4.586
 7120TIP3    H121301   5.803   2.768   4.554
 7120TIP3    H221302   5.748   2.635   4.600
 7121TIP3   OH221303   8.392   5.706   3.104
 7121TIP3    H121304   8.344   5.782   3.137
 7121TIP3    H221305   8.341   5.630   3.132
 7122TIP3   OH221306   2.775   5.454   3.014
 7122TIP3    H121307   2.760   5.491   2.927
 7122TIP3    H221308   2.866   5.476   3.034
 7123TIP3   OH221309   3.808   1.228   1.295
 7123TIP3    H121310   3.771   1.183   1.219
 7123TIP3    H221311   3.891   1.263   1.264
 7124TIP3   OH221312   3.324   6.219   6.323
 7124TIP3    H121313   3.369   6.265   6.394
 7124TIP3    H221314   3.284   6.143   6.366
 7125TIP3   OH221315   6.947   5.053   5.394
 7125TIP3    H121316   7.026   5.095   5.427
 7125TIP3    H221317   6.881   5.072   5.461
 7126TIP3   OH221318   3.322   1.652   0.328
 7126TIP3    H121319   3.251   1.702   0.288
 7126TIP3    H221320   3.368   1.612   0.254
 7127TIP3   OH221321   4.662   4.361   5.850
 7127TIP3    H121322   4.749   4.374   5.886
 7127TIP3    H221323   4.616   4.443   5.868
 7128TIP3   OH221324   2.957   4.077   3.518
 7128TIP3    H121325   2.926   3.996   3.559
 7128TIP3    H221326   2.911   4.081   3.434
 7129TIP3   OH221327   4.068   6.997   5.531
 7129TIP3    H121328   4.125   7.027   5.602
 7129TIP3    H221329   4.098   7.045   5.454
 7130TIP3   OH221330   4.537   6.451   2.403
 7130TIP3    H121331   4.533   6.434   2.309
 7130TIP3    H221332   4.598   6.524   2.412
 7131TIP3   OH221333   5.938   7.404   3.886
 7131TIP3    H121334   5.843   7.396   3.887
 7131TIP3    H221335   5.966   7.354   3.809
 7132TIP3   OH221336   6.752   6.927   1.359
 7132TIP3    H121337   6.680   6.912   1.420
 7132TIP3    H221338   6.786   6.840   1.339
 7133TIP3   OH221339   1.071   5.712   0.798
 7133TIP3    H121340   0.994   5.764   0.776
 7133TIP3    H221341   1.101   5.749   0.881
 7134TIP3   OH221342   0.504   0.067   0.417
 7134TIP3    H121343   0.568   0.088   0.485
 7134TIP3    H221344   0.447   0.000   0.457
 7135TIP3   OH221345   1.901   7.322   3.011
 7135TIP3    H121346   1.870   7.232   3.016
 7135TIP3    H221347   1.930   7.333   2.920
 7136TIP3   OH221348   6.058   5.477   3.038
 7136TIP3    H121349   6.050   5.383   3.053
 7136TIP3    H221350   5.990   5.516   3.093
 7137TIP3   OH221351   1.782   4.034   1.715
 7137TIP3    H121352   1.702   4.066   1.757
 7137TIP3    H221353   1.799   4.098   1.646
 7138TIP3   OH221354   6.861  -0.001   2.243
 7138TIP3    H121355   6.849   0.094   2.247
 7138TIP3    H221356   6.788  -0.036   2.294
 7139TIP3   OH221357   4.656   6.129   5.594
 7139TIP3    H121358   4.734   6.183   5.584
 7139TIP3    H221359   4.690   6.040   5.607
 7140TIP3   OH221360   2.078   2.029   4.900
 7140TIP3    H121361   2.136   2.078   4.957
 7140TIP3    H221362   2.125   1.947   4.882
 7141TIP3   OH221363   0.902   5.127   6.830
 7141TIP3    H121364   0.935   5.094   6.914
 7141TIP3    H221365   0.807   5.114   6.835
 7142TIP3   OH221366   3.879   0.534   5.471
 7142TIP3    H121367   3.938   0.604   5.443
 7142TIP3    H221368   3.804   0.580   5.509
 7143TIP3   OH221369   7.999   4.989   4.253
 7143TIP3    H121370   8.093   5.004   4.265
 7143TIP3    H221371   7.958   5.065   4.296
 7144TIP3   OH221372   6.111   4.838   0.893
 7144TIP3    H121373   6.036   4.782   0.912
 7144TIP3    H221374   6.148   4.802   0.812
 7145TIP3   OH221375   4.961   4.831   6.181
 7145TIP3    H121376   4.984   4.745   6.145
 7145TIP3    H221377   4.992   4.828   6.272
 7146TIP3   OH221378   2.255   2.481   6.747
 7146TIP3    H121379   2.293   2.442   6.668
 7146TIP3    H221380   2.165   2.500   6.723
 7147TIP3   OH221381   4.601   6.321   6.707
 7147TIP3    H121382   4.654   6.292   6.781
 7147TIP3    H221383   4.626   6.412   6.694
 7148TIP3   OH221384   6.793   6.130   4.038
 7148TIP3    H121385   6.716   6.152   3.985
 7148TIP3    H221386   6.832   6.055   3.993
 7149TIP3   OH221387   2.053   7.157   5.277
 7149TIP3    H121388   2.092   7.244   5.277
 7149TIP3    H221389   2.111   7.105   5.333
 7150TIP3   OH221390   2.320   7.338   5.888
 7150TIP3    H121391   2.295   7.279   5.959
 7150TIP3    H221392   2.288   7.295   5.808
 7151TIP3   OH221393   7.998   6.314   2.379
 7151TIP3    H121394   7.951   6.383   2.331
 7151TIP3    H221395   7.997   6.343   2.470
 7152TIP3   OH221396   0.182   5.257   3.881
 7152TIP3    H121397   0.161   5.223   3.794
 7152TIP3    H221398   0.099   5.251   3.929
 7153TIP3   OH221399   5.124   2.772   5.847
 7153TIP3    H121400   5.034   2.754   5.874
 7153TIP3    H221401   5.128   2.867   5.838
 7154TIP3   OH221402   6.117   7.874   4.208
 7154TIP3    H121403   6.176   7.798   4.207
 7154TIP3    H221404   6.159   7.938   4.151
 7155TIP3   OH221405   2.167   3.402   4.682
 7155TIP3    H121406   2.183   3.356   4.765
 7155TIP3    H221407   2.232   3.366   4.622
 7156TIP3   OH221408   7.183   0.617   2.579
 7156TIP3    H121409   7.138   0.699   2.597
 7156TIP3    H221410   7.266   0.624   2.625
 7157TIP3   OH221411   1.135   4.826   3.297
 7157TIP3    H121412   1.105   4.858   3.382
 7157TIP3    H221413   1.080   4.750   3.279
 7158TIP3   OH221414   1.028   5.318   4.844
 7158TIP3    H121415   1.060   5.262   4.774
 7158TIP3    H221416   0.956   5.368   4.804
 7159TIP3   OH221417   8.002   5.102   0.953
 7159TIP3    H121418   7.917   5.109   0.912
 7159TIP3    H221419   8.036   5.191   0.955
 7160TIP3   OH221420   8.026   4.240   6.559
 7160TIP3    H121421   8.056   4.150   6.554
 7160TIP3    H221422   7.993   4.260   6.471
 7161TIP3   OH221423  -0.001   4.837   2.885
 7161TIP3    H121424  -0.002   4.768   2.952
 7161TIP3    H221425   0.085   4.877   2.893
 7162TIP3   OH221426   4.199   1.245   6.416
 7162TIP3    H121427   4.124   1.289   6.455
 7162TIP3    H221428   4.269   1.252   6.481
 7163TIP3   OH221429   3.635   5.324   4.569
 7163TIP3    H121430   3.623   5.387   4.641
 7163TIP3    H221431   3.587   5.246   4.597
 7164TIP3   OH221432   7.971   5.407   0.392
 7164TIP3    H121433   8.027   5.438   0.462
 7164TIP3    H221434   7.891   5.378   0.436
 7165TIP3   OH221435   1.738   5.605   1.530
 7165TIP3    H121436   1.738   5.684   1.585
 7165TIP3    H221437   1.717   5.534   1.590
 7166TIP3   OH221438   1.259   2.301   1.005
 7166TIP3    H121439   1.316   2.335   0.937
 7166TIP3    H221440   1.267   2.206   0.998
 7167TIP3   OH221441   6.225   5.128   2.118
 7167TIP3    H121442   6.161   5.154   2.185
 7167TIP3    H221443   6.296   5.086   2.167
 7168TIP3   OH221444   0.795   7.536   6.479
 7168TIP3    H121445   0.750   7.618   6.458
 7168TIP3    H221446   0.745   7.498   6.552
 7169TIP3   OH221447   0.734   2.386   6.814
 7169TIP3    H121448   0.792   2.348   6.748
 7169TIP3    H221449   0.744   2.328   6.890
 7170TIP3   OH221450   5.894   7.838   2.923
 7170TIP3    H121451   5.849   7.906   2.974
 7170TIP3    H221452   5.840   7.760   2.933
 7171TIP3   OH221453   7.581   7.390   4.017
 7171TIP3    H121454   7.606   7.309   3.973
 7171TIP3    H221455   7.661   7.443   4.017
 7172TIP3   OH221456   2.233   6.451   6.191
 7172TIP3    H121457   2.198   6.528   6.146
 7172TIP3    H221458   2.203   6.459   6.281
 7173TIP3   OH221459   7.582   4.100   1.234
 7173TIP3    H121460   7.621   4.183   1.262
 7173TIP3    H221461   7.500   4.126   1.192
 7174TIP3   OH221462   6.177   1.938   4.619
 7174TIP3    H121463   6.234   2.007   4.583
 7174TIP3    H221464   6.102   1.985   4.655
 7175TIP3   OH221465   5.195   2.170   4.263
 7175TIP3    H121466   5.266   2.164   4.326
 7175TIP3    H221467   5.162   2.081   4.256
 7176TIP3   OH221468   6.166   1.057   5.578
 7176TIP3    H121469   6.075   1.041   5.553
 7176TIP3    H221470   6.214   0.982   5.542
 7177TIP3   OH221471   7.734   4.634   2.493
 7177TIP3    H121472   7.709   4.542   2.485
 7177TIP3    H221473   7.829   4.632   2.498
 7178TIP3   OH221474   1.883   0.801   3.523
 7178TIP3    H121475   1.911   0.764   3.607
 7178TIP3    H221476   1.942   0.875   3.508
 7179TIP3   OH221477   6.807   4.546   6.034
 7179TIP3    H121478   6.875   4.529   6.098
 7179TIP3    H221479   6.795   4.641   6.035
 7180TIP3   OH221480   2.383   1.183   1.597
 7180TIP3    H121481   2.341   1.097   1.596
 7180TIP3    H221482   2.359   1.224   1.514
 7181TIP3   OH221483   5.560   5.961   4.572
 7181TIP3    H121484   5.547   6.038   4.628
 7181TIP3    H221485   5.472   5.935   4.546
 7182TIP3   OH221486   1.805  -0.030   6.697
 7182TIP3    H121487   1.733  -0.049   6.637
 7182TIP3    H221488   1.824   0.063   6.682
 7183TIP3   OH221489   7.941   6.084   0.067
 7183TIP3    H121490   7.932   6.149  -0.002
 7183TIP3    H221491   7.933   6.000   0.022
 7184TIP3   OH221492   3.602   3.466   4.330
 7184TIP3    H121493   3.538   3.476   4.400
 7184TIP3    H221494   3.577   3.384   4.287
 7185TIP3   OH221495   6.707   1.918   2.158
 7185TIP3    H121496   6.775   1.851   2.151
 7185TIP3    H221497   6.625   1.872   2.143
 7186TIP3   OH221498   3.732   0.003   6.530
 7186TIP3    H121499   3.749  -0.060   6.460
 7186TIP3    H221500   3.752   0.088   6.491
 7187TIP3   OH221501   0.983   5.077   0.647
 7187TIP3    H121502   0.922   5.144   0.616
 7187TIP3    H221503   1.002   5.102   0.737
 7188TIP3   OH221504   6.061   1.374   2.208
 7188TIP3    H121505   6.129   1.441   2.215
 7188TIP3    H221506   6.106   1.293   2.233
 7189TIP3   OH221507   4.291   2.113   6.611
 7189TIP3    H121508   4.367   2.144   6.661
 7189TIP3    H221509   4.217   2.128   6.670
 7190TIP3   OH221510   2.031   2.205   1.766
 7190TIP3    H121511   1.980   2.240   1.840
 7190TIP3    H221512   2.041   2.279   1.707
 7191TIP3   OH221513   2.372   1.274   4.702
 7191TIP3    H121514   2.400   1.201   4.646
 7191TIP3    H221515   2.276   1.270   4.699
 7192TIP3   OH221516   2.511   6.350   4.144
 7192TIP3    H121517   2.426   6.393   4.152
 7192TIP3    H221518   2.570   6.420   4.113
 7193TIP3   OH221519   7.708   2.010   3.672
 7193TIP3    H121520   7.798   2.021   3.702
 7193TIP3    H221521   7.677   2.099   3.656
 7194TIP3   OH221522   6.254   3.356   3.724
 7194TIP3    H121523   6.242   3.322   3.812
 7194TIP3    H221524   6.346   3.382   3.720
 7195TIP3   OH221525   0.909   4.528   2.351
 7195TIP3    H121526   0.817   4.505   2.364
 7195TIP3    H221527   0.924   4.599   2.413
 7196TIP3   OH221528   0.761   2.986   3.410
 7196TIP3    H121529   0.725   2.904   3.444
 7196TIP3    H221530   0.704   3.009   3.336
 7197TIP3   OH221531   6.129   1.931   2.756
 7197TIP3    H121532   6.123   1.881   2.837
 7197TIP3    H221533   6.040   1.927   2.719
 7198TIP3   OH221534   7.224   2.456   5.168
 7198TIP3    H121535   7.215   2.532   5.110
 7198TIP3    H221536   7.283   2.486   5.237
 7199TIP3   OH221537   5.437   0.161   2.489
 7199TIP3    H121538   5.495   0.205   2.551
 7199TIP3    H221539   5.349   0.177   2.523
 7200TIP3   OH221540   7.414   4.551   4.120
 7200TIP3    H121541   7.498   4.536   4.077
 7200TIP3    H221542   7.357   4.585   4.051
 7201TIP3   OH221543   7.218   7.627   4.025
 7201TIP3    H121544   7.180   7.655   4.109
 7201TIP3    H221545   7.146   7.634   3.963
 7202TIP3   OH221546   1.325   3.439   1.279
 7202TIP3    H121547   1.248   3.383   1.294
 7202TIP3    H221548   1.292   3.528   1.291
 7203TIP3   OH221549   4.397   4.022   1.936
 7203TIP3    H121550   4.419   4.006   1.844
 7203TIP3    H221551   4.324   3.962   1.953
 7204TIP3   OH221552   0.660   6.697   3.776
 7204TIP3    H121553   0.624   6.629   3.719
 7204TIP3    H221554   0.653   6.660   3.864
 7205TIP3   OH221555   1.827   6.269   5.348
 7205TIP3    H121556   1.818   6.353   5.303
 7205TIP3    H221557   1.776   6.208   5.295
 7206TIP3   OH221558   4.314   5.017   1.662
 7206TIP3    H121559   4.317   5.112   1.668
 7206TIP3    H221560   4.240   4.992   1.717
 7207TIP3   OH221561   1.083   1.097   5.571
 7207TIP3    H121562   1.148   1.142   5.517
 7207TIP3    H221563   1.026   1.053   5.507
 7208TIP3   OH221564   3.428   0.217   4.646
 7208TIP3    H121565   3.339   0.242   4.624
 7208TIP3    H221566   3.424   0.122   4.657
 7209TIP3   OH221567   3.464   2.604   3.735
 7209TIP3    H121568   3.533   2.565   3.683
 7209TIP3    H221569   3.416   2.660   3.674
 7210TIP3   OH221570   1.184   1.971   0.070
 7210TIP3    H121571   1.191   2.064   0.048
 7210TIP3    H221572   1.209   1.925  -0.010
 7211TIP3   OH221573   1.332   1.451   1.047
 7211TIP3    H121574   1.240   1.426   1.052
 7211TIP3    H221575   1.331   1.547   1.048
 7212TIP3   OH221576   5.024   5.850   6.652
 7212TIP3    H121577   5.120   5.847   6.652
 7212TIP3    H221578   5.000   5.838   6.743
 7213TIP3   OH221579   5.076   2.003   2.847
 7213TIP3    H121580   4.986   1.984   2.875
 7213TIP3    H221581   5.080   1.970   2.757
 7214TIP3   OH221582   8.004   4.889   4.690
 7214TIP3    H121583   7.950   4.812   4.673
 7214TIP3    H221584   8.062   4.863   4.762
 7215TIP3   OH221585   8.342   1.835   3.530
 7215TIP3    H121586   8.287   1.798   3.599
 7215TIP3    H221587   8.297   1.814   3.449
 7216TIP3   OH221588   3.846   5.935   0.510
 7216TIP3    H121589   3.797   5.986   0.445
 7216TIP3    H221590   3.937   5.961   0.497
 7217TIP3   OH221591   3.947   4.957   2.395
 7217TIP3    H121592   3.918   4.889   2.335
 7217TIP3    H221593   3.997   4.911   2.462
 7218TIP3   OH221594   4.002   5.798   6.575
 7218TIP3    H121595   3.946   5.873   6.593
 7218TIP3    H221596   3.955   5.723   6.612
 7219TIP3   OH221597   0.450   3.694   5.413
 7219TIP3    H121598   0.415   3.689   5.324
 7219TIP3    H221599   0.377   3.663   5.469
 7220TIP3   OH221600   4.448   3.667   0.857
 7220TIP3    H121601   4.395   3.628   0.926
 7220TIP3    H221602   4.467   3.593   0.798
 7221TIP3   OH221603   5.016   7.714   1.944
 7221TIP3    H121604   5.093   7.769   1.928
 7221TIP3    H221605   4.982   7.745   2.028
 7222TIP3   OH221606   0.106   7.672   3.741
 7222TIP3    H121607   0.041   7.668   3.812
 7222TIP3    H221608   0.054   7.681   3.661
 7223TIP3   OH221609   1.065   4.658   0.577
 7223TIP3    H121610   1.105   4.632   0.495
 7223TIP3    H221611   1.025   4.743   0.558
 7224TIP3   OH221612   5.402   3.135   2.046
 7224TIP3    H121613   5.346   3.184   1.985
 7224TIP3    H221614   5.411   3.048   2.007
 7225TIP3   OH221615   6.136   4.606   4.357
 7225TIP3    H121616   6.077   4.572   4.290
 7225TIP3    H221617   6.104   4.569   4.439
 7226TIP3   OH221618   8.005   7.079   3.086
 7226TIP3    H121619   8.084   7.025   3.079
 7226TIP3    H221620   7.940   7.034   3.033
 7227TIP3   OH221621   4.031   1.561   3.088
 7227TIP3    H121622   4.115   1.572   3.043
 7227TIP3    H221623   3.973   1.626   3.048
 7228TIP3   OH221624   4.337   2.389   1.303
 7228TIP3    H121625   4.386   2.415   1.225
 7228TIP3    H221626   4.279   2.464   1.321
 7229TIP3   OH221627   5.421   4.050   5.582
 7229TIP3    H121628   5.358   3.979   5.594
 7229TIP3    H221629   5.413   4.104   5.660
 7230TIP3   OH221630   7.625   5.426   3.642
 7230TIP3    H121631   7.646   5.491   3.709
 7230TIP3    H221632   7.682   5.351   3.662
 7231TIP3   OH221633   5.281   0.529   1.683
 7231TIP3    H121634   5.247   0.521   1.594
 7231TIP3    H221635   5.335   0.609   1.681
 7232TIP3   OH221636   7.428   2.127   3.476
 7232TIP3    H121637   7.390   2.214   3.476
 7232TIP3    H221638   7.510   2.136   3.427
 7233TIP3   OH221639   7.192   0.246   5.991
 7233TIP3    H121640   7.172   0.305   6.063
 7233TIP3    H221641   7.252   0.296   5.935
 7234TIP3   OH221642   4.105   0.662   6.821
 7234TIP3    H121643   4.039   0.602   6.785
 7234TIP3    H221644   4.152   0.610   6.886
 7235TIP3   OH221645   5.058   3.865   1.815
 7235TIP3    H121646   4.989   3.846   1.879
 7235TIP3    H221647   5.116   3.789   1.819
 7236TIP3   OH221648   0.649   3.242   6.284
 7236TIP3    H121649   0.681   3.155   6.257
 7236TIP3    H221650   0.556   3.228   6.301
 7237TIP3   OH221651   5.673   3.615   1.516
 7237TIP3    H121652   5.725   3.625   1.437
 7237TIP3    H221653   5.582   3.620   1.486
 7238TIP3   OH221654   7.297   6.045   0.357
 7238TIP3    H121655   7.367   5.980   0.361
 7238TIP3    H221656   7.335   6.117   0.306
 7239TIP3   OH221657   3.123   4.260   0.944
 7239TIP3    H121658   3.034   4.255   0.909
 7239TIP3    H221659   3.178   4.223   0.875
 7240TIP3   OH221660   0.367   6.214   3.478
 7240TIP3    H121661   0.457   6.187   3.460
 7240TIP3    H221662   0.325   6.135   3.513
 7241TIP3   OH221663   1.601   7.122   5.370
 7241TIP3    H121664   1.648   7.074   5.301
 7241TIP3    H221665   1.629   7.081   5.451
 7242TIP3   OH221666   7.860   5.997   0.508
 7242TIP3    H121667   7.780   6.012   0.458
 7242TIP3    H221668   7.901   5.921   0.467
 7243TIP3   OH221669   2.182   4.246   0.894
 7243TIP3    H121670   2.102   4.280   0.933
 7243TIP3    H221671   2.172   4.150   0.898
 7244TIP3   OH221672   7.888   7.265   5.909
 7244TIP3    H121673   7.866   7.287   5.999
 7244TIP3    H221674   7.832   7.322   5.856
 7245TIP3   OH221675   3.271   3.246   5.326
 7245TIP3    H121676   3.203   3.179   5.333
 7245TIP3    H221677   3.318   3.224   5.245
 7246TIP3   OH221678   4.635   7.126   1.708
 7246TIP3    H121679   4.541   7.141   1.703
 7246TIP3    H221680   4.675   7.208   1.678
 7247TIP3   OH221681   7.165   1.139   1.573
 7247TIP3    H121682   7.079   1.103   1.597
 7247TIP3    H221683   7.162   1.229   1.603
 7248TIP3   OH221684   6.593   2.170   0.172
 7248TIP3    H121685   6.672   2.116   0.169
 7248TIP3    H221686   6.570   2.175   0.265
 7249TIP3   OH221687   8.092   3.589   5.928
 7249TIP3    H121688   8.073   3.496   5.927
 7249TIP3    H221689   8.184   3.595   5.952
 7250TIP3   OH221690   7.943   3.529   0.344
 7250TIP3    H121691   7.928   3.610   0.294
 7250TIP3    H221692   7.911   3.548   0.431
 7251TIP3   OH221693   0.579   4.264   1.353
 7251TIP3    H121694   0.516   4.202   1.390
 7251TIP3    H221695   0.653   4.210   1.327
 7252TIP3   OH221696   3.796   5.292   2.707
 7252TIP3    H121697   3.796   5.322   2.616
 7252TIP3    H221698   3.803   5.197   2.702
 7253TIP3   OH221699   2.656   5.161   4.056
 7253TIP3    H121700   2.633   5.109   3.979
 7253TIP3    H221701   2.744   5.132   4.079
 7254TIP3   OH221702   6.530   3.073   0.141
 7254TIP3    H121703   6.560   3.052   0.052
 7254TIP3    H221704   6.478   2.997   0.167
 7255TIP3   OH221705   4.795   0.475   6.164
 7255TIP3    H121706   4.821   0.383   6.173
 7255TIP3    H221707   4.739   0.476   6.086
 7256TIP3   OH221708   2.882   7.051   3.452
 7256TIP3    H121709   2.936   6.988   3.500
 7256TIP3    H221710   2.887   7.131   3.504
 7257TIP3   OH221711   4.792   2.025   2.162
 7257TIP3    H121712   4.726   2.089   2.188
 7257TIP3    H221713   4.844   2.070   2.095
 7258TIP3   OH221714   7.056   2.034   2.155
 7258TIP3    H121715   6.986   2.092   2.125
 7258TIP3    H221716   7.053   1.960   2.095
 7259TIP3   OH221717   0.752   0.579   2.598
 7259TIP3    H121718   0.674   0.551   2.550
 7259TIP3    H221719   0.718   0.613   2.680
 7260TIP3   OH221720   5.066   3.126   1.043
 7260TIP3    H121721   5.015   3.131   0.962
 7260TIP3    H221722   5.009   3.165   1.109
 7261TIP3   OH221723   7.099   5.956   3.559
 7261TIP3    H121724   7.067   5.998   3.638
 7261TIP3    H221725   7.182   5.917   3.584
 7262TIP3   OH221726   1.177   4.381   4.688
 7262TIP3    H121727   1.229   4.324   4.744
 7262TIP3    H221728   1.219   4.467   4.696
 7263TIP3   OH221729   0.957   0.289   0.762
 7263TIP3    H121730   0.974   0.226   0.691
 7263TIP3    H221731   0.868   0.319   0.747
 7264TIP3   OH221732   1.352   0.672   0.472
 7264TIP3    H121733   1.334   0.766   0.476
 7264TIP3    H221734   1.388   0.651   0.558
 7265TIP3   OH221735   2.680   2.517   0.179
 7265TIP3    H121736   2.625   2.560   0.245
 7265TIP3    H221737   2.750   2.477   0.229
 7266TIP3   OH221738   3.765   1.268   0.764
 7266TIP3    H121739   3.786   1.338   0.825
 7266TIP3    H221740   3.823   1.196   0.790
 7267TIP3   OH221741   2.422   0.277   2.732
 7267TIP3    H121742   2.426   0.207   2.797
 7267TIP3    H221743   2.445   0.357   2.781
 7268TIP3   OH221744   6.266   6.054   2.503
 7268TIP3    H121745   6.285   6.054   2.409
 7268TIP3    H221746   6.173   6.076   2.509
 7269TIP3   OH221747   5.966   7.212   1.365
 7269TIP3    H121748   5.872   7.229   1.355
 7269TIP3    H221749   6.007   7.267   1.298
 7270TIP3   OH221750   3.853   3.123   5.241
 7270TIP3    H121751   3.857   3.197   5.302
 7270TIP3    H221752   3.772   3.077   5.264
 7271TIP3   OH221753   4.321   1.835   5.655
 7271TIP3    H121754   4.404   1.874   5.684
 7271TIP3    H221755   4.323   1.746   5.688
 7272TIP3   OH221756   3.876   5.954   2.890
 7272TIP3    H121757   3.812   5.991   2.951
 7272TIP3    H221758   3.925   6.029   2.859
 7273TIP3   OH221759   2.370   0.399   5.488
 7273TIP3    H121760   2.381   0.492   5.466
 7273TIP3    H221761   2.291   0.397   5.543
 7274TIP3   OH221762   7.939   0.405   0.213
 7274TIP3    H121763   7.845   0.405   0.232
 7274TIP3    H221764   7.963   0.498   0.214
 7275TIP3   OH221765   7.160   6.799   4.820
 7275TIP3    H121766   7.214   6.791   4.898
 7275TIP3    H221767   7.175   6.717   4.772
 7276TIP3   OH221768   0.998   5.966   3.389
 7276TIP3    H121769   1.008   5.960   3.294
 7276TIP3    H221770   1.088   5.970   3.422
 7277TIP3   OH221771   6.684   5.902   6.645
 7277TIP3    H121772   6.604   5.873   6.690
 7277TIP3    H221773   6.683   5.854   6.562
 7278TIP3   OH221774   2.891   5.448   6.162
 7278TIP3    H121775   2.964   5.394   6.133
 7278TIP3    H221776   2.813   5.401   6.131
 7279TIP3   OH221777   1.881   5.197   2.904
 7279TIP3    H121778   1.959   5.223   2.854
 7279TIP3    H221779   1.837   5.279   2.925
 7280TIP3   OH221780   2.274   5.320   6.401
 7280TIP3    H121781   2.343   5.379   6.432
 7280TIP3    H221782   2.248   5.271   6.479
 7281TIP3   OH221783   7.696   1.237   2.230
 7281TIP3    H121784   7.603   1.216   2.229
 7281TIP3    H221785   7.714   1.260   2.322
 7282TIP3   OH221786   5.989   3.660   5.936
 7282TIP3    H121787   5.921   3.707   5.986
 7282TIP3    H221788   6.035   3.608   6.001
 7283TIP3   OH221789   2.521   6.985   5.935
 7283TIP3    H121790   2.598   6.929   5.941
 7283TIP3    H221791   2.554   7.074   5.948
 7284TIP3   OH221792   7.576   5.368   1.696
 7284TIP3    H121793   7.547   5.289   1.650
 7284TIP3    H221794   7.671   5.368   1.687
 7285TIP3   OH221795   3.002   5.551   0.308
 7285TIP3    H121796   2.953   5.474   0.337
 7285TIP3    H221797   2.944   5.595   0.246
 7286TIP3   OH221798   7.371   4.731   2.064
 7286TIP3    H121799   7.456   4.695   2.039
 7286TIP3    H221800   7.326   4.657   2.106
 7287TIP3   OH221801   3.250   3.971   5.225
 7287TIP3    H121802   3.299   3.889   5.218
 7287TIP3    H221803   3.208   3.967   5.311
 7288TIP3   OH221804   1.395   1.756   0.059
 7288TIP3    H121805   1.427   1.699  -0.011
 7288TIP3    H221806   1.450   1.833   0.054
 7289TIP3   OH221807   3.993   6.830   3.869
 7289TIP3    H121808   4.074   6.782   3.890
 7289TIP3    H221809   3.923   6.776   3.905
 7290TIP3   OH221810   3.584   6.698   4.287
 7290TIP3    H121811   3.674   6.699   4.254
 7290TIP3    H221812   3.594   6.683   4.381
 7291TIP3   OH221813   8.025   6.623   0.764
 7291TIP3    H121814   7.952   6.585   0.813
 7291TIP3    H221815   7.994   6.711   0.741
 7292TIP3   OH221816   2.273   2.198   2.318
 7292TIP3    H121817   2.352   2.250   2.299
 7292TIP3    H221818   2.202   2.262   2.315
 7293TIP3   OH221819   4.276   0.805   3.819
 7293TIP3    H121820   4.252   0.799   3.727
 7293TIP3    H221821   4.307   0.895   3.829
 7294TIP3   OH221822   7.635   4.809   3.971
 7294TIP3    H121823   7.664   4.788   4.060
 7294TIP3    H221824   7.591   4.894   3.980
 7295TIP3   OH221825   7.205   4.992   5.848
 7295TIP3    H121826   7.256   5.053   5.902
 7295TIP3    H221827   7.161   5.049   5.784
 7296TIP3   OH221828   4.985   3.507   5.179
 7296TIP3    H121829   4.996   3.446   5.106
 7296TIP3    H221830   4.917   3.568   5.149
 7297TIP3   OH221831   0.782   3.006   3.863
 7297TIP3    H121832   0.841   3.019   3.789
 7297TIP3    H221833   0.707   2.959   3.826
 7298TIP3   OH221834   7.379   2.368   3.704
 7298TIP3    H121835   7.403   2.424   3.630
 7298TIP3    H221836   7.289   2.341   3.685
 7299TIP3   OH221837   3.825   5.604   6.266
 7299TIP3    H121838   3.911   5.572   6.295
 7299TIP3    H221839   3.811   5.685   6.315
 7300TIP3   OH221840   0.826   0.164   6.862
 7300TIP3    H121841   0.858   0.131   6.778
 7300TIP3    H221842   0.893   0.225   6.891
 7301TIP3   OH221843   5.553   3.020   5.429
 7301TIP3    H121844   5.505   2.950   5.384
 7301TIP3    H221845   5.565   2.988   5.518
 7302TIP3   OH221846   1.495   4.927   5.530
 7302TIP3    H121847   1.499   4.849   5.586
 7302TIP3    H221848   1.554   4.906   5.457
 7303TIP3   OH221849   6.907   7.601   2.763
 7303TIP3    H121850   6.912   7.510   2.733
 7303TIP3    H221851   6.997   7.632   2.760
 7304TIP3   OH221852   3.473   2.066   3.085
 7304TIP3    H121853   3.510   2.100   3.004
 7304TIP3    H221854   3.396   2.016   3.058
 7305TIP3   OH221855   4.933   3.088   4.042
 7305TIP3    H121856   4.985   3.155   4.087
 7305TIP3    H221857   4.939   3.011   4.099
 7306TIP3   OH221858   5.025   6.255   4.195
 7306TIP3    H121859   5.018   6.312   4.271
 7306TIP3    H221860   4.937   6.218   4.184
 7307TIP3   OH221861   7.607   3.309   4.077
 7307TIP3    H121862   7.548   3.383   4.064
 7307TIP3    H221863   7.682   3.328   4.020
 7308TIP3   OH221864   0.395   4.337   5.699
 7308TIP3    H121865   0.464   4.365   5.638
 7308TIP3    H221866   0.385   4.243   5.683
 7309TIP3   OH221867   1.484   5.507   3.615
 7309TIP3    H121868   1.446   5.591   3.590
 7309TIP3    H221869   1.459   5.495   3.707
 7310TIP3   OH221870   5.562   2.780   5.305
 7310TIP3    H121871   5.642   2.783   5.357
 7310TIP3    H221872   5.551   2.687   5.283
 7311TIP3   OH221873   4.430   4.619   6.160
 7311TIP3    H121874   4.449   4.680   6.231
 7311TIP3    H221875   4.409   4.537   6.204
 7312TIP3   OH221876   1.260   2.557   3.201
 7312TIP3    H121877   1.294   2.577   3.288
 7312TIP3    H221878   1.319   2.490   3.166
 7313TIP3   OH221879   2.246   2.240   4.618
 7313TIP3    H121880   2.323   2.249   4.562
 7313TIP3    H221881   2.174   2.221   4.557
 7314TIP3   OH221882   5.556   0.289   0.442
 7314TIP3    H121883   5.589   0.361   0.388
 7314TIP3    H221884   5.622   0.220   0.434
 7315TIP3   OH221885   3.729   0.996   2.808
 7315TIP3    H121886   3.700   0.908   2.782
 7315TIP3    H221887   3.669   1.020   2.879
 7316TIP3   OH221888   2.290   1.878   0.719
 7316TIP3    H121889   2.371   1.892   0.670
 7316TIP3    H221890   2.295   1.938   0.793
 7317TIP3   OH221891   8.382   4.697   3.688
 7317TIP3    H121892   8.347   4.779   3.725
 7317TIP3    H221893   8.321   4.630   3.718
 7318TIP3   OH221894   0.997   3.517   4.493
 7318TIP3    H121895   0.924   3.530   4.432
 7318TIP3    H221896   1.024   3.426   4.478
 7319TIP3   OH221897   0.885   3.159   5.388
 7319TIP3    H121898   0.979   3.157   5.366
 7319TIP3    H221899   0.848   3.085   5.340
 7320TIP3   OH221900   8.286   1.925   6.688
 7320TIP3    H121901   8.356   1.932   6.622
 7320TIP3    H221902   8.253   1.836   6.677
 7321TIP3   OH221903   0.428   1.589   2.493
 7321TIP3    H121904   0.334   1.591   2.477
 7321TIP3    H221905   0.465   1.550   2.414
 7322TIP3   OH221906   0.675   3.478   3.519
 7322TIP3    H121907   0.632   3.405   3.563
 7322TIP3    H221908   0.604   3.541   3.502
 7323TIP3   OH221909   7.720   3.861   0.529
 7323TIP3    H121910   7.695   3.953   0.541
 7323TIP3    H221911   7.726   3.827   0.618
 7324TIP3   OH221912   7.625   2.506   4.017
 7324TIP3    H121913   7.582   2.588   3.994
 7324TIP3    H221914   7.568   2.438   3.980
 7325TIP3   OH221915   4.464   0.573   2.163
 7325TIP3    H121916   4.417   0.501   2.121
 7325TIP3    H221917   4.398   0.642   2.174
 7326TIP3   OH221918   3.247   3.870   0.135
 7326TIP3    H121919   3.257   3.805   0.066
 7326TIP3    H221920   3.170   3.921   0.110
 7327TIP3   OH221921   6.578   6.786   0.480
 7327TIP3    H121922   6.652   6.811   0.535
 7327TIP3    H221923   6.613   6.786   0.390
 7328TIP3   OH221924   4.514   2.198   1.706
 7328TIP3    H121925   4.596   2.213   1.659
 7328TIP3    H221926   4.532   2.123   1.762
 7329TIP3   OH221927   6.216   0.989   0.272
 7329TIP3    H121928   6.223   0.984   0.177
 7329TIP3    H221929   6.150   0.923   0.295
 7330TIP3   OH221930   3.112   7.022   6.001
 7330TIP3    H121931   3.163   7.046   6.078
 7330TIP3    H221932   3.128   6.928   5.990
 7331TIP3   OH221933   6.513   6.484   1.384
 7331TIP3    H121934   6.479   6.405   1.341
 7331TIP3    H221935   6.605   6.488   1.356
 7332TIP3   OH221936   6.680   2.988   0.528
 7332TIP3    H121937   6.628   3.068   0.539
 7332TIP3    H221938   6.748   3.011   0.465
 7333TIP3   OH221939   1.438   4.734   2.581
 7333TIP3    H121940   1.429   4.829   2.574
 7333TIP3    H221941   1.349   4.702   2.590
 7334TIP3   OH221942   0.188   3.362   6.380
 7334TIP3    H121943   0.131   3.287   6.393
 7334TIP3    H221944   0.158   3.401   6.298
 7335TIP3   OH221945   2.330   4.890   2.901
 7335TIP3    H121946   2.313   4.963   2.961
 7335TIP3    H221947   2.375   4.931   2.827
 7336TIP3   OH221948   1.213   4.687   1.784
 7336TIP3    H121949   1.185   4.774   1.814
 7336TIP3    H221950   1.171   4.677   1.698
 7337TIP3   OH221951   0.224   5.229   4.298
 7337TIP3    H121952   0.287   5.254   4.231
 7337TIP3    H221953   0.190   5.312   4.331
 7338TIP3   OH221954   4.316   1.035   5.363
 7338TIP3    H121955   4.394   1.027   5.308
 7338TIP3    H221956   4.250   0.981   5.320
 7339TIP3   OH221957   3.232   6.127   6.755
 7339TIP3    H121958   3.165   6.063   6.778
 7339TIP3    H221959   3.308   6.103   6.809
 7340TIP3   OH221960   6.818   0.617   3.703
 7340TIP3    H121961   6.771   0.698   3.724
 7340TIP3    H221962   6.779   0.551   3.760
 7341TIP3   OH221963   8.296   7.588   4.527
 7341TIP3    H121964   8.385   7.569   4.497
 7341TIP3    H221965   8.269   7.510   4.575
 7342TIP3   OH221966   6.607   0.093   4.040
 7342TIP3    H121967   6.542   0.123   3.976
 7342TIP3    H221968   6.645   0.015   4.000
 7343TIP3   OH221969   2.683   2.130   2.846
 7343TIP3    H121970   2.622   2.104   2.777
 7343TIP3    H221971   2.743   2.191   2.802
 7344TIP3   OH221972   1.459   0.083   5.307
 7344TIP3    H121973   1.389   0.053   5.249
 7344TIP3    H221974   1.429   0.168   5.339
 7345TIP3   OH221975   0.183   3.036   4.856
 7345TIP3    H121976   0.114   3.040   4.790
 7345TIP3    H221977   0.204   3.127   4.875
 7346TIP3   OH221978   4.238   4.422   2.201
 7346TIP3    H121979   4.299   4.348   2.205
 7346TIP3    H221980   4.176   4.406   2.272
 7347TIP3   OH221981   4.725   2.701   5.367
 7347TIP3    H121982   4.733   2.632   5.432
 7347TIP3    H221983   4.649   2.675   5.314
 7348TIP3   OH221984   7.310   6.739   1.852
 7348TIP3    H121985   7.323   6.744   1.757
 7348TIP3    H221986   7.377   6.798   1.888
 7349TIP3   OH221987   6.654   7.716   2.069
 7349TIP3    H121988   6.727   7.697   2.128
 7349TIP3    H221989   6.644   7.637   2.016
 7350TIP3   OH221990   3.563   5.018   0.048
 7350TIP3    H121991   3.596   5.108   0.058
 7350TIP3    H221992   3.637   4.970   0.010
 7351TIP3   OH221993   7.527   2.783   2.694
 7351TIP3    H121994   7.622   2.769   2.692
 7351TIP3    H221995   7.505   2.815   2.607
 7352TIP3   OH221996   6.300   6.594   2.542
 7352TIP3    H121997   6.354   6.635   2.610
 7352TIP3    H221998   6.357   6.590   2.465
 7353TIP3   OH221999   5.997   7.677   5.273
 7353TIP3    H122000   5.985   7.641   5.185
 7353TIP3    H222001   6.052   7.612   5.318
 7354TIP3   OH222002   4.102   4.124   2.093
 7354TIP3    H122003   4.068   4.168   2.015
 7354TIP3    H222004   4.197   4.130   2.083
 7355TIP3   OH222005   5.640   4.323   2.566
 7355TIP3    H122006   5.627   4.393   2.502
 7355TIP3    H222007   5.729   4.292   2.551
 7356TIP3   OH222008   5.109   0.322   3.751
 7356TIP3    H122009   5.159   0.394   3.713
 7356TIP3    H222010   5.162   0.244   3.735
 7357TIP3   OH222011   4.328   4.128   3.153
 7357TIP3    H122012   4.402   4.074   3.124
 7357TIP3    H222013   4.251   4.081   3.124
 7358TIP3   OH222014   2.797   1.511   6.802
 7358TIP3    H122015   2.863   1.462   6.754
 7358TIP3    H222016   2.739   1.547   6.735
 7359TIP3   OH222017   1.911   0.401   0.376
 7359TIP3    H122018   1.909   0.354   0.459
 7359TIP3    H222019   1.872   0.486   0.396
 7360TIP3   OH222020   4.752   3.690   6.142
 7360TIP3    H122021   4.687   3.620   6.136
 7360TIP3    H222022   4.835   3.644   6.153
 7361TIP3   OH222023   1.860   3.006   4.567
 7361TIP3    H122024   1.843   2.937   4.631
 7361TIP3    H222025   1.930   3.059   4.607
 7362TIP3   OH222026   5.968   1.294   1.591
 7362TIP3    H122027   5.941   1.336   1.672
 7362TIP3    H222028   6.020   1.218   1.619
 7363TIP3   OH222029   7.705   5.602   5.310
 7363TIP3    H122030   7.741   5.690   5.303
 7363TIP3    H222031   7.770   5.546   5.267
 7364TIP3   OH222032   3.087   5.863   6.778
 7364TIP3    H122033   3.052   5.858   6.868
 7364TIP3    H222034   3.011   5.843   6.723
 7365TIP3   OH222035   3.074   1.903   1.178
 7365TIP3    H122036   3.060   1.967   1.109
 7365TIP3    H222037   3.112   1.827   1.133
 7366TIP3   OH222038   1.328   3.319   5.376
 7366TIP3    H122039   1.401   3.273   5.336
 7366TIP3    H222040   1.305   3.266   5.452
 7367TIP3   OH222041   1.923   1.393   3.356
 7367TIP3    H122042   1.883   1.398   3.443
 7367TIP3    H222043   1.998   1.453   3.361
 7368TIP3   OH222044   4.046   2.544   5.468
 7368TIP3    H122045   3.975   2.601   5.500
 7368TIP3    H222046   4.112   2.605   5.436
 7369TIP3   OH222047   2.137   6.465   2.031
 7369TIP3    H122048   2.067   6.405   2.006
 7369TIP3    H222049   2.092   6.538   2.072
 7370TIP3   OH222050   3.260   7.712   5.960
 7370TIP3    H122051   3.292   7.800   5.979
 7370TIP3    H222052   3.188   7.725   5.899
 7371TIP3   OH222053   7.493   4.025   3.565
 7371TIP3    H122054   7.445   4.049   3.645
 7371TIP3    H222055   7.567   4.086   3.563
 7372TIP3   OH222056   3.677   5.838   2.618
 7372TIP3    H122057   3.638   5.864   2.702
 7372TIP3    H222058   3.688   5.743   2.625
 7373TIP3   OH222059   1.367   2.347   0.505
 7373TIP3    H122060   1.318   2.414   0.553
 7373TIP3    H222061   1.304   2.312   0.442
 7374TIP3   OH222062   6.044   7.455   3.015
 7374TIP3    H122063   5.978   7.393   3.045
 7374TIP3    H222064   6.126   7.406   3.018
 7375TIP3   OH222065   6.707   1.659   5.427
 7375TIP3    H122066   6.702   1.578   5.377
 7375TIP3    H222067   6.650   1.645   5.503
 7376TIP3   OH222068   2.016   6.918   6.513
 7376TIP3    H122069   1.926   6.888   6.523
 7376TIP3    H222070   2.055   6.906   6.599
 7377TIP3   OH222071   7.637   7.666   2.545
 7377TIP3    H122072   7.670   7.679   2.456
 7377TIP3    H222073   7.652   7.573   2.563
 7378TIP3   OH222074   7.383   0.451   1.442
 7378TIP3    H122075   7.364   0.507   1.517
 7378TIP3    H222076   7.346   0.499   1.367
 7379TIP3   OH222077  -0.044   5.706   6.589
 7379TIP3    H122078  -0.028   5.645   6.517
 7379TIP3    H222079  -0.001   5.787   6.561
 7380TIP3   OH222080   2.655   4.360   2.377
 7380TIP3    H122081   2.566   4.343   2.346
 7380TIP3    H222082   2.654   4.452   2.405
 7381TIP3   OH222083   0.972   2.946   3.229
 7381TIP3    H122084   1.027   3.018   3.198
 7381TIP3    H222085   0.897   2.990   3.271
 7382TIP3   OH222086   7.831   6.692   3.468
 7382TIP3    H122087   7.768   6.762   3.452
 7382TIP3    H222088   7.784   6.611   3.448
 7383TIP3   OH222089   8.138   4.977   6.304
 7383TIP3    H122090   8.125   4.902   6.247
 7383TIP3    H222091   8.049   5.002   6.330
 7384TIP3   OH222092   4.639   4.760   4.766
 7384TIP3    H122093   4.721   4.787   4.806
 7384TIP3    H222094   4.581   4.743   4.840
 7385TIP3   OH222095   2.920   0.188   6.756
 7385TIP3    H122096   2.893   0.204   6.847
 7385TIP3    H222097   2.841   0.157   6.713
 7386TIP3   OH222098   6.340   3.355   1.468
 7386TIP3    H122099   6.310   3.424   1.527
 7386TIP3    H222100   6.390   3.400   1.401
 7387TIP3   OH222101   1.220   2.466   2.413
 7387TIP3    H122102   1.227   2.408   2.336
 7387TIP3    H222103   1.140   2.437   2.457
 7388TIP3   OH222104   5.172   4.530   0.158
 7388TIP3    H122105   5.184   4.612   0.206
 7388TIP3    H222106   5.092   4.545   0.107
 7389TIP3   OH222107   3.277   1.329   2.211
 7389TIP3    H122108   3.194   1.333   2.258
 7389TIP3    H222109   3.253   1.337   2.119
 7390TIP3   OH222110   1.608   6.243   1.418
 7390TIP3    H122111   1.661   6.187   1.361
 7390TIP3    H222112   1.672   6.292   1.469
 7391TIP3   OH222113   8.323   0.250   2.425
 7391TIP3    H122114   8.299   0.291   2.508
 7391TIP3    H222115   8.261   0.286   2.362
 7392TIP3   OH222116   7.087   4.861   3.063
 7392TIP3    H122117   7.159   4.889   3.119
 7392TIP3    H222118   7.116   4.777   3.027
 7393TIP3   OH222119   8.312   4.606   6.291
 7393TIP3    H122120   8.271   4.668   6.231
 7393TIP3    H222121   8.286   4.520   6.258
 7394TIP3   OH222122   1.718   1.825   3.305
 7394TIP3    H122123   1.630   1.856   3.284
 7394TIP3    H222124   1.761   1.813   3.220
 7395TIP3   OH222125   1.922   4.429   6.328
 7395TIP3    H122126   1.900   4.521   6.338
 7395TIP3    H222127   1.981   4.426   6.252
 7396TIP3   OH222128   0.503   6.986   4.735
 7396TIP3    H122129   0.528   6.972   4.644
 7396TIP3    H222130   0.521   7.079   4.751
 7397TIP3   OH222131   8.121   0.300   3.357
 7397TIP3    H122132   8.034   0.324   3.324
 7397TIP3    H222133   8.106   0.278   3.448
 7398TIP3   OH222134   1.425   3.313   6.032
 7398TIP3    H122135   1.437   3.245   6.099
 7398TIP3    H222136   1.344   3.290   5.988
 7399TIP3   OH222137   0.088   1.787   4.587
 7399TIP3    H122138   0.087   1.869   4.537
 7399TIP3    H222139   0.031   1.804   4.662
 7400TIP3   OH222140   7.502   5.455   5.140
 7400TIP3    H122141   7.509   5.532   5.196
 7400TIP3    H222142   7.427   5.407   5.174
 7401TIP3   OH222143   2.839   1.573   2.705
 7401TIP3    H122144   2.796   1.592   2.621
 7401TIP3    H222145   2.893   1.496   2.687
 7402TIP3   OH222146   6.496   3.110   1.189
 7402TIP3    H122147   6.471   3.077   1.102
 7402TIP3    H222148   6.579   3.157   1.173
 7403TIP3   OH222149   4.153   1.813   5.446
 7403TIP3    H122150   4.219   1.834   5.513
 7403TIP3    H222151   4.085   1.878   5.459
 7404TIP3   OH222152   7.642   4.965   6.104
 7404TIP3    H122153   7.600   5.021   6.039
 7404TIP3    H222154   7.634   5.012   6.187
 7405TIP3   OH222155   1.518   1.555   6.622
 7405TIP3    H122156   1.471   1.502   6.686
 7405TIP3    H222157   1.572   1.492   6.573
 7406TIP3   OH222158   1.451   1.683   2.402
 7406TIP3    H122159   1.520   1.721   2.348
 7406TIP3    H222160   1.491   1.606   2.442
 7407TIP3   OH222161   7.069   0.368   3.564
 7407TIP3    H122162   7.111   0.401   3.644
 7407TIP3    H222163   6.978   0.354   3.589
 7408TIP3   OH222164   5.859   5.272   3.532
 7408TIP3    H122165   5.816   5.191   3.504
 7408TIP3    H222166   5.862   5.265   3.628
 7409TIP3   OH222167   3.068   3.672   2.668
 7409TIP3    H122168   3.101   3.606   2.728
 7409TIP3    H222169   2.973   3.668   2.677
 7410TIP3   OH222170   2.399   5.857   2.304
 7410TIP3    H122171   2.306   5.879   2.295
 7410TIP3    H222172   2.414   5.856   2.398
 7411TIP3   OH222173   1.248   2.662   2.191
 7411TIP3    H122174   1.247   2.590   2.254
 7411TIP3    H222175   1.341   2.675   2.171
 7412TIP3   OH222176   3.786   0.349   5.711
 7412TIP3    H122177   3.810   0.320   5.799
 7412TIP3    H222178   3.751   0.271   5.668
 7413TIP3   OH222179   1.401   6.184   6.055
 7413TIP3    H122180   1.412   6.267   6.101
 7413TIP3    H222181   1.447   6.120   6.110
 7414TIP3   OH222182   3.694   4.126   2.406
 7414TIP3    H122183   3.691   4.081   2.490
 7414TIP3    H222184   3.785   4.149   2.394
 7415TIP3   OH222185   2.992   7.178   1.305
 7415TIP3    H122186   2.939   7.250   1.272
 7415TIP3    H222187   3.045   7.150   1.231
 7416TIP3   OH222188   1.245   7.702   0.675
 7416TIP3    H122189   1.241   7.612   0.644
 7416TIP3    H222190   1.339   7.720   0.682
 7417TIP3   OH222191   5.808   6.256   1.452
 7417TIP3    H122192   5.855   6.320   1.506
 7417TIP3    H222193   5.720   6.251   1.491
 7418TIP3   OH222194   3.196   3.307   3.669
 7418TIP3    H122195   3.188   3.223   3.714
 7418TIP3    H222196   3.290   3.315   3.652
 7419TIP3   OH222197   1.292   4.033   2.070
 7419TIP3    H122198   1.343   4.112   2.087
 7419TIP3    H222199   1.357   3.963   2.065
 7420TIP3   OH222200   5.898   4.910   4.740
 7420TIP3    H122201   5.816   4.949   4.710
 7420TIP3    H222202   5.871   4.848   4.808
 7421TIP3   OH222203   5.115   5.572   3.843
 7421TIP3    H122204   5.172   5.644   3.867
 7421TIP3    H222205   5.042   5.613   3.797
 7422TIP3   OH222206   7.111   2.330   3.735
 7422TIP3    H122207   7.046   2.373   3.679
 7422TIP3    H222208   7.063   2.258   3.776
 7423TIP3   OH222209   4.825   0.761   0.464
 7423TIP3    H122210   4.850   0.669   0.466
 7423TIP3    H222211   4.743   0.765   0.514
 7424TIP3   OH222212   0.371   2.203   1.480
 7424TIP3    H122213   0.464   2.189   1.468
 7424TIP3    H222214   0.356   2.184   1.573
 7425TIP3   OH222215   8.408   7.517   0.991
 7425TIP3    H122216   8.398   7.486   0.901
 7425TIP3    H222217   8.328   7.566   1.008
 7426TIP3   OH222218   5.000   0.304   1.448
 7426TIP3    H122219   5.001   0.211   1.470
 7426TIP3    H222220   4.936   0.342   1.507
 7427TIP3   OH222221   2.096   1.270   4.695
 7427TIP3    H122222   2.032   1.254   4.625
 7427TIP3    H222223   2.046   1.257   4.776
 7428TIP3   OH222224   2.551   1.381   4.879
 7428TIP3    H122225   2.492   1.333   4.821
 7428TIP3    H222226   2.635   1.382   4.832
 7429TIP3   OH222227   7.225   7.214   1.562
 7429TIP3    H122228   7.147   7.264   1.588
 7429TIP3    H222229   7.210   7.126   1.597
 7430TIP3   OH222230   7.487   1.323   4.355
 7430TIP3    H122231   7.468   1.393   4.293
 7430TIP3    H222232   7.513   1.249   4.300
 7431TIP3   OH222233   0.888   1.566   3.681
 7431TIP3    H122234   0.964   1.533   3.729
 7431TIP3    H222235   0.819   1.571   3.748
 7432TIP3   OH222236   6.186   5.878   6.773
 7432TIP3    H122237   6.264   5.867   6.719
 7432TIP3    H222238   6.115   5.892   6.709
 7433TIP3   OH222239   3.479   3.389   0.923
 7433TIP3    H122240   3.549   3.366   0.861
 7433TIP3    H222241   3.524   3.396   1.007
 7434TIP3   OH222242   5.030   6.919   1.057
 7434TIP3    H122243   5.118   6.881   1.063
 7434TIP3    H222244   4.975   6.847   1.027
 7435TIP3   OH222245   1.746   7.457   4.182
 7435TIP3    H122246   1.732   7.532   4.125
 7435TIP3    H222247   1.673   7.460   4.245
 7436TIP3   OH222248   3.404   4.090   2.579
 7436TIP3    H122249   3.346   4.014   2.588
 7436TIP3    H222250   3.440   4.103   2.666
 7437TIP3   OH222251   3.392   6.486   5.434
 7437TIP3    H122252   3.361   6.441   5.355
 7437TIP3    H222253   3.436   6.419   5.485
 7438TIP3   OH222254   4.014   5.025   1.805
 7438TIP3    H122255   4.025   5.106   1.855
 7438TIP3    H222256   3.956   4.971   1.859
 7439TIP3   OH222257   4.846   5.458   4.589
 7439TIP3    H122258   4.869   5.464   4.496
 7439TIP3    H222259   4.753   5.481   4.592
 7440TIP3   OH222260   7.509   1.231   6.793
 7440TIP3    H122261   7.532   1.309   6.741
 7440TIP3    H222262   7.553   1.159   6.747
 7441TIP3   OH222263   0.796   4.418   0.202
 7441TIP3    H122264   0.875   4.456   0.240
 7441TIP3    H222265   0.823   4.386   0.116
 7442TIP3   OH222266   2.045   5.802   0.839
 7442TIP3    H122267   2.127   5.780   0.882
 7442TIP3    H222268   2.069   5.870   0.776
 7443TIP3   OH222269   3.364   0.416   3.662
 7443TIP3    H122270   3.443   0.401   3.610
 7443TIP3    H222271   3.292   0.395   3.604
 7444TIP3   OH222272   7.020   6.025   0.255
 7444TIP3    H122273   7.112   6.025   0.281
 7444TIP3    H222274   6.987   5.939   0.282
 7445TIP3   OH222275   0.826   7.570   5.460
 7445TIP3    H122276   0.783   7.484   5.454
 7445TIP3    H222277   0.756   7.629   5.487
 7446TIP3   OH222278   0.263   2.453   1.422
 7446TIP3    H122279   0.291   2.363   1.437
 7446TIP3    H222280   0.344   2.503   1.412
 7447TIP3   OH222281   0.667   1.474   4.526
 7447TIP3    H122282   0.614   1.432   4.594
 7447TIP3    H222283   0.738   1.412   4.509
 7448TIP3   OH222284   7.902   3.547   6.334
 7448TIP3    H122285   7.866   3.603   6.265
 7448TIP3    H222286   7.843   3.560   6.409
 7449TIP3   OH222287   3.368   5.518   0.330
 7449TIP3    H122288   3.382   5.603   0.372
 7449TIP3    H222289   3.449   5.501   0.282
 7450TIP3   OH222290   1.017   1.981   2.154
 7450TIP3    H122291   1.004   2.071   2.185
 7450TIP3    H222292   1.082   1.990   2.084
 7451TIP3   OH222293   8.218   0.875   5.194
 7451TIP3    H122294   8.211   0.825   5.275
 7451TIP3    H222295   8.146   0.939   5.199
 7452TIP3   OH222296   0.890   0.079   2.781
 7452TIP3    H122297   0.904   0.072   2.875
 7452TIP3    H222298   0.798   0.053   2.768
 7453TIP3   OH222299   2.919   0.602   6.449
 7453TIP3    H122300   2.830   0.605   6.415
 7453TIP3    H222301   2.909   0.591   6.543
 7454TIP3   OH222302   3.952   6.771   0.005
 7454TIP3    H122303   3.935   6.720   0.085
 7454TIP3    H222304   3.907   6.854   0.020
 7455TIP3   OH222305   5.656   2.888   3.645
 7455TIP3    H122306   5.707   2.816   3.684
 7455TIP3    H222307   5.633   2.856   3.558
 7456TIP3   OH222308   2.262   6.804   4.754
 7456TIP3    H122309   2.176   6.809   4.713
 7456TIP3    H222310   2.286   6.895   4.770
 7457TIP3   OH222311   1.112   3.884   3.560
 7457TIP3    H122312   1.208   3.885   3.563
 7457TIP3    H222313   1.091   3.892   3.467
 7458TIP3   OH222314   1.784   0.096   2.210
 7458TIP3    H122315   1.807   0.003   2.209
 7458TIP3    H222316   1.691   0.097   2.234
 7459TIP3   OH222317   5.391   4.172   5.343
 7459TIP3    H122318   5.424   4.143   5.428
 7459TIP3    H222319   5.338   4.099   5.311
 7460TIP3   OH222320   1.511   5.572   4.682
 7460TIP3    H122321   1.491   5.482   4.710
 7460TIP3    H222322   1.606   5.578   4.687
 7461TIP3   OH222323   1.378   1.896   6.243
 7461TIP3    H122324   1.456   1.875   6.296
 7461TIP3    H222325   1.307   1.900   6.307
 7462TIP3   OH222326   4.245   6.301   3.994
 7462TIP3    H122327   4.244   6.376   4.054
 7462TIP3    H222328   4.335   6.300   3.960
 7463TIP3   OH222329   3.142   5.531   1.270
 7463TIP3    H122330   3.061   5.576   1.296
 7463TIP3    H222331   3.164   5.570   1.185
 7464TIP3   OH222332   0.155   6.349   3.627
 7464TIP3    H122333   0.106   6.268   3.611
 7464TIP3    H222334   0.223   6.349   3.560
 7465TIP3   OH222335   7.384   6.527   6.017
 7465TIP3    H122336   7.416   6.552   6.104
 7465TIP3    H222337   7.301   6.574   6.008
 7466TIP3   OH222338   6.364   5.997   2.850
 7466TIP3    H122339   6.315   6.066   2.805
 7466TIP3    H222340   6.453   6.032   2.856
 7467TIP3   OH222341   6.170   1.297   6.762
 7467TIP3    H122342   6.204   1.386   6.746
 7467TIP3    H222343   6.081   1.311   6.792
 7468TIP3   OH222344   5.647   7.840   1.876
 7468TIP3    H122345   5.602   7.924   1.879
 7468TIP3    H222346   5.617   7.793   1.954
 7469TIP3   OH222347   2.746   0.478   3.743
 7469TIP3    H122348   2.840   0.487   3.730
 7469TIP3    H222349   2.722   0.400   3.694
 7470TIP3   OH222350   6.165   0.236   1.205
 7470TIP3    H122351   6.258   0.259   1.208
 7470TIP3    H222352   6.119   0.317   1.227
 7471TIP3   OH222353   7.443   1.855   1.753
 7471TIP3    H122354   7.379   1.843   1.823
 7471TIP3    H222355   7.499   1.926   1.784
 7472TIP3   OH222356   6.223   3.702   3.206
 7472TIP3    H122357   6.272   3.769   3.158
 7472TIP3    H222358   6.200   3.745   3.289
 7473TIP3   OH222359   1.910   4.496   0.388
 7473TIP3    H122360   1.953   4.427   0.337
 7473TIP3    H222361   1.916   4.466   0.479
 7474TIP3   OH222362   6.732   6.686   3.371
 7474TIP3    H122363   6.724   6.768   3.322
 7474TIP3    H222364   6.686   6.622   3.317
 7475TIP3   OH222365   0.710   5.691   6.241
 7475TIP3    H122366   0.796   5.734   6.238
 7475TIP3    H222367   0.706   5.651   6.328
 7476TIP3   OH222368   7.018   6.316   0.348
 7476TIP3    H122369   7.045   6.246   0.289
 7476TIP3    H222370   6.927   6.333   0.325
 7477TIP3   OH222371   2.677   4.745   3.126
 7477TIP3    H122372   2.765   4.770   3.151
 7477TIP3    H222373   2.689   4.674   3.062
 7478TIP3   OH222374   7.695   7.116   0.913
 7478TIP3    H122375   7.611   7.072   0.902
 7478TIP3    H222376   7.684   7.168   0.993
 7479TIP3   OH222377   7.437   0.383   6.738
 7479TIP3    H122378   7.441   0.380   6.642
 7479TIP3    H222379   7.401   0.469   6.757
 7480TIP3   OH222380   6.995   5.224   1.270
 7480TIP3    H122381   6.933   5.202   1.201
 7480TIP3    H222382   7.068   5.267   1.225
 7481TIP3   OH222383   8.247   3.051   1.548
 7481TIP3    H122384   8.209   3.000   1.476
 7481TIP3    H222385   8.177   3.056   1.613
 7482TIP3   OH222386   2.604   3.518   2.290
 7482TIP3    H122387   2.608   3.570   2.210
 7482TIP3    H222388   2.573   3.580   2.357
 7483TIP3   OH222389   7.373   6.130   2.343
 7483TIP3    H122390   7.360   6.044   2.381
 7483TIP3    H222391   7.286   6.156   2.311
 7484TIP3   OH222392   6.527   4.681   2.110
 7484TIP3    H122393   6.439   4.689   2.148
 7484TIP3    H222394   6.511   4.648   2.021
 7485TIP3   OH222395   2.972   3.944   5.932
 7485TIP3    H122396   3.014   3.869   5.974
 7485TIP3    H222397   2.879   3.921   5.930
 7486TIP3   OH222398   6.322   4.956   0.473
 7486TIP3    H122399   6.256   5.006   0.425
 7486TIP3    H222400   6.385   4.928   0.406
 7487TIP3   OH222401   6.139   4.624   4.002
 7487TIP3    H122402   6.218   4.593   3.957
 7487TIP3    H222403   6.169   4.699   4.053
 7488TIP3   OH222404   4.107   3.605   1.163
 7488TIP3    H122405   4.153   3.595   1.246
 7488TIP3    H222406   4.028   3.552   1.173
 7489TIP3   OH222407   1.325   1.365   3.433
 7489TIP3    H122408   1.403   1.394   3.385
 7489TIP3    H222409   1.357   1.295   3.490
 7490TIP3   OH222410   6.381   2.675   3.915
 7490TIP3    H122411   6.288   2.691   3.899
 7490TIP3    H222412   6.411   2.626   3.838
 7491TIP3   OH222413   6.532   1.885   0.209
 7491TIP3    H122414   6.605   1.885   0.148
 7491TIP3    H222415   6.465   1.832   0.165
 7492TIP3   OH222416   4.152   3.677   5.502
 7492TIP3    H122417   4.225   3.687   5.564
 7492TIP3    H222418   4.080   3.726   5.541
 7493TIP3   OH222419   2.452   6.596   1.576
 7493TIP3    H122420   2.515   6.596   1.504
 7493TIP3    H222421   2.505   6.576   1.654
 7494TIP3   OH222422   8.289   3.568   3.844
 7494TIP3    H122423   8.307   3.524   3.927
 7494TIP3    H222424   8.255   3.654   3.869
 7495TIP3   OH222425   6.128   7.889   6.534
 7495TIP3    H122426   6.035   7.899   6.514
 7495TIP3    H222427   6.170   7.884   6.448
 7496TIP3   OH222428   1.016   6.844   4.376
 7496TIP3    H122429   1.100   6.875   4.341
 7496TIP3    H222430   0.991   6.773   4.318
 7497TIP3   OH222431   1.779   1.392   3.866
 7497TIP3    H122432   1.724   1.466   3.839
 7497TIP3    H222433   1.738   1.361   3.947
 7498TIP3   OH222434   5.878   5.826   0.600
 7498TIP3    H122435   5.818   5.828   0.674
 7498TIP3    H222436   5.825   5.792   0.527
 7499TIP3   OH222437   1.823   1.650   1.860
 7499TIP3    H122438   1.781   1.736   1.862
 7499TIP3    H222439   1.750   1.588   1.869
 7500TIP3   OH222440   2.225   2.971   6.534
 7500TIP3    H122441   2.255   3.055   6.570
 7500TIP3    H222442   2.278   2.959   6.455
 7501TIP3   OH222443   2.258   1.831   4.894
 7501TIP3    H122444   2.326   1.795   4.836
 7501TIP3    H222445   2.306   1.860   4.971
 7502TIP3   OH222446   7.137   5.195   5.517
 7502TIP3    H122447   7.162   5.287   5.503
 7502TIP3    H222448   7.220   5.148   5.519
 7503TIP3   OH222449   8.189   5.377   3.847
 7503TIP3    H122450   8.279   5.410   3.844
 7503TIP3    H222451   8.197   5.285   3.821
 7504TIP3   OH222452   0.126   2.911   1.122
 7504TIP3    H122453   0.031   2.902   1.109
 7504TIP3    H222454   0.134   2.968   1.199
 7505TIP3   OH222455   6.439   4.678   0.898
 7505TIP3    H122456   6.534   4.688   0.894
 7505TIP3    H222457   6.406   4.755   0.850
 7506TIP3   OH222458   0.384   5.655   5.320
 7506TIP3    H122459   0.350   5.740   5.291
 7506TIP3    H222460   0.447   5.677   5.388
 7507TIP3   OH222461   3.463   3.502   4.558
 7507TIP3    H122462   3.464   3.515   4.652
 7507TIP3    H222463   3.395   3.437   4.543
 7508TIP3   OH222464   7.211   5.716   4.377
 7508TIP3    H122465   7.282   5.764   4.335
 7508TIP3    H222466   7.212   5.746   4.468
 7509TIP3   OH222467   0.520   4.699   0.719
 7509TIP3    H122468   0.441   4.753   0.717
 7509TIP3    H222469   0.532   4.677   0.812
 7510TIP3   OH222470   2.363   2.551   1.354
 7510TIP3    H122471   2.287   2.606   1.335
 7510TIP3    H222472   2.350   2.473   1.299
 7511TIP3   OH222473   0.728   5.520   4.458
 7511TIP3    H122474   0.776   5.566   4.528
 7511TIP3    H222475   0.793   5.509   4.388
 7512TIP3   OH222476   2.688   4.752   5.216
 7512TIP3    H122477   2.600   4.766   5.249
 7512TIP3    H222478   2.744   4.809   5.269
 7513TIP3   OH222479   1.040   4.060   4.323
 7513TIP3    H122480   1.133   4.039   4.320
 7513TIP3    H222481   0.996   3.974   4.319
 7514TIP3   OH222482   2.950   2.047   5.274
 7514TIP3    H122483   2.979   2.093   5.352
 7514TIP3    H222484   3.021   1.986   5.254
 7515TIP3   OH222485   1.145   6.470   4.457
 7515TIP3    H122486   1.212   6.423   4.506
 7515TIP3    H222487   1.193   6.538   4.409
 7516TIP3   OH222488   6.979   2.636   5.001
 7516TIP3    H122489   6.944   2.617   4.913
 7516TIP3    H222490   7.071   2.657   4.986
 7517TIP3   OH222491   0.625   4.722   5.946
 7517TIP3    H122492   0.626   4.804   5.896
 7517TIP3    H222493   0.617   4.653   5.879
 7518TIP3   OH222494   4.190   6.145   2.225
 7518TIP3    H122495   4.239   6.159   2.306
 7518TIP3    H222496   4.240   6.191   2.158
 7519TIP3   OH222497   6.585   5.219   1.937
 7519TIP3    H122498   6.574   5.132   1.974
 7519TIP3    H222499   6.583   5.206   1.842
 7520TIP3   OH222500   1.983   6.732   0.226
 7520TIP3    H122501   1.942   6.656   0.267
 7520TIP3    H222502   2.030   6.696   0.150
 7521TIP3   OH222503   2.727   7.787   4.088
 7521TIP3    H122504   2.713   7.693   4.101
 7521TIP3    H222505   2.817   7.794   4.056
 7522TIP3   OH222506   6.358   7.380   6.646
 7522TIP3    H122507   6.307   7.388   6.566
 7522TIP3    H222508   6.308   7.321   6.701
 7523TIP3   OH222509   8.148   7.100   0.825
 7523TIP3    H122510   8.122   7.167   0.888
 7523TIP3    H222511   8.066   7.058   0.799
 7524TIP3   OH222512   7.903   7.225   0.154
 7524TIP3    H122513   7.888   7.313   0.190
 7524TIP3    H222514   7.842   7.169   0.201
 7525TIP3   OH222515   6.896   1.353   3.397
 7525TIP3    H122516   6.931   1.428   3.446
 7525TIP3    H222517   6.973   1.312   3.358
 7526TIP3   OH222518   2.634   2.607   4.589
 7526TIP3    H122519   2.624   2.583   4.497
 7526TIP3    H222520   2.621   2.702   4.590
 7527TIP3   OH222521   3.464   6.570   5.088
 7527TIP3    H122522   3.473   6.489   5.037
 7527TIP3    H222523   3.379   6.562   5.131
 7528TIP3   OH222524   1.965   1.634   2.196
 7528TIP3    H122525   1.993   1.668   2.111
 7528TIP3    H222526   1.977   1.539   2.189
 7529TIP3   OH222527   0.981   5.769   6.239
 7529TIP3    H122528   1.014   5.679   6.241
 7529TIP3    H222529   1.046   5.817   6.186
 7530TIP3   OH222530   0.441   3.288   0.124
 7530TIP3    H122531   0.434   3.205   0.170
 7530TIP3    H222532   0.427   3.266   0.032
 7531TIP3   OH222533   0.953   2.520   3.670
 7531TIP3    H122534   1.046   2.531   3.652
 7531TIP3    H222535   0.914   2.496   3.586
 7532TIP3   OH222536   7.245   6.481   4.009
 7532TIP3    H122537   7.273   6.421   4.078
 7532TIP3    H222538   7.156   6.453   3.987
 7533TIP3   OH222539   3.657   0.742   0.367
 7533TIP3    H122540   3.586   0.804   0.351
 7533TIP3    H222541   3.694   0.769   0.452
 7534TIP3   OH222542   6.066   7.846   6.137
 7534TIP3    H122543   6.025   7.928   6.164
 7534TIP3    H222544   6.064   7.849   6.041
 7535TIP3   OH222545   7.937   5.668   5.972
 7535TIP3    H122546   7.917   5.625   6.055
 7535TIP3    H222547   8.017   5.718   5.989
 7536TIP3   OH222548   6.310   0.994   2.011
 7536TIP3    H122549   6.228   1.012   2.057
 7536TIP3    H222550   6.332   0.904   2.035
 7537TIP3   OH222551   4.626   3.436   6.150
 7537TIP3    H122552   4.558   3.405   6.090
 7537TIP3    H222553   4.578   3.476   6.222
 7538TIP3   OH222554   6.918   6.897   1.063
 7538TIP3    H122555   6.990   6.848   1.022
 7538TIP3    H222556   6.941   6.900   1.156
 7539TIP3   OH222557   0.129   1.417   0.381
 7539TIP3    H122558   0.129   1.376   0.294
 7539TIP3    H222559   0.205   1.378   0.424
 7540TIP3   OH222560   7.677   5.734   5.909
 7540TIP3    H122561   7.755   5.694   5.947
 7540TIP3    H222562   7.612   5.664   5.906
 7541TIP3   OH222563   4.416   3.301   3.185
 7541TIP3    H122564   4.502   3.300   3.226
 7541TIP3    H222565   4.433   3.320   3.093
 7542TIP3   OH222566   4.437   7.443   3.645
 7542TIP3    H122567   4.427   7.348   3.635
 7542TIP3    H222568   4.527   7.454   3.673
 7543TIP3   OH222569   2.087   0.260   4.508
 7543TIP3    H122570   2.081   0.191   4.575
 7543TIP3    H222571   2.100   0.341   4.558
 7544TIP3   OH222572   8.065   7.610   3.453
 7544TIP3    H122573   8.042   7.565   3.372
 7544TIP3    H222574   8.033   7.700   3.440
 7545TIP3   OH222575   6.858   4.834   1.106
 7545TIP3    H122576   6.804   4.845   1.185
 7545TIP3    H222577   6.800   4.790   1.044
 7546TIP3   OH222578   5.090   6.138   1.879
 7546TIP3    H122579   5.182   6.117   1.868
 7546TIP3    H222580   5.045   6.053   1.876
 7547TIP3   OH222581   4.984   5.065   0.236
 7547TIP3    H122582   5.002   5.051   0.143
 7547TIP3    H222583   4.912   5.006   0.256
 7548TIP3   OH222584   5.449   5.226   5.113
 7548TIP3    H122585   5.429   5.244   5.021
 7548TIP3    H222586   5.383   5.163   5.140
 7549TIP3   OH222587   0.717   2.478   5.366
 7549TIP3    H122588   0.668   2.414   5.418
 7549TIP3    H222589   0.809   2.461   5.386
 7550TIP3   OH222590   3.053   1.654   4.784
 7550TIP3    H122591   2.982   1.591   4.797
 7550TIP3    H222592   3.034   1.694   4.699
 7551TIP3   OH222593   2.998   4.854   1.913
 7551TIP3    H122594   3.011   4.772   1.962
 7551TIP3    H222595   2.940   4.905   1.969
 7552TIP3   OH222596   2.101   5.968   3.220
 7552TIP3    H122597   2.092   6.058   3.188
 7552TIP3    H222598   2.177   5.971   3.277
 7553TIP3   OH222599   3.860   4.183   2.819
 7553TIP3    H122600   3.894   4.103   2.861
 7553TIP3    H222601   3.847   4.244   2.891
 7554TIP3   OH222602   0.158   0.338   1.729
 7554TIP3    H122603   0.235   0.390   1.708
 7554TIP3    H222604   0.110   0.391   1.793
 7555TIP3   OH222605   4.071   4.571   5.771
 7555TIP3    H122606   4.072   4.666   5.777
 7555TIP3    H222607   4.015   4.552   5.696
 7556TIP3   OH222608   0.165   1.555   5.693
 7556TIP3    H122609   0.152   1.523   5.604
 7556TIP3    H222610   0.239   1.615   5.687
 7557TIP3   OH222611   4.440   0.707   0.138
 7557TIP3    H122612   4.459   0.753   0.220
 7557TIP3    H222613   4.492   0.627   0.142
 7558TIP3   OH222614   0.474   3.665   3.987
 7558TIP3    H122615   0.537   3.726   4.025
 7558TIP3    H222616   0.486   3.674   3.893
 7559TIP3   OH222617   4.442   5.413   2.298
 7559TIP3    H122618   4.517   5.433   2.353
 7559TIP3    H222619   4.475   5.419   2.208
 7560TIP3   OH222620   7.746   4.834   3.727
 7560TIP3    H122621   7.728   4.746   3.694
 7560TIP3    H222622   7.714   4.833   3.818
 7561TIP3   OH222623   4.840   0.371   3.876
 7561TIP3    H122624   4.783   0.341   3.805
 7561TIP3    H222625   4.928   0.341   3.851
 7562TIP3   OH222626   7.576   0.200   6.207
 7562TIP3    H122627   7.657   0.224   6.161
 7562TIP3    H222628   7.561   0.272   6.268
 7563TIP3   OH222629   4.255   1.224   1.801
 7563TIP3    H122630   4.183   1.214   1.740
 7563TIP3    H222631   4.224   1.184   1.883
 7564TIP3   OH222632   4.622   1.484   2.695
 7564TIP3    H122633   4.589   1.394   2.701
 7564TIP3    H222634   4.617   1.517   2.785
 7565TIP3   OH222635   1.619   4.656   3.150
 7565TIP3    H122636   1.681   4.664   3.222
 7565TIP3    H222637   1.673   4.633   3.074
 7566TIP3   OH222638   0.799   0.377   3.333
 7566TIP3    H122639   0.745   0.307   3.296
 7566TIP3    H222640   0.856   0.404   3.260
 7567TIP3   OH222641   1.070   4.902   0.984
 7567TIP3    H122642   1.051   4.968   1.052
 7567TIP3    H222643   0.984   4.880   0.948
 7568TIP3   OH222644   1.507   0.218   4.964
 7568TIP3    H122645   1.575   0.257   5.019
 7568TIP3    H222646   1.554   0.155   4.909
 7569TIP3   OH222647   1.699   6.941   3.489
 7569TIP3    H122648   1.638   6.913   3.420
 7569TIP3    H222649   1.689   6.876   3.558
 7570TIP3   OH222650   5.754   7.372   1.248
 7570TIP3    H122651   5.768   7.424   1.169
 7570TIP3    H222652   5.661   7.348   1.245
 7571TIP3   OH222653   3.526   4.205   3.774
 7571TIP3    H122654   3.570   4.184   3.692
 7571TIP3    H222655   3.434   4.218   3.749
 7572TIP3   OH222656   6.340   6.169   0.725
 7572TIP3    H122657   6.327   6.175   0.631
 7572TIP3    H222658   6.334   6.075   0.744
 7573TIP3   OH222659   0.737   0.681   6.187
 7573TIP3    H122660   0.731   0.766   6.230
 7573TIP3    H222661   0.784   0.626   6.250
 7574TIP3   OH222662   7.763   5.298   1.158
 7574TIP3    H122663   7.740   5.230   1.222
 7574TIP3    H222664   7.856   5.316   1.175
 7575TIP3   OH222665   6.023   5.507   2.301
 7575TIP3    H122666   6.045   5.553   2.220
 7575TIP3    H222667   6.076   5.551   2.368
 7576TIP3   OH222668   5.873   0.148   5.815
 7576TIP3    H122669   5.843   0.236   5.791
 7576TIP3    H222670   5.839   0.136   5.904
 7577TIP3   OH222671   0.264   0.303   0.633
 7577TIP3    H122672   0.266   0.238   0.703
 7577TIP3    H222673   0.263   0.252   0.553
 7578TIP3   OH222674   0.594   5.114   4.642
 7578TIP3    H122675   0.628   5.076   4.561
 7578TIP3    H222676   0.571   5.038   4.696
 7579TIP3   OH222677   3.040   7.079   5.367
 7579TIP3    H122678   3.010   7.153   5.420
 7579TIP3    H222679   3.136   7.085   5.369
 7580TIP3   OH222680   2.639   6.394   0.402
 7580TIP3    H122681   2.571   6.327   0.412
 7580TIP3    H222682   2.668   6.386   0.311
 7581TIP3   OH222683   6.477   5.393   1.199
 7581TIP3    H122684   6.412   5.431   1.258
 7581TIP3    H222685   6.509   5.316   1.246
 7582TIP3   OH222686   5.694   3.092   3.945
 7582TIP3    H122687   5.600   3.108   3.957
 7582TIP3    H222688   5.715   3.134   3.862
 7583TIP3   OH222689   7.695   7.398   5.749
 7583TIP3    H122690   7.701   7.481   5.700
 7583TIP3    H222691   7.604   7.394   5.778
 7584TIP3   OH222692   1.761   3.365   0.156
 7584TIP3    H122693   1.816   3.287   0.151
 7584TIP3    H222694   1.673   3.330   0.170
 7585TIP3   OH222695   7.477   3.632   1.936
 7585TIP3    H122696   7.452   3.682   1.859
 7585TIP3    H222697   7.428   3.672   2.008
 7586TIP3   OH222698   2.417   1.424   5.966
 7586TIP3    H122699   2.476   1.394   5.898
 7586TIP3    H222700   2.422   1.357   6.034
 7587TIP3   OH222701   3.885   1.531   1.521
 7587TIP3    H122702   3.790   1.532   1.520
 7587TIP3    H222703   3.910   1.476   1.447
 7588TIP3   OH222704   5.438   5.601   1.509
 7588TIP3    H122705   5.399   5.521   1.544
 7588TIP3    H222706   5.515   5.570   1.460
 7589TIP3   OH222707   3.970   1.132   5.500
 7589TIP3    H122708   3.965   1.051   5.448
 7589TIP3    H222709   4.025   1.191   5.448
 7590TIP3   OH222710   2.459   6.191   0.076
 7590TIP3    H122711   2.498   6.240   0.003
 7590TIP3    H222712   2.510   6.110   0.081
 7591TIP3   OH222713   6.711   5.096   2.432
 7591TIP3    H122714   6.627   5.109   2.476
 7591TIP3    H222715   6.743   5.185   2.415
 7592TIP3   OH222716   2.602   5.570   3.263
 7592TIP3    H122717   2.537   5.582   3.332
 7592TIP3    H222718   2.633   5.658   3.244
 7593TIP3   OH222719   2.323   7.829   0.552
 7593TIP3    H122720   2.323   7.924   0.539
 7593TIP3    H222721   2.284   7.817   0.638
 7594TIP3   OH222722   2.680   3.752   6.431
 7594TIP3    H122723   2.615   3.686   6.411
 7594TIP3    H222724   2.718   3.724   6.514
 7595TIP3   OH222725   7.456   6.453   4.322
 7595TIP3    H122726   7.549   6.449   4.345
 7595TIP3    H222727   7.447   6.535   4.273
 7596TIP3   OH222728   2.869   0.977   4.565
 7596TIP3    H122729   2.905   0.906   4.620
 7596TIP3    H222730   2.795   0.937   4.520
 7597TIP3   OH222731   3.708   4.697   1.111
 7597TIP3    H122732   3.739   4.713   1.200
 7597TIP3    H222733   3.786   4.707   1.056
 7598TIP3   OH222734   4.439   3.629   3.344
 7598TIP3    H122735   4.441   3.565   3.416
 7598TIP3    H222736   4.347   3.649   3.332
 7599TIP3   OH222737   1.756   1.587   5.544
 7599TIP3    H122738   1.843   1.609   5.575
 7599TIP3    H222739   1.770   1.542   5.461
 7600TIP3   OH222740   3.261   0.489   5.734
 7600TIP3    H122741   3.166   0.482   5.741
 7600TIP3    H222742   3.278   0.584   5.735
 7601TIP3   OH222743   3.250   5.034   6.260
 7601TIP3    H122744   3.327   5.006   6.309
 7601TIP3    H222745   3.176   4.999   6.309
 7602TIP3   OH222746   6.347   7.120   3.418
 7602TIP3    H122747   6.259   7.122   3.456
 7602TIP3    H222748   6.404   7.106   3.493
 7603TIP3   OH222749   5.938   1.399   5.714
 7603TIP3    H122750   5.993   1.401   5.635
 7603TIP3    H222751   5.855   1.436   5.685
 7604TIP3   OH222752   2.173   6.121   0.936
 7604TIP3    H122753   2.181   6.072   0.854
 7604TIP3    H222754   2.163   6.053   1.003
 7605TIP3   OH222755   5.662   4.664   5.249
 7605TIP3    H122756   5.648   4.634   5.338
 7605TIP3    H222757   5.739   4.616   5.219
 7606TIP3   OH222758   4.497   7.138   1.439
 7606TIP3    H122759   4.529   7.227   1.422
 7606TIP3    H222760   4.575   7.083   1.435
 7607TIP3   OH222761   0.507   7.563   0.666
 7607TIP3    H122762   0.439   7.561   0.734
 7607TIP3    H222763   0.470   7.509   0.595
 7608TIP3   OH222764   0.144   3.872   1.898
 7608TIP3    H122765   0.187   3.909   1.974
 7608TIP3    H222766   0.176   3.925   1.824
 7609TIP3   OH222767   7.280   5.221   2.494
 7609TIP3    H122768   7.317   5.180   2.572
 7609TIP3    H222769   7.189   5.240   2.518
 7610TIP3   OH222770   7.506   7.066   2.056
 7610TIP3    H122771   7.602   7.069   2.053
 7610TIP3    H222772   7.482   7.133   2.120
 7611TIP3   OH222773   1.271   5.178   6.863
 7611TIP3    H122774   1.232   5.246   6.809
 7611TIP3    H222775   1.265   5.099   6.810
 7612TIP3   OH222776   1.102   3.529   2.099
 7612TIP3    H122777   1.040   3.545   2.170
 7612TIP3    H222778   1.120   3.435   2.104
 7613TIP3   OH222779   5.984   3.023   3.640
 7613TIP3    H122780   6.008   3.068   3.721
 7613TIP3    H222781   6.058   3.040   3.581
 7614TIP3   OH222782   6.200   0.853   0.623
 7614TIP3    H122783   6.149   0.854   0.704
 7614TIP3    H222784   6.134   0.858   0.553
 7615TIP3   OH222785   5.623   0.573   1.230
 7615TIP3    H122786   5.677   0.635   1.181
 7615TIP3    H222787   5.648   0.586   1.322
 7616TIP3   OH222788   1.732   7.354   1.702
 7616TIP3    H122789   1.727   7.263   1.731
 7616TIP3    H222790   1.822   7.380   1.722
 7617TIP3   OH222791   5.446   6.529   0.674
 7617TIP3    H122792   5.483   6.614   0.653
 7617TIP3    H222793   5.455   6.479   0.593
 7618TIP3   OH222794   3.568   6.669   1.638
 7618TIP3    H122795   3.488   6.693   1.591
 7618TIP3    H222796   3.553   6.697   1.728
 7619TIP3   OH222797   0.887   0.981   1.872
 7619TIP3    H122798   0.856   0.964   1.961
 7619TIP3    H222799   0.941   0.905   1.851
 7620TIP3   OH222800   6.910   3.401   2.214
 7620TIP3    H122801   6.945   3.363   2.134
 7620TIP3    H222802   6.921   3.333   2.280
 7621TIP3   OH222803   1.999   6.854   0.752
 7621TIP3    H122804   2.072   6.885   0.699
 7621TIP3    H222805   1.923   6.898   0.716
 7622TIP3   OH222806   1.293   7.393   6.084
 7622TIP3    H122807   1.281   7.299   6.082
 7622TIP3    H222808   1.388   7.405   6.092
 7623TIP3   OH222809   8.231   5.293   4.241
 7623TIP3    H122810   8.229   5.235   4.317
 7623TIP3    H222811   8.211   5.380   4.276
 7624TIP3   OH222812   2.152   1.456   2.976
 7624TIP3    H122813   2.069   1.408   2.979
 7624TIP3    H222814   2.161   1.495   3.063
 7625TIP3   OH222815   7.523   3.068   3.950
 7625TIP3    H122816   7.492   3.153   3.980
 7625TIP3    H222817   7.451   3.032   3.898
 7626TIP3   OH222818   8.040   1.254   3.895
 7626TIP3    H122819   8.102   1.182   3.905
 7626TIP3    H222820   8.025   1.285   3.984
 7627TIP3   OH222821   0.414   4.171   6.428
 7627TIP3    H122822   0.334   4.120   6.412
 7627TIP3    H222823   0.470   4.152   6.353
 7628TIP3   OH222824   5.544   7.368   4.446
 7628TIP3    H122825   5.591   7.324   4.516
 7628TIP3    H222826   5.479   7.304   4.417
 7629TIP3   OH222827   7.243   7.590   5.947
 7629TIP3    H122828   7.191   7.628   6.018
 7629TIP3    H222829   7.199   7.507   5.927
 7630TIP3   OH222830   5.450   2.873   5.652
 7630TIP3    H122831   5.429   2.912   5.736
 7630TIP3    H222832   5.374   2.892   5.597
 7631TIP3   OH222833   4.505   1.437   4.542
 7631TIP3    H122834   4.500   1.499   4.614
 7631TIP3    H222835   4.414   1.412   4.525
 7632TIP3   OH222836   6.195   1.376   0.909
 7632TIP3    H122837   6.283   1.338   0.905
 7632TIP3    H222838   6.154   1.333   0.984
 7633TIP3   OH222839   6.122   0.713   0.065
 7633TIP3    H122840   6.066   0.669   0.001
 7633TIP3    H222841   6.062   0.763   0.120
 7634TIP3   OH222842   3.515   3.472   2.772
 7634TIP3    H122843   3.548   3.423   2.847
 7634TIP3    H222844   3.427   3.500   2.799
 7635TIP3   OH222845   2.077   1.453   1.207
 7635TIP3    H122846   2.129   1.526   1.172
 7635TIP3    H222847   2.136   1.407   1.266
 7636TIP3   OH222848   3.677   7.710   2.248
 7636TIP3    H122849   3.614   7.763   2.298
 7636TIP3    H222850   3.622   7.653   2.195
 7637TIP3   OH222851   1.390   1.199   4.668
 7637TIP3    H122852   1.332   1.132   4.704
 7637TIP3    H222853   1.470   1.151   4.646
 7638TIP3   OH222854   6.238   2.178   5.717
 7638TIP3    H122855   6.192   2.260   5.701
 7638TIP3    H222856   6.255   2.178   5.811
 7639TIP3   OH222857   5.897   5.585   1.138
 7639TIP3    H122858   5.948   5.584   1.056
 7639TIP3    H222859   5.900   5.494   1.168
 7640TIP3   OH222860   7.460   7.561   3.543
 7640TIP3    H122861   7.455   7.553   3.639
 7640TIP3    H222862   7.531   7.502   3.518
 7641TIP3   OH222863   4.796   6.506   5.797
 7641TIP3    H122864   4.702   6.486   5.803
 7641TIP3    H222865   4.840   6.426   5.825
 7642TIP3   OH222866   4.451   4.007   3.485
 7642TIP3    H122867   4.431   3.923   3.525
 7642TIP3    H222868   4.488   4.059   3.556
 7643TIP3   OH222869   7.857   3.321   5.245
 7643TIP3    H122870   7.774   3.362   5.220
 7643TIP3    H222871   7.832   3.238   5.285
 7644TIP3   OH222872   7.126   6.787   0.402
 7644TIP3    H122873   7.182   6.830   0.467
 7644TIP3    H222874   7.085   6.715   0.450
 7645TIP3   OH222875   2.675   4.805   3.387
 7645TIP3    H122876   2.764   4.770   3.390
 7645TIP3    H222877   2.639   4.772   3.304
 7646TIP3   OH222878   0.917   7.157   0.592
 7646TIP3    H122879   0.834   7.110   0.599
 7646TIP3    H222880   0.965   7.134   0.671
 7647TIP3   OH222881   0.318   1.041   4.478
 7647TIP3    H122882   0.235   1.087   4.467
 7647TIP3    H222883   0.334   1.042   4.572
 7648TIP3   OH222884   3.270   1.055   6.269
 7648TIP3    H122885   3.289   1.026   6.180
 7648TIP3    H222886   3.176   1.076   6.268
 7649TIP3   OH222887   4.579   0.812   0.624
 7649TIP3    H122888   4.589   0.894   0.673
 7649TIP3    H222889   4.556   0.747   0.690
 7650TIP3   OH222890   7.990   6.545   1.173
 7650TIP3    H122891   8.064   6.494   1.141
 7650TIP3    H222892   8.009   6.558   1.266
 7651TIP3   OH222893   8.402   2.236   2.322
 7651TIP3    H122894   8.348   2.157   2.316
 7651TIP3    H222895   8.457   2.223   2.399
 7652TIP3   OH222896   5.957   2.751   5.215
 7652TIP3    H122897   6.003   2.830   5.187
 7652TIP3    H222898   5.908   2.724   5.137
 7653TIP3   OH222899   8.025   4.344   3.608
 7653TIP3    H122900   7.998   4.268   3.556
 7653TIP3    H222901   7.958   4.353   3.675
 7654TIP3   OH222902   3.287   1.455   4.830
 7654TIP3    H122903   3.227   1.394   4.873
 7654TIP3    H222904   3.279   1.435   4.737
 7655TIP3   OH222905   0.626   1.786   2.212
 7655TIP3    H122906   0.674   1.847   2.268
 7655TIP3    H222907   0.647   1.699   2.247
 7656TIP3   OH222908   5.667   2.280   2.520
 7656TIP3    H122909   5.644   2.350   2.581
 7656TIP3    H222910   5.687   2.205   2.576
 7657TIP3   OH222911   5.813   4.146   2.950
 7657TIP3    H122912   5.816   4.211   3.021
 7657TIP3    H222913   5.900   4.149   2.911
 7658TIP3   OH222914   7.929   6.755   4.674
 7658TIP3    H122915   7.920   6.757   4.769
 7658TIP3    H222916   7.933   6.662   4.652
 7659TIP3   OH222917   1.781   4.941   3.311
 7659TIP3    H122918   1.856   4.883   3.316
 7659TIP3    H222919   1.786   4.994   3.390
 7660TIP3   OH222920   2.737   7.244   0.399
 7660TIP3    H122921   2.716   7.337   0.402
 7660TIP3    H222922   2.757   7.227   0.307
 7661TIP3   OH222923   0.144   6.517   4.736
 7661TIP3    H122924   0.218   6.508   4.797
 7661TIP3    H222925   0.185   6.520   4.650
 7662TIP3   OH222926   3.285   4.752   3.826
 7662TIP3    H122927   3.296   4.839   3.867
 7662TIP3    H222928   3.375   4.726   3.803
 7663TIP3   OH222929   4.043   5.695   1.933
 7663TIP3    H122930   4.107   5.740   1.879
 7663TIP3    H222931   4.095   5.652   2.001
 7664TIP3   OH222932   0.378   2.417   2.729
 7664TIP3    H122933   0.471   2.398   2.741
 7664TIP3    H222934   0.338   2.397   2.814
 7665TIP3   OH222935   5.019   1.522   0.178
 7665TIP3    H122936   5.037   1.537   0.085
 7665TIP3    H222937   4.946   1.580   0.198
 7666TIP3   OH222938   3.178   2.597   5.763
 7666TIP3    H122939   3.272   2.602   5.747
 7666TIP3    H222940   3.169   2.606   5.858
 7667TIP3   OH222941   4.704   1.120   0.574
 7667TIP3    H122942   4.709   1.214   0.591
 7667TIP3    H222943   4.759   1.107   0.497
 7668TIP3   OH222944   2.567   6.563   2.906
 7668TIP3    H122945   2.505   6.528   2.842
 7668TIP3    H222946   2.561   6.658   2.895
 7669TIP3   OH222947   3.397   0.020   1.886
 7669TIP3    H122948   3.342   0.098   1.874
 7669TIP3    H222949   3.336  -0.048   1.915
 7670TIP3   OH222950   6.227   2.872  -0.017
 7670TIP3    H122951   6.265   2.868   0.071
 7670TIP3    H222952   6.297   2.905  -0.072
 7671TIP3   OH222953   3.908   0.169   3.521
 7671TIP3    H122954   3.893   0.088   3.570
 7671TIP3    H222955   3.992   0.201   3.554
 7672TIP3   OH222956   4.887   5.474   5.708
 7672TIP3    H122957   4.843   5.477   5.624
 7672TIP3    H222958   4.966   5.526   5.696
 7673TIP3   OH222959   4.276   5.742   3.637
 7673TIP3    H122960   4.210   5.767   3.572
 7673TIP3    H222961   4.300   5.653   3.614
 7674TIP3   OH222962   2.678   1.086   3.151
 7674TIP3    H122963   2.717   1.029   3.217
 7674TIP3    H222964   2.621   1.144   3.200
 7675TIP3   OH222965   1.545   3.662   5.848
 7675TIP3    H122966   1.539   3.707   5.763
 7675TIP3    H222967   1.457   3.667   5.884
 7676TIP3   OH222968   0.086   4.653   5.532
 7676TIP3    H122969   0.132   4.659   5.615
 7676TIP3    H222970   0.127   4.719   5.477
 7677TIP3   OH222971   3.636   1.296   1.523
 7677TIP3    H122972   3.674   1.212   1.499
 7677TIP3    H222973   3.607   1.335   1.441
 7678TIP3   OH222974   6.953   2.398   0.803
 7678TIP3    H122975   7.028   2.340   0.797
 7678TIP3    H222976   6.990   2.486   0.815
 7679TIP3   OH222977   4.096   1.664   6.700
 7679TIP3    H122978   4.164   1.721   6.734
 7679TIP3    H222979   4.031   1.723   6.661
 7680TIP3   OH222980   7.532   1.836   6.337
 7680TIP3    H122981   7.588   1.821   6.413
 7680TIP3    H222982   7.548   1.760   6.281
 7681TIP3   OH222983   2.788   2.837   5.889
 7681TIP3    H122984   2.836   2.920   5.884
 7681TIP3    H222985   2.853   2.770   5.868
 7682TIP3   OH222986   3.817   4.691   2.506
 7682TIP3    H122987   3.826   4.597   2.517
 7682TIP3    H222988   3.902   4.726   2.534
 7683TIP3   OH222989   6.455   5.142   1.697
 7683TIP3    H122990   6.510   5.064   1.692
 7683TIP3    H222991   6.380   5.115   1.749
 7684TIP3   OH222992   7.266   0.034   2.396
 7684TIP3    H122993   7.175   0.010   2.413
 7684TIP3    H222994   7.310   0.020   2.480
 7685TIP3   OH222995   5.995   0.835   6.221
 7685TIP3    H122996   6.037   0.885   6.152
 7685TIP3    H222997   6.055   0.841   6.295
 7686TIP3   OH222998   5.544   0.283   4.882
 7686TIP3    H122999   5.462   0.311   4.924
 7686TIP3    H223000   5.559   0.195   4.917
 7687TIP3   OH223001   6.710   1.835   3.501
 7687TIP3    H123002   6.710   1.779   3.423
 7687TIP3    H223003   6.687   1.776   3.572
 7688TIP3   OH223004   5.433   2.166   3.925
 7688TIP3    H123005   5.480   2.111   3.862
 7688TIP3    H223006   5.377   2.222   3.871
 7689TIP3   OH223007   6.966   7.694   2.064
 7689TIP3    H123008   6.957   7.679   1.970
 7689TIP3    H223009   6.916   7.623   2.105
 7690TIP3   OH223010   0.717   2.599   1.667
 7690TIP3    H123011   0.639   2.559   1.706
 7690TIP3    H223012   0.684   2.678   1.624
 7691TIP3   OH223013   6.461   2.840   6.371
 7691TIP3    H123014   6.395   2.907   6.390
 7691TIP3    H223015   6.476   2.848   6.277
 7692TIP3   OH223016   1.361   2.791   0.490
 7692TIP3    H123017   1.410   2.713   0.515
 7692TIP3    H223018   1.395   2.860   0.547
 7693TIP3   OH223019   6.633   4.576   2.886
 7693TIP3    H123020   6.717   4.535   2.867
 7693TIP3    H223021   6.655   4.654   2.938
 7694TIP3   OH223022   8.045   4.488   4.230
 7694TIP3    H123023   8.093   4.454   4.155
 7694TIP3    H223024   7.978   4.422   4.247
 7695TIP3   OH223025   3.886   7.390   1.516
 7695TIP3    H123026   3.893   7.360   1.425
 7695TIP3    H223027   3.814   7.453   1.516
 7696TIP3   OH223028   6.638   4.071   4.420
 7696TIP3    H123029   6.576   4.131   4.379
 7696TIP3    H223030   6.724   4.107   4.398
 7697TIP3   OH223031   2.931   3.064   0.136
 7697TIP3    H123032   2.895   3.018   0.212
 7697TIP3    H223033   2.907   3.156   0.151
 7698TIP3   OH223034   3.390   1.033  -0.012
 7698TIP3    H123035   3.365   0.953  -0.057
 7698TIP3    H223036   3.457   1.006   0.051
 7699TIP3   OH223037   4.347   1.316   6.849
 7699TIP3    H123038   4.403   1.246   6.816
 7699TIP3    H223039   4.276   1.322   6.785
 7700TIP3   OH223040   4.974   3.868   4.193
 7700TIP3    H123041   5.047   3.860   4.132
 7700TIP3    H223042   5.002   3.934   4.257
 7701TIP3   OH223043   3.821   5.343   4.985
 7701TIP3    H123044   3.775   5.341   5.069
 7701TIP3    H223045   3.799   5.429   4.948
 7702TIP3   OH223046   3.170   1.029   2.444
 7702TIP3    H123047   3.137   0.955   2.393
 7702TIP3    H223048   3.250   1.056   2.398
 7703TIP3   OH223049   7.190   3.580   1.735
 7703TIP3    H123050   7.107   3.537   1.713
 7703TIP3    H223051   7.164   3.665   1.769
 7704TIP3   OH223052   8.126   2.028   0.186
 7704TIP3    H123053   8.110   1.934   0.181
 7704TIP3    H223054   8.209   2.040   0.141
 7705TIP3   OH223055   5.022   6.867   3.619
 7705TIP3    H123056   4.943   6.886   3.568
 7705TIP3    H223057   5.019   6.772   3.632
 7706TIP3   OH223058   5.250   6.955   3.519
 7706TIP3    H123059   5.244   7.050   3.531
 7706TIP3    H223060   5.163   6.922   3.542
 7707TIP3   OH223061   3.645   5.597   0.709
 7707TIP3    H123062   3.634   5.515   0.755
 7707TIP3    H223063   3.598   5.662   0.761
 7708TIP3   OH223064   7.272   0.512   1.927
 7708TIP3    H123065   7.337   0.443   1.931
 7708TIP3    H223066   7.231   0.511   2.013
 7709TIP3   OH223067   6.018   3.294   4.977
 7709TIP3    H123068   6.113   3.286   4.965
 7709TIP3    H223069   5.991   3.209   5.010
 7710TIP3   OH223070   5.078   0.181   4.537
 7710TIP3    H123071   5.056   0.235   4.613
 7710TIP3    H223072   5.127   0.107   4.574
 7711TIP3   OH223073   8.072   5.074   4.956
 7711TIP3    H123074   7.986   5.032   4.953
 7711TIP3    H223075   8.056   5.163   4.924
 7712TIP3   OH223076   1.770   5.236   0.478
 7712TIP3    H123077   1.775   5.141   0.470
 7712TIP3    H223078   1.704   5.262   0.414
 7713TIP3   OH223079   6.773   0.340   2.342
 7713TIP3    H123080   6.826   0.384   2.408
 7713TIP3    H223081   6.749   0.257   2.384
 7714TIP3   OH223082   7.011   6.019   1.516
 7714TIP3    H123083   6.933   6.055   1.473
 7714TIP3    H223084   6.976   5.955   1.578
 7715TIP3   OH223085   3.093   7.281   3.575
 7715TIP3    H123086   3.180   7.271   3.537
 7715TIP3    H223087   3.095   7.228   3.654
 7716TIP3   OH223088   1.442   5.341   1.248
 7716TIP3    H123089   1.441   5.384   1.162
 7716TIP3    H223090   1.352   5.349   1.279
 7717TIP3   OH223091   6.679   6.034   5.682
 7717TIP3    H123092   6.737   6.089   5.735
 7717TIP3    H223093   6.669   5.954   5.734
 7718TIP3   OH223094   0.735   7.416   6.746
 7718TIP3    H123095   0.721   7.326   6.774
 7718TIP3    H223096   0.767   7.461   6.825
 7719TIP3   OH223097   8.368   2.524   6.865
 7719TIP3    H123098   8.291   2.575   6.891
 7719TIP3    H223099   8.332   2.445   6.825
 7720TIP3   OH223100   2.375   1.758   1.838
 7720TIP3    H123101   2.293   1.796   1.809
 7720TIP3    H223102   2.366   1.664   1.820
 7721TIP3   OH223103   4.501   5.320   4.198
 7721TIP3    H123104   4.497   5.299   4.292
 7721TIP3    H223105   4.410   5.332   4.172
 7722TIP3   OH223106   6.213   4.141   3.639
 7722TIP3    H123107   6.142   4.181   3.688
 7722TIP3    H223108   6.264   4.214   3.605
 7723TIP3   OH223109   4.568   5.517   4.685
 7723TIP3    H123110   4.476   5.540   4.681
 7723TIP3    H223111   4.602   5.562   4.762
 7724TIP3   OH223112   5.149   7.653   3.276
 7724TIP3    H123113   5.067   7.696   3.253
 7724TIP3    H223114   5.132   7.560   3.265
 7725TIP3   OH223115   3.463   0.732   2.154
 7725TIP3    H123116   3.495   0.647   2.124
 7725TIP3    H223117   3.534   0.793   2.134
 7726TIP3   OH223118   0.368   4.536   6.739
 7726TIP3    H123119   0.280   4.576   6.741
 7726TIP3    H223120   0.354   4.450   6.701
 7727TIP3   OH223121   6.057   1.328   2.566
 7727TIP3    H123122   6.024   1.274   2.638
 7727TIP3    H223123   5.988   1.324   2.500
 7728TIP3   OH223124   6.770   5.568   5.269
 7728TIP3    H123125   6.775   5.475   5.246
 7728TIP3    H223126   6.691   5.600   5.225
 7729TIP3   OH223127   5.576   5.253   0.116
 7729TIP3    H123128   5.547   5.335   0.077
 7729TIP3    H223129   5.650   5.277   0.171
 7730TIP3   OH223130   6.284   2.325   5.936
 7730TIP3    H123131   6.285   2.356   6.027
 7730TIP3    H223132   6.269   2.403   5.884
 7731TIP3   OH223133   7.369  -0.045   1.102
 7731TIP3    H123134   7.279  -0.031   1.073
 7731TIP3    H223135   7.395   0.039   1.142
 7732TIP3   OH223136   2.787   5.378   1.100
 7732TIP3    H123137   2.746   5.311   1.045
 7732TIP3    H223138   2.776   5.459   1.051
 7733TIP3   OH223139   4.687   4.398   3.715
 7733TIP3    H123140   4.692   4.379   3.622
 7733TIP3    H223141   4.777   4.385   3.747
 7734TIP3   OH223142   5.966   3.795   2.166
 7734TIP3    H123143   6.029   3.735   2.126
 7734TIP3    H223144   5.963   3.870   2.107
 7735TIP3   OH223145   8.026   0.244  -0.015
 7735TIP3    H123146   8.010   0.288   0.068
 7735TIP3    H223147   8.120   0.228  -0.016
 7736TIP3   OH223148   2.199   3.444   2.517
 7736TIP3    H123149   2.183   3.389   2.594
 7736TIP3    H223150   2.276   3.496   2.541
 7737TIP3   OH223151   0.527   2.882   3.582
 7737TIP3    H123152   0.461   2.874   3.651
 7737TIP3    H223153   0.591   2.814   3.602
 7738TIP3   OH223154   8.188   2.476   0.082
 7738TIP3    H123155   8.186   2.492   0.177
 7738TIP3    H223156   8.271   2.514   0.053
 7739TIP3   OH223157   3.120   2.564   6.435
 7739TIP3    H123158   3.068   2.541   6.512
 7739TIP3    H223159   3.145   2.480   6.397
 7740TIP3   OH223160   4.606   2.560   1.887
 7740TIP3    H123161   4.682   2.561   1.828
 7740TIP3    H223162   4.535   2.522   1.835
 7741TIP3   OH223163   4.664   5.484   5.853
 7741TIP3    H123164   4.750   5.496   5.813
 7741TIP3    H223165   4.619   5.567   5.839
 7742TIP3   OH223166   2.292   5.743   0.935
 7742TIP3    H123167   2.256   5.657   0.957
 7742TIP3    H223168   2.385   5.727   0.918
 7743TIP3   OH223169   0.525   2.915   5.060
 7743TIP3    H123170   0.556   2.965   4.985
 7743TIP3    H223171   0.571   2.953   5.135
 7744TIP3   OH223172   1.501   7.150   3.469
 7744TIP3    H123173   1.549   7.068   3.483
 7744TIP3    H223174   1.513   7.169   3.376
 7745TIP3   OH223175   2.017   2.839   4.780
 7745TIP3    H123176   1.969   2.778   4.836
 7745TIP3    H223177   2.004   2.806   4.691
 7746TIP3   OH223178   1.936   0.011   5.706
 7746TIP3    H123179   1.912   0.033   5.616
 7746TIP3    H223180   2.025   0.046   5.716
 7747TIP3   OH223181   7.773   4.821   2.749
 7747TIP3    H123182   7.834   4.894   2.735
 7747TIP3    H223183   7.816   4.746   2.707
 7748TIP3   OH223184   2.743   1.720   3.997
 7748TIP3    H123185   2.678   1.780   3.961
 7748TIP3    H223186   2.730   1.639   3.948
 7749TIP3   OH223187   2.535   4.563   4.139
 7749TIP3    H123188   2.504   4.596   4.054
 7749TIP3    H223189   2.456   4.528   4.180
 7750TIP3   OH223190   4.462   2.677   3.534
 7750TIP3    H123191   4.371   2.689   3.505
 7750TIP3    H223192   4.454   2.629   3.616
 7751TIP3   OH223193   1.657   2.149   5.009
 7751TIP3    H123194   1.674   2.087   5.080
 7751TIP3    H223195   1.562   2.159   5.008
 7752TIP3   OH223196   7.564   4.442   3.015
 7752TIP3    H123197   7.624   4.409   2.949
 7752TIP3    H223198   7.497   4.374   3.022
 7753TIP3   OH223199   0.147   5.018   0.196
 7753TIP3    H123200   0.229   5.068   0.187
 7753TIP3    H223201   0.108   5.051   0.276
 7754TIP3   OH223202   8.357   3.670   6.006
 7754TIP3    H123203   8.417   3.626   6.065
 7754TIP3    H223204   8.342   3.756   6.047
 7755TIP3   OH223205   4.478   2.515   3.772
 7755TIP3    H123206   4.480   2.507   3.867
 7755TIP3    H223207   4.470   2.425   3.741
 7756TIP3   OH223208   6.457   3.871   2.290
 7756TIP3    H123209   6.368   3.874   2.256
 7756TIP3    H223210   6.469   3.780   2.318
 7757TIP3   OH223211   2.965   2.851   2.444
 7757TIP3    H123212   2.906   2.830   2.372
 7757TIP3    H223213   3.005   2.767   2.467
 7758TIP3   OH223214   7.475   0.322   4.643
 7758TIP3    H123215   7.444   0.374   4.716
 7758TIP3    H223216   7.512   0.243   4.684
 7759TIP3   OH223217   1.368   7.297   0.755
 7759TIP3    H123218   1.455   7.329   0.730
 7759TIP3    H223219   1.314   7.312   0.678
 7760TIP3   OH223220   4.583   5.744   5.888
 7760TIP3    H123221   4.644   5.817   5.882
 7760TIP3    H223222   4.500   5.779   5.856
 7761TIP3   OH223223   6.207   3.407   0.355
 7761TIP3    H123224   6.258   3.432   0.277
 7761TIP3    H223225   6.241   3.463   0.424
 7762TIP3   OH223226   7.823   1.299   0.111
 7762TIP3    H123227   7.732   1.324   0.099
 7762TIP3    H223228   7.858   1.365   0.171
 7763TIP3   OH223229   7.119   6.399   0.590
 7763TIP3    H123230   7.038   6.442   0.617
 7763TIP3    H223231   7.105   6.378   0.497
 7764TIP3   OH223232   2.253   7.216   3.316
 7764TIP3    H123233   2.185   7.235   3.381
 7764TIP3    H223234   2.271   7.122   3.327
 7765TIP3   OH223235   3.353   4.899   0.491
 7765TIP3    H123236   3.285   4.920   0.427
 7765TIP3    H223237   3.357   4.804   0.491
 7766TIP3   OH223238   0.602   2.916   0.783
 7766TIP3    H123239   0.536   2.915   0.712
 7766TIP3    H223240   0.675   2.965   0.746
 7767TIP3   OH223241   1.757   7.120   1.257
 7767TIP3    H123242   1.690   7.069   1.302
 7767TIP3    H223243   1.732   7.116   1.165
 7768TIP3   OH223244   6.343   1.531   0.727
 7768TIP3    H123245   6.269   1.491   0.774
 7768TIP3    H223246   6.396   1.457   0.699
 7769TIP3   OH223247   6.197   0.114   6.543
 7769TIP3    H123248   6.157   0.028   6.559
 7769TIP3    H223249   6.216   0.149   6.630
 7770TIP3   OH223250   0.404   7.408   0.462
 7770TIP3    H123251   0.458   7.415   0.384
 7770TIP3    H223252   0.318   7.379   0.430
 7771TIP3   OH223253   1.745   3.831   4.380
 7771TIP3    H123254   1.723   3.745   4.416
 7771TIP3    H223255   1.663   3.865   4.345
 7772TIP3   OH223256   1.403   3.595   1.699
 7772TIP3    H123257   1.378   3.687   1.686
 7772TIP3    H223258   1.435   3.593   1.789
 7773TIP3   OH223259   5.445   6.735   1.659
 7773TIP3    H123260   5.462   6.771   1.746
 7773TIP3    H223261   5.494   6.792   1.600
 7774TIP3   OH223262   5.742   0.426   4.768
 7774TIP3    H123263   5.672   0.370   4.802
 7774TIP3    H223264   5.820   0.397   4.814
 7775TIP3   OH223265   0.323   1.101   6.438
 7775TIP3    H123266   0.407   1.138   6.412
 7775TIP3    H223267   0.313   1.127   6.530
 7776TIP3   OH223268   5.454   1.307   3.974
 7776TIP3    H123269   5.456   1.217   3.943
 7776TIP3    H223270   5.470   1.301   4.068
 7777TIP3   OH223271   4.958   5.882   2.219
 7777TIP3    H123272   4.871   5.869   2.180
 7777TIP3    H223273   4.962   5.975   2.238
 7778TIP3   OH223274   0.705   4.123   0.228
 7778TIP3    H123275   0.743   4.210   0.219
 7778TIP3    H223276   0.755   4.069   0.166
 7779TIP3   OH223277   2.484   3.317   3.346
 7779TIP3    H123278   2.479   3.403   3.387
 7779TIP3    H223279   2.576   3.307   3.323
 7780TIP3   OH223280   7.143   1.302   1.262
 7780TIP3    H123281   7.211   1.235   1.273
 7780TIP3    H223282   7.062   1.257   1.284
 7781TIP3   OH223283   1.823   0.276   1.556
 7781TIP3    H123284   1.859   0.196   1.519
 7781TIP3    H223285   1.732   0.277   1.529
 7782TIP3   OH223286   1.498   6.309   3.402
 7782TIP3    H123287   1.521   6.231   3.350
 7782TIP3    H223288   1.483   6.377   3.336
 7783TIP3   OH223289   6.741   5.127   1.564
 7783TIP3    H123290   6.830   5.144   1.535
 7783TIP3    H223291   6.750   5.073   1.643
 7784TIP3   OH223292   2.391   5.006   0.838
 7784TIP3    H123293   2.473   4.976   0.877
 7784TIP3    H223294   2.415   5.035   0.750
 7785TIP3   OH223295   8.097   2.652   2.398
 7785TIP3    H123296   8.071   2.585   2.334
 7785TIP3    H223297   8.171   2.614   2.445
 7786TIP3   OH223298   5.184   0.730   2.117
 7786TIP3    H123299   5.187   0.665   2.047
 7786TIP3    H223300   5.254   0.791   2.097
 7787TIP3   OH223301   1.884   5.594   3.385
 7787TIP3    H123302   1.905   5.561   3.472
 7787TIP3    H223303   1.870   5.516   3.332
 7788TIP3   OH223304   3.931   3.882   1.492
 7788TIP3    H123305   3.939   3.789   1.512
 7788TIP3    H223306   3.877   3.917   1.562
 7789TIP3   OH223307   2.599   4.059   5.661
 7789TIP3    H123308   2.633   4.102   5.739
 7789TIP3    H223309   2.656   3.983   5.648
 7790TIP3   OH223310   7.748   3.032   0.767
 7790TIP3    H123311   7.724   3.090   0.695
 7790TIP3    H223312   7.749   3.089   0.844
 7791TIP3   OH223313   0.384   5.670   5.848
 7791TIP3    H123314   0.461   5.681   5.793
 7791TIP3    H223315   0.310   5.689   5.790
 7792TIP3   OH223316   7.889   7.392   4.688
 7792TIP3    H123317   7.842   7.395   4.771
 7792TIP3    H223318   7.970   7.345   4.707
 7793TIP3   OH223319   3.764   0.868   3.549
 7793TIP3    H123320   3.857   0.871   3.529
 7793TIP3    H223321   3.756   0.803   3.619
 7794TIP3   OH223322   2.922   4.925   4.881
 7794TIP3    H123323   2.917   4.863   4.807
 7794TIP3    H223324   3.004   4.903   4.924
 7795TIP3   OH223325   2.782   5.140   1.588
 7795TIP3    H123326   2.701   5.174   1.625
 7795TIP3    H223327   2.795   5.189   1.507
 7796TIP3   OH223328   7.051   4.190   6.176
 7796TIP3    H123329   7.069   4.240   6.255
 7796TIP3    H223330   7.137   4.163   6.144
 7797TIP3   OH223331   7.626   2.787   6.086
 7797TIP3    H123332   7.538   2.823   6.074
 7797TIP3    H223333   7.611   2.695   6.111
 7798TIP3   OH223334   4.138   1.837   0.465
 7798TIP3    H123335   4.090   1.809   0.387
 7798TIP3    H223336   4.133   1.763   0.525
 7799TIP3   OH223337   4.969   5.611   0.558
 7799TIP3    H123338   5.063   5.594   0.563
 7799TIP3    H223339   4.948   5.655   0.640
 7800TIP3   OH223340   1.846   3.809   1.334
 7800TIP3    H123341   1.789   3.884   1.318
 7800TIP3    H223342   1.934   3.841   1.313
 7801TIP3   OH223343   6.080   4.314   5.766
 7801TIP3    H123344   6.120   4.365   5.696
 7801TIP3    H223345   6.032   4.245   5.720
 7802TIP3   OH223346   1.821   4.071   4.522
 7802TIP3    H123347   1.734   4.052   4.556
 7802TIP3    H223348   1.846   4.153   4.563
 7803TIP3   OH223349   6.891   1.716   2.111
 7803TIP3    H123350   6.943   1.696   2.033
 7803TIP3    H223351   6.922   1.653   2.176
 7804TIP3   OH223352   0.356   4.549   6.122
 7804TIP3    H123353   0.338   4.640   6.145
 7804TIP3    H223354   0.270   4.506   6.126
 7805TIP3   OH223355   5.869   2.246   4.356
 7805TIP3    H123356   5.776   2.244   4.378
 7805TIP3    H223357   5.881   2.330   4.311
 7806TIP3   OH223358   5.119   3.040   0.457
 7806TIP3    H123359   5.054   3.002   0.399
 7806TIP3    H223360   5.135   2.972   0.523
 7807TIP3   OH223361   7.142   4.694   5.036
 7807TIP3    H123362   7.158   4.772   4.983
 7807TIP3    H223363   7.205   4.700   5.107
 7808TIP3   OH223364   3.251   4.886   2.250
 7808TIP3    H123365   3.162   4.865   2.277
 7808TIP3    H223366   3.244   4.972   2.208
 7809TIP3   OH223367   7.938   5.996   2.387
 7809TIP3    H123368   7.865   6.051   2.360
 7809TIP3    H223369   7.954   5.938   2.312
 7810TIP3   OH223370   4.268   2.403   4.530
 7810TIP3    H123371   4.336   2.335   4.530
 7810TIP3    H223372   4.316   2.484   4.512
 7811TIP3   OH223373   1.005   6.996   1.666
 7811TIP3    H123374   0.946   6.948   1.723
 7811TIP3    H223375   1.065   6.929   1.631
 7812TIP3   OH223376   1.100   2.837   3.764
 7812TIP3    H123377   1.091   2.895   3.840
 7812TIP3    H223378   1.037   2.871   3.701
 7813TIP3   OH223379   4.220   5.885   5.436
 7813TIP3    H123380   4.300   5.863   5.388
 7813TIP3    H223381   4.199   5.805   5.485
 7814TIP3   OH223382   5.320   0.975   4.135
 7814TIP3    H123383   5.273   1.057   4.147
 7814TIP3    H223384   5.301   0.925   4.215
 7815TIP3   OH223385   8.084   6.711   3.567
 7815TIP3    H123386   7.993   6.718   3.540
 7815TIP3    H223387   8.080   6.677   3.656
 7816TIP3   OH223388   8.297   7.816   3.073
 7816TIP3    H123389   8.290   7.743   3.011
 7816TIP3    H223390   8.388   7.844   3.068
 7817TIP3   OH223391   3.269   1.999   6.159
 7817TIP3    H123392   3.293   2.087   6.189
 7817TIP3    H223393   3.216   1.963   6.230
 7818TIP3   OH223394   7.711   0.404   6.650
 7818TIP3    H123395   7.632   0.399   6.703
 7818TIP3    H223396   7.778   0.440   6.709
 7819TIP3   OH223397   6.731   7.754   0.657
 7819TIP3    H123398   6.735   7.684   0.592
 7819TIP3    H223399   6.774   7.829   0.615
 7820TIP3   OH223400   6.579   4.854   3.801
 7820TIP3    H123401   6.539   4.911   3.736
 7820TIP3    H223402   6.555   4.893   3.885
 7821TIP3   OH223403   5.137   0.483   1.002
 7821TIP3    H123404   5.177   0.528   0.928
 7821TIP3    H223405   5.148   0.544   1.076
 7822TIP3   OH223406   6.014   3.124   1.881
 7822TIP3    H123407   5.980   3.203   1.924
 7822TIP3    H223408   6.103   3.116   1.914
 7823TIP3   OH223409   1.393   2.780   5.583
 7823TIP3    H123410   1.335   2.838   5.631
 7823TIP3    H223411   1.384   2.695   5.626
 7824TIP3   OH223412   0.658   1.112   2.455
 7824TIP3    H123413   0.567   1.121   2.484
 7824TIP3    H223414   0.675   1.018   2.458
 7825TIP3   OH223415   3.954   2.397   1.051
 7825TIP3    H123416   3.912   2.440   0.976
 7825TIP3    H223417   3.889   2.403   1.121
 7826TIP3   OH223418   0.298   4.970   6.411
 7826TIP3    H123419   0.360   4.928   6.470
 7826TIP3    H223420   0.226   4.998   6.468
 7827TIP3   OH223421   3.338   6.255   0.619
 7827TIP3    H123422   3.373   6.275   0.705
 7827TIP3    H223423   3.261   6.201   0.637
 7828TIP3   OH223424   2.471   6.277   3.055
 7828TIP3    H123425   2.563   6.253   3.046
 7828TIP3    H223426   2.470   6.373   3.048
 7829TIP3   OH223427   5.309   2.962   1.121
 7829TIP3    H123428   5.350   2.987   1.039
 7829TIP3    H223429   5.227   3.011   1.123
 7830TIP3   OH223430   2.855   6.365   0.228
 7830TIP3    H123431   2.920   6.411   0.282
 7830TIP3    H223432   2.847   6.418   0.149
 7831TIP3   OH223433   7.686   1.207   1.558
 7831TIP3    H123434   7.649   1.118   1.555
 7831TIP3    H223435   7.689   1.228   1.651
 7832TIP3   OH223436   4.024   6.751   0.690
 7832TIP3    H123437   3.998   6.660   0.673
 7832TIP3    H223438   4.116   6.755   0.664
 7833TIP3   OH223439   4.883   0.139   2.086
 7833TIP3    H123440   4.851   0.049   2.079
 7833TIP3    H223441   4.811   0.187   2.125
 7834TIP3   OH223442   1.820   1.805   5.875
 7834TIP3    H123443   1.800   1.897   5.856
 7834TIP3    H223444   1.859   1.772   5.794
 7835TIP3   OH223445   2.771   0.669   1.909
 7835TIP3    H123446   2.821   0.741   1.872
 7835TIP3    H223447   2.792   0.671   2.003
 7836TIP3   OH223448   2.783   6.858   1.819
 7836TIP3    H123449   2.843   6.905   1.761
 7836TIP3    H223450   2.837   6.791   1.861
 7837TIP3   OH223451   1.837   7.068   3.989
 7837TIP3    H123452   1.749   7.056   4.026
 7837TIP3    H223453   1.823   7.128   3.915
 7838TIP3   OH223454   6.155   5.793   0.569
 7838TIP3    H123455   6.063   5.800   0.594
 7838TIP3    H223456   6.161   5.839   0.486
 7839TIP3   OH223457   5.947   0.289   4.914
 7839TIP3    H123458   5.955   0.382   4.937
 7839TIP3    H223459   5.991   0.243   4.985
 7840TIP3   OH223460   1.560   7.004   6.051
 7840TIP3    H123461   1.635   6.991   5.993
 7840TIP3    H223462   1.598   7.037   6.133
 7841TIP3   OH223463   8.392   1.375   1.483
 7841TIP3    H123464   8.305   1.399   1.452
 7841TIP3    H223465   8.394   1.280   1.478
 7842TIP3   OH223466   1.356   5.721   2.384
 7842TIP3    H123467   1.385   5.631   2.397
 7842TIP3    H223468   1.428   5.775   2.418
 7843TIP3   OH223469   2.554   3.550   5.496
 7843TIP3    H123470   2.560   3.633   5.448
 7843TIP3    H223471   2.515   3.574   5.580
 7844TIP3   OH223472   2.046   5.410   4.154
 7844TIP3    H123473   2.080   5.492   4.190
 7844TIP3    H223474   1.957   5.403   4.190
 7845TIP3   OH223475   8.116   1.963   1.762
 7845TIP3    H123476   8.023   1.939   1.760
 7845TIP3    H223477   8.123   2.026   1.833
 7846TIP3   OH223478   4.241   4.607   2.795
 7846TIP3    H123479   4.216   4.662   2.720
 7846TIP3    H223480   4.214   4.519   2.770
 7847TIP3   OH223481   0.438   4.843   4.212
 7847TIP3    H123482   0.400   4.915   4.161
 7847TIP3    H223483   0.365   4.784   4.230
 7848TIP3   OH223484   5.826   1.808   4.826
 7848TIP3    H123485   5.770   1.774   4.756
 7848TIP3    H223486   5.765   1.848   4.888
 7849TIP3   OH223487   8.293   1.988   2.299
 7849TIP3    H123488   8.275   1.935   2.377
 7849TIP3    H223489   8.350   1.933   2.246
 7850TIP3   OH223490   4.461   5.260   0.167
 7850TIP3    H123491   4.376   5.305   0.159
 7850TIP3    H223492   4.512   5.316   0.225
 7851TIP3   OH223493   4.228   6.755   6.206
 7851TIP3    H123494   4.290   6.687   6.230
 7851TIP3    H223495   4.266   6.836   6.240
 7852TIP3   OH223496   0.995   0.409   4.465
 7852TIP3    H123497   0.961   0.355   4.393
 7852TIP3    H223498   0.946   0.382   4.542
 7853TIP3   OH223499   5.112   6.691   4.939
 7853TIP3    H123500   5.195   6.644   4.939
 7853TIP3    H223501   5.048   6.627   4.973
 7854TIP3   OH223502   2.376   6.733   1.070
 7854TIP3    H123503   2.336   6.819   1.055
 7854TIP3    H223504   2.436   6.721   0.997
 7855TIP3   OH223505   5.258   5.849   2.589
 7855TIP3    H123506   5.330   5.853   2.651
 7855TIP3    H223507   5.195   5.913   2.620
 7856TIP3   OH223508   0.907   6.114   5.434
 7856TIP3    H123509   0.941   6.189   5.482
 7856TIP3    H223510   0.985   6.067   5.406
 7857TIP3   OH223511   1.019   4.381   2.745
 7857TIP3    H123512   1.049   4.385   2.836
 7857TIP3    H223513   0.924   4.373   2.752
 7858TIP3   OH223514   3.943   4.802   5.476
 7858TIP3    H123515   3.995   4.835   5.403
 7858TIP3    H223516   3.899   4.880   5.510
 7859TIP3   OH223517   0.659   7.634   2.116
 7859TIP3    H123518   0.599   7.653   2.044
 7859TIP3    H223519   0.601   7.617   2.191
 7860TIP3   OH223520   7.640   3.443   0.118
 7860TIP3    H123521   7.612   3.354   0.094
 7860TIP3    H223522   7.736   3.441   0.109
 7861TIP3   OH223523   1.757   6.262   3.223
 7861TIP3    H123524   1.844   6.251   3.184
 7861TIP3    H223525   1.696   6.246   3.151
 7862TIP3   OH223526   6.323   1.193   5.314
 7862TIP3    H123527   6.372   1.240   5.382
 7862TIP3    H223528   6.269   1.261   5.274
 7863TIP3   OH223529   3.862   3.529   3.547
 7863TIP3    H123530   3.876   3.622   3.564
 7863TIP3    H223531   3.774   3.511   3.579
 7864TIP3   OH223532   3.864   0.348   6.709
 7864TIP3    H123533   3.955   0.342   6.736
 7864TIP3    H223534   3.819   0.283   6.763
 7865TIP3   OH223535   3.277   5.388   3.447
 7865TIP3    H123536   3.289   5.442   3.526
 7865TIP3    H223537   3.325   5.435   3.379
 7866TIP3   OH223538   2.335   0.344   2.210
 7866TIP3    H123539   2.246   0.315   2.193
 7866TIP3    H223540   2.349   0.325   2.303
 7867TIP3   OH223541   6.569   4.853   5.852
 7867TIP3    H123542   6.660   4.856   5.821
 7867TIP3    H223543   6.559   4.765   5.886
 7868TIP3   OH223544   0.906   1.800   6.381
 7868TIP3    H123545   0.844   1.794   6.308
 7868TIP3    H223546   0.850   1.812   6.458
 7869TIP3   OH223547   1.290   3.689   4.087
 7869TIP3    H123548   1.272   3.655   3.999
 7869TIP3    H223549   1.231   3.764   4.096
 7870TIP3   OH223550   4.193   7.547   1.727
 7870TIP3    H123551   4.105   7.546   1.766
 7870TIP3    H223552   4.251   7.524   1.800
 7871TIP3   OH223553   5.979   6.859   5.798
 7871TIP3    H123554   5.926   6.807   5.857
 7871TIP3    H223555   6.066   6.858   5.836
 7872TIP3   OH223556   5.424   5.187   0.777
 7872TIP3    H123557   5.344   5.192   0.724
 7872TIP3    H223558   5.457   5.277   0.780
 7873TIP3   OH223559   6.004   5.801   2.646
 7873TIP3    H123560   6.027   5.834   2.733
 7873TIP3    H223561   5.966   5.877   2.601
 7874TIP3   OH223562   4.505   0.531   3.110
 7874TIP3    H123563   4.539   0.512   3.197
 7874TIP3    H223564   4.576   0.580   3.067
 7875TIP3   OH223565   3.589   5.023   0.448
 7875TIP3    H123566   3.495   5.023   0.465
 7875TIP3    H223567   3.609   5.113   0.422
 7876TIP3   OH223568   3.775   3.465   5.573
 7876TIP3    H123569   3.776   3.544   5.628
 7876TIP3    H223570   3.683   3.439   5.570
 7877TIP3   OH223571   5.488   6.442   3.664
 7877TIP3    H123572   5.533   6.465   3.582
 7877TIP3    H223573   5.518   6.353   3.683
 7878TIP3   OH223574   1.081   6.945   3.893
 7878TIP3    H123575   1.028   7.017   3.857
 7878TIP3    H223576   1.143   6.925   3.823
 7879TIP3   OH223577   4.743   6.225   6.272
 7879TIP3    H123578   4.755   6.319   6.283
 7879TIP3    H223579   4.658   6.206   6.311
 7880TIP3   OH223580   6.021   5.757   4.445
 7880TIP3    H123581   5.954   5.689   4.440
 7880TIP3    H223582   5.994   5.813   4.517
 7881TIP3   OH223583   1.107   4.374   0.655
 7881TIP3    H123584   1.197   4.341   0.654
 7881TIP3    H223585   1.114   4.463   0.622
 7882TIP3   OH223586   6.891   0.498   5.479
 7882TIP3    H123587   6.950   0.540   5.416
 7882TIP3    H223588   6.852   0.426   5.430
 7883TIP3   OH223589   2.702   5.895   1.855
 7883TIP3    H123590   2.639   5.852   1.913
 7883TIP3    H223591   2.766   5.826   1.834
 7884TIP3   OH223592   4.448   4.303   5.120
 7884TIP3    H123593   4.540   4.295   5.146
 7884TIP3    H223594   4.428   4.220   5.076
 7885TIP3   OH223595   5.992   7.476   2.748
 7885TIP3    H123596   6.004   7.485   2.842
 7885TIP3    H223597   6.022   7.560   2.712
 7886TIP3   OH223598   6.258   7.415   6.348
 7886TIP3    H123599   6.339   7.454   6.313
 7886TIP3    H223600   6.189   7.476   6.324
 7887TIP3   OH223601   7.148   4.159   2.544
 7887TIP3    H123602   7.140   4.076   2.590
 7887TIP3    H223603   7.090   4.218   2.592
 7888TIP3   OH223604   4.655   6.982   0.867
 7888TIP3    H123605   4.643   7.077   0.863
 7888TIP3    H223606   4.671   6.963   0.960
 7889TIP3   OH223607   2.025   0.477   3.448
 7889TIP3    H123608   2.095   0.412   3.450
 7889TIP3    H223609   1.945   0.428   3.468
 7890TIP3   OH223610   7.594   5.278   4.867
 7890TIP3    H123611   7.585   5.196   4.818
 7890TIP3    H223612   7.511   5.323   4.855
 7891TIP3   OH223613   1.166   1.392   3.004
 7891TIP3    H123614   1.186   1.323   3.067
 7891TIP3    H223615   1.072   1.382   2.986
 7892TIP3   OH223616   3.375   6.343   4.940
 7892TIP3    H123617   3.441   6.279   4.913
 7892TIP3    H223618   3.316   6.294   4.997
 7893TIP3   OH223619   0.185   0.892   5.410
 7893TIP3    H123620   0.272   0.868   5.444
 7893TIP3    H223621   0.201   0.915   5.319
 7894TIP3   OH223622   6.052   7.252   1.628
 7894TIP3    H123623   6.012   7.221   1.547
 7894TIP3    H223624   5.977   7.277   1.683
 7895TIP3   OH223625   8.294   6.708   2.948
 7895TIP3    H123626   8.239   6.633   2.925
 7895TIP3    H223627   8.378   6.669   2.971
 7896TIP3   OH223628   7.014   4.757   5.330
 7896TIP3    H123629   6.980   4.839   5.365
 7896TIP3    H223630   7.055   4.714   5.405
 7897TIP3   OH223631   0.746   6.552   4.619
 7897TIP3    H123632   0.798   6.581   4.694
 7897TIP3    H223633   0.662   6.524   4.658
 7898TIP3   OH223634   7.735   4.925   0.794
 7898TIP3    H123635   7.758   4.961   0.709
 7898TIP3    H223636   7.757   4.995   0.856
 7899TIP3   OH223637   4.715   3.256   4.918
 7899TIP3    H123638   4.794   3.217   4.956
 7899TIP3    H223639   4.728   3.350   4.927
 7900TIP3   OH223640   0.260   6.108   0.835
 7900TIP3    H123641   0.240   6.180   0.896
 7900TIP3    H223642   0.300   6.152   0.760
 7901TIP3   OH223643   3.664   7.143   2.557
 7901TIP3    H123644   3.618   7.214   2.514
 7901TIP3    H223645   3.738   7.124   2.499
 7902TIP3   OH223646   4.289   4.561   6.653
 7902TIP3    H123647   4.327   4.607   6.728
 7902TIP3    H223648   4.299   4.468   6.674
 7903TIP3   OH223649   5.839   7.435   5.394
 7903TIP3    H123650   5.821   7.462   5.304
 7903TIP3    H223651   5.931   7.455   5.407
 7904TIP3   OH223652   6.089   5.407   6.037
 7904TIP3    H123653   6.025   5.471   6.068
 7904TIP3    H223654   6.170   5.458   6.028
 7905TIP3   OH223655   2.109   1.383   2.197
 7905TIP3    H123656   2.145   1.299   2.227
 7905TIP3    H223657   2.143   1.447   2.259
 7906TIP3   OH223658   1.692   2.360   3.475
 7906TIP3    H123659   1.751   2.298   3.518
 7906TIP3    H223660   1.604   2.329   3.497
 7907TIP3   OH223661   2.255   5.747   3.426
 7907TIP3    H123662   2.203   5.676   3.390
 7907TIP3    H223663   2.335   5.706   3.458
 7908TIP3   OH223664   4.547   0.401   1.063
 7908TIP3    H123665   4.518   0.490   1.044
 7908TIP3    H223666   4.638   0.410   1.091
 7909TIP3   OH223667   5.798   0.249   2.024
 7909TIP3    H123668   5.741   0.286   1.956
 7909TIP3    H223669   5.793   0.154   2.010
 7910TIP3   OH223670   5.597   1.763   5.675
 7910TIP3    H123671   5.508   1.727   5.664
 7910TIP3    H223672   5.587   1.831   5.742
 7911TIP3   OH223673   2.827   7.081   2.085
 7911TIP3    H123674   2.901   7.025   2.111
 7911TIP3    H223675   2.809   7.056   1.995
 7912TIP3   OH223676   5.137   6.235   5.394
 7912TIP3    H123677   5.232   6.228   5.385
 7912TIP3    H223678   5.116   6.324   5.363
 7913TIP3   OH223679   5.168   5.585   2.628
 7913TIP3    H123680   5.193   5.674   2.650
 7913TIP3    H223681   5.239   5.553   2.571
 7914TIP3   OH223682   6.188   5.943   1.377
 7914TIP3    H123683   6.199   5.942   1.472
 7914TIP3    H223684   6.142   5.862   1.356
 7915TIP3   OH223685   8.385   2.496   3.980
 7915TIP3    H123686   8.349   2.486   3.892
 7915TIP3    H223687   8.457   2.559   3.970
 7916TIP3   OH223688   3.473   3.608   6.313
 7916TIP3    H123689   3.463   3.537   6.377
 7916TIP3    H223690   3.394   3.605   6.260
 7917TIP3   OH223691   2.009   4.136   6.482
 7917TIP3    H123692   1.944   4.113   6.415
 7917TIP3    H223693   2.007   4.062   6.543
 7918TIP3   OH223694   1.760   2.680   0.899
 7918TIP3    H123695   1.762   2.770   0.866
 7918TIP3    H223696   1.827   2.679   0.968
 7919TIP3   OH223697   2.070   7.397   6.429
 7919TIP3    H123698   2.094   7.455   6.501
 7919TIP3    H223699   2.077   7.452   6.351
 7920TIP3   OH223700   2.305   7.613   4.031
 7920TIP3    H123701   2.399   7.610   4.051
 7920TIP3    H223702   2.277   7.699   4.062
 7921TIP3   OH223703   6.848   4.688   5.018
 7921TIP3    H123704   6.797   4.759   5.058
 7921TIP3    H223705   6.939   4.712   5.033
 7922TIP3   OH223706   6.684   0.096   5.704
 7922TIP3    H123707   6.631   0.021   5.731
 7922TIP3    H223708   6.771   0.079   5.740
 7923TIP3   OH223709   7.650   1.565   5.143
 7923TIP3    H123710   7.707   1.495   5.177
 7923TIP3    H223711   7.620   1.533   5.058
 7924TIP3   OH223712   1.806   3.027   5.657
 7924TIP3    H123713   1.804   3.057   5.748
 7924TIP3    H223714   1.880   2.967   5.653
 7925TIP3   OH223715   7.863   4.745   3.319
 7925TIP3    H123716   7.927   4.739   3.389
 7925TIP3    H223717   7.888   4.675   3.257
 7926TIP3   OH223718   5.626   5.554   4.738
 7926TIP3    H123719   5.704   5.607   4.754
 7926TIP3    H223720   5.574   5.563   4.819
 7927TIP3   OH223721   3.518   6.278   4.638
 7927TIP3    H123722   3.481   6.238   4.717
 7927TIP3    H223723   3.577   6.211   4.603
 7928TIP3   OH223724   5.865   7.066   3.830
 7928TIP3    H123725   5.843   6.979   3.798
 7928TIP3    H223726   5.867   7.121   3.752
 7929TIP3   OH223727   1.549   4.007   4.595
 7929TIP3    H123728   1.507   3.922   4.580
 7929TIP3    H223729   1.492   4.070   4.550
 7930TIP3   OH223730   7.628   7.589   1.008
 7930TIP3    H123731   7.570   7.660   1.036
 7930TIP3    H223732   7.642   7.537   1.087
 7931TIP3   OH223733   4.951   1.262   2.711
 7931TIP3    H123734   4.911   1.185   2.669
 7931TIP3    H223735   4.979   1.230   2.797
 7932TIP3   OH223736   5.594   2.700   1.826
 7932TIP3    H123737   5.663   2.708   1.892
 7932TIP3    H223738   5.615   2.768   1.762
 7933TIP3   OH223739   4.086   4.527   1.251
 7933TIP3    H123740   4.177   4.500   1.262
 7933TIP3    H223741   4.042   4.450   1.213
 7934TIP3   OH223742   3.009   3.213   3.513
 7934TIP3    H123743   3.075   3.255   3.569
 7934TIP3    H223744   3.051   3.132   3.484
 7935TIP3   OH223745   0.606   3.606   1.260
 7935TIP3    H123746   0.539   3.665   1.227
 7935TIP3    H223747   0.583   3.521   1.223
 7936TIP3   OH223748   0.934   7.809   6.284
 7936TIP3    H123749   0.946   7.745   6.214
 7936TIP3    H223750   0.848   7.846   6.269
 7937TIP3   OH223751   0.099   7.776   1.821
 7937TIP3    H123752   0.008   7.801   1.837
 7937TIP3    H223753   0.116   7.804   1.732
 7938TIP3   OH223754   5.147   3.221   3.794
 7938TIP3    H123755   5.067   3.232   3.845
 7938TIP3    H223756   5.118   3.179   3.714
 7939TIP3   OH223757   4.513   2.701   1.287
 7939TIP3    H123758   4.531   2.638   1.218
 7939TIP3    H223759   4.451   2.763   1.249
 7940TIP3   OH223760   1.594   0.913   1.411
 7940TIP3    H123761   1.530   0.867   1.357
 7940TIP3    H223762   1.541   0.978   1.459
 7941TIP3   OH223763   1.345   2.215   5.073
 7941TIP3    H123764   1.309   2.292   5.118
 7941TIP3    H223765   1.278   2.192   5.008
 7942TIP3   OH223766   3.259   4.640   0.448
 7942TIP3    H123767   3.176   4.623   0.493
 7942TIP3    H223768   3.233   4.686   0.368
 7943TIP3   OH223769   5.421   1.732   2.175
 7943TIP3    H123770   5.444   1.783   2.253
 7943TIP3    H223771   5.502   1.687   2.150
 7944TIP3   OH223772   7.397   7.756   2.828
 7944TIP3    H123773   7.363   7.842   2.856
 7944TIP3    H223774   7.322   7.713   2.788
 7945TIP3   OH223775   5.613   5.969   2.977
 7945TIP3    H123776   5.661   5.895   2.940
 7945TIP3    H223777   5.595   6.026   2.902
 7946TIP3   OH223778   7.064   2.349   2.799
 7946TIP3    H123779   6.992   2.300   2.758
 7946TIP3    H223780   7.119   2.377   2.725
 7947TIP3   OH223781   7.134   2.082   2.937
 7947TIP3    H123782   7.141   2.176   2.952
 7947TIP3    H223783   7.216   2.058   2.893
 7948TIP3   OH223784   3.552   6.435   2.280
 7948TIP3    H123785   3.487   6.445   2.210
 7948TIP3    H223786   3.637   6.447   2.236
 7949TIP3   OH223787   3.706   1.919   1.967
 7949TIP3    H123788   3.726   1.850   1.904
 7949TIP3    H223789   3.713   2.000   1.917
 7950TIP3   OH223790   5.048   4.555   1.269
 7950TIP3    H123791   4.978   4.619   1.252
 7950TIP3    H223792   5.129   4.607   1.268
 7951TIP3   OH223793   1.635   1.727   0.258
 7951TIP3    H123794   1.591   1.795   0.310
 7951TIP3    H223795   1.575   1.652   0.260
 7952TIP3   OH223796   4.392   3.915   2.366
 7952TIP3    H123797   4.299   3.894   2.362
 7952TIP3    H223798   4.429   3.846   2.421
 7953TIP3   OH223799   8.252   0.804   4.536
 7953TIP3    H123800   8.170   0.768   4.503
 7953TIP3    H223801   8.318   0.778   4.472
 7954TIP3   OH223802   3.863   4.653   1.343
 7954TIP3    H123803   3.937   4.603   1.308
 7954TIP3    H223804   3.890   4.675   1.433
 7955TIP3   OH223805   7.941   5.604   4.425
 7955TIP3    H123806   7.894   5.641   4.500
 7955TIP3    H223807   7.892   5.634   4.348
 7956TIP3   OH223808   5.556   2.191   6.545
 7956TIP3    H123809   5.629   2.153   6.496
 7956TIP3    H223810   5.583   2.184   6.637
 7957TIP3   OH223811   1.555   6.518   5.908
 7957TIP3    H123812   1.477   6.521   5.852
 7957TIP3    H223813   1.606   6.445   5.873
 7958TIP3   OH223814   0.424   0.934   2.291
 7958TIP3    H123815   0.457   0.988   2.218
 7958TIP3    H223816   0.502   0.912   2.341
 7959TIP3   OH223817   5.452   1.841   1.068
 7959TIP3    H123818   5.403   1.785   1.008
 7959TIP3    H223819   5.436   1.805   1.155
 7960TIP3   OH223820   2.843   5.399   4.060
 7960TIP3    H123821   2.785   5.349   4.003
 7960TIP3    H223822   2.871   5.474   4.007
 7961TIP3   OH223823   0.445   3.932   0.124
 7961TIP3    H123824   0.500   3.853   0.118
 7961TIP3    H223825   0.450   3.957   0.216
 7962TIP3   OH223826   1.855   6.814   2.923
 7962TIP3    H123827   1.945   6.786   2.938
 7962TIP3    H223828   1.801   6.739   2.950
 7963TIP3   OH223829   4.894   4.144   2.388
 7963TIP3    H123830   4.805   4.109   2.400
 7963TIP3    H223831   4.932   4.143   2.476
 7964TIP3   OH223832   8.356   2.371   5.668
 7964TIP3    H123833   8.308   2.372   5.751
 7964TIP3    H223834   8.294   2.401   5.603
 7965TIP3   OH223835   7.302   3.513   6.130
 7965TIP3    H123836   7.221   3.469   6.103
 7965TIP3    H223837   7.279   3.558   6.211
 7966TIP3   OH223838   7.316   1.446   2.015
 7966TIP3    H123839   7.278   1.386   2.079
 7966TIP3    H223840   7.336   1.525   2.065
 7967TIP3   OH223841   6.751   0.059   5.157
 7967TIP3    H123842   6.781  -0.019   5.203
 7967TIP3    H223843   6.708   0.112   5.224
 7968TIP3   OH223844   0.471   1.905   0.764
 7968TIP3    H123845   0.399   1.851   0.797
 7968TIP3    H223846   0.518   1.848   0.704
 7969TIP3   OH223847   8.259   2.345   1.448
 7969TIP3    H123848   8.303   2.265   1.422
 7969TIP3    H223849   8.284   2.358   1.539
 7970TIP3   OH223850   7.554   1.640   1.158
 7970TIP3    H123851   7.520   1.558   1.122
 7970TIP3    H223852   7.524   1.708   1.097
 7971TIP3   OH223853   2.973   1.085   6.266
 7971TIP3    H123854   2.917   1.086   6.188
 7971TIP3    H223855   2.912   1.075   6.339
 7972TIP3   OH223856   4.561   3.007   2.721
 7972TIP3    H123857   4.493   3.001   2.654
 7972TIP3    H223858   4.617   2.931   2.706
 7973TIP3   OH223859   7.821   0.240   5.986
 7973TIP3    H123860   7.751   0.261   5.924
 7973TIP3    H223861   7.819   0.311   6.050
 7974TIP3   OH223862   2.017   1.279   0.535
 7974TIP3    H123863   2.030   1.363   0.491
 7974TIP3    H223864   2.082   1.221   0.495
 7975TIP3   OH223865   2.694   5.605   6.427
 7975TIP3    H123866   2.734   5.641   6.349
 7975TIP3    H223867   2.620   5.663   6.446
 7976TIP3   OH223868   6.301   0.828   3.904
 7976TIP3    H123869   6.226   0.885   3.925
 7976TIP3    H223870   6.269   0.739   3.922
 7977TIP3   OH223871   4.412   7.005   4.258
 7977TIP3    H123872   4.473   7.071   4.226
 7977TIP3    H223873   4.375   6.966   4.179
 7978TIP3   OH223874   5.671   0.529   0.905
 7978TIP3    H123875   5.708   0.596   0.848
 7978TIP3    H223876   5.636   0.578   0.980
 7979TIP3   OH223877   3.773   5.626   5.365
 7979TIP3    H123878   3.720   5.658   5.439
 7979TIP3    H223879   3.863   5.632   5.396
 7980TIP3   OH223880   7.844   7.543   4.014
 7980TIP3    H123881   7.932   7.515   4.038
 7980TIP3    H223882   7.814   7.594   4.090
 7981TIP3   OH223883   7.264   1.520   1.361
 7981TIP3    H123884   7.214   1.454   1.313
 7981TIP3    H223885   7.226   1.603   1.334
 7982TIP3   OH223886   2.457   7.473   2.933
 7982TIP3    H123887   2.496   7.422   2.861
 7982TIP3    H223888   2.449   7.410   3.005
 7983TIP3   OH223889   0.995   2.206   6.749
 7983TIP3    H123890   1.049   2.132   6.778
 7983TIP3    H223891   1.053   2.259   6.696
 7984TIP3   OH223892   3.637   0.511   1.494
 7984TIP3    H123893   3.601   0.600   1.496
 7984TIP3    H223894   3.681   0.501   1.579
 7985TIP3   OH223895   4.599   1.518   6.208
 7985TIP3    H123896   4.560   1.479   6.130
 7985TIP3    H223897   4.668   1.576   6.174
 7986TIP3   OH223898   5.462   4.545   1.696
 7986TIP3    H123899   5.552   4.571   1.717
 7986TIP3    H223900   5.471   4.462   1.650
 7987TIP3   OH223901   7.300   2.112   0.593
 7987TIP3    H123902   7.204   2.107   0.589
 7987TIP3    H223903   7.321   2.196   0.554
 7988TIP3   OH223904   4.536   3.769   4.588
 7988TIP3    H123905   4.564   3.841   4.532
 7988TIP3    H223906   4.441   3.777   4.592
 7989TIP3   OH223907   2.574   4.767   1.914
 7989TIP3    H123908   2.494   4.785   1.864
 7989TIP3    H223909   2.645   4.790   1.855
 7990TIP3   OH223910   2.243   1.447   3.822
 7990TIP3    H123911   2.273   1.419   3.908
 7990TIP3    H223912   2.196   1.371   3.788
 7991TIP3   OH223913   5.705   2.199   4.715
 7991TIP3    H123914   5.670   2.274   4.764
 7991TIP3    H223915   5.680   2.216   4.624
 7992TIP3   OH223916   3.638   4.881   2.722
 7992TIP3    H123917   3.587   4.919   2.650
 7992TIP3    H223918   3.723   4.926   2.718
 7993TIP3   OH223919   5.933   6.008   3.712
 7993TIP3    H123920   5.985   6.010   3.632
 7993TIP3    H223921   5.993   6.037   3.780
 7994TIP3   OH223922   8.086   7.613   6.466
 7994TIP3    H123923   8.100   7.521   6.489
 7994TIP3    H223924   8.056   7.609   6.375
 7995TIP3   OH223925   7.008   5.920   4.031
 7995TIP3    H123926   7.057   6.001   4.018
 7995TIP3    H223927   7.061   5.853   3.988
 7996TIP3   OH223928   2.673   5.546   4.253
 7996TIP3    H123929   2.608   5.493   4.206
 7996TIP3    H223930   2.755   5.528   4.208
 7997TIP3   OH223931   3.027   0.633   2.535
 7997TIP3    H123932   3.094   0.684   2.580
 7997TIP3    H223933   3.006   0.684   2.457
 7998TIP3   OH223934   0.183   1.612   3.104
 7998TIP3    H123935   0.226   1.613   3.019
 7998TIP3    H223936   0.129   1.533   3.104
 7999TIP3   OH223937   7.465   6.997   4.638
 7999TIP3    H123938   7.478   7.061   4.568
 7999TIP3    H223939   7.401   6.935   4.602
 8000TIP3   OH223940   3.352   0.069   6.003
 8000TIP3    H123941   3.280   0.040   6.058
 8000TIP3    H223942   3.311   0.091   5.919
 8001TIP3   OH223943   0.079   2.024   1.318
 8001TIP3    H123944   0.038   2.043   1.403
 8001TIP3    H223945   0.103   2.110   1.284
 8002TIP3   OH223946   4.067   3.414   0.529
 8002TIP3    H123947   4.071   3.430   0.624
 8002TIP3    H223948   3.994   3.353   0.518
 8003TIP3   OH223949   4.617   7.898   5.137
 8003TIP3    H123950   4.532   7.921   5.098
 8003TIP3    H223951   4.644   7.819   5.090
 8004TIP3   OH223952   2.625   6.162   3.826
 8004TIP3    H123953   2.560   6.113   3.775
 8004TIP3    H223954   2.609   6.134   3.917
 8005TIP3   OH223955   3.673   7.102   3.557
 8005TIP3    H123956   3.634   7.063   3.479
 8005TIP3    H223957   3.761   7.127   3.529
 8006TIP3   OH223958   4.510   0.700   2.409
 8006TIP3    H123959   4.605   0.701   2.419
 8006TIP3    H223960   4.489   0.608   2.392
 8007TIP3   OH223961   3.554   7.078   3.278
 8007TIP3    H123962   3.554   6.983   3.263
 8007TIP3    H223963   3.476   7.110   3.233
 8008TIP3   OH223964   2.560   4.951   5.848
 8008TIP3    H123965   2.549   5.041   5.879
 8008TIP3    H223966   2.473   4.914   5.852
 8009TIP3   OH223967   3.440   4.294   3.011
 8009TIP3    H123968   3.372   4.304   3.078
 8009TIP3    H223969   3.493   4.373   3.019
 8010TIP3   OH223970   1.654   7.165   6.251
 8010TIP3    H123971   1.643   7.115   6.332
 8010TIP3    H223972   1.742   7.202   6.258
 8011TIP3   OH223973   4.289   4.950   0.725
 8011TIP3    H123974   4.242   4.934   0.644
 8011TIP3    H223975   4.235   4.910   0.793
 8012TIP3   OH223976   3.301   3.030   3.401
 8012TIP3    H123977   3.389   2.995   3.414
 8012TIP3    H223978   3.315   3.114   3.356
 8013TIP3   OH223979   3.609   3.065   6.576
 8013TIP3    H123980   3.567   3.150   6.562
 8013TIP3    H223981   3.642   3.040   6.490
 8014TIP3   OH223982   5.386   6.480   0.394
 8014TIP3    H123983   5.370   6.561   0.344
 8014TIP3    H223984   5.345   6.411   0.341
 8015TIP3   OH223985   7.067   4.355   2.302
 8015TIP3    H123986   7.155   4.368   2.339
 8015TIP3    H223987   7.079   4.290   2.233
 8016TIP3   OH223988   7.991   3.240   0.646
 8016TIP3    H123989   8.044   3.168   0.680
 8016TIP3    H223990   7.939   3.199   0.577
 8017TIP3   OH223991   8.231   2.787   2.040
 8017TIP3    H123992   8.268   2.735   2.112
 8017TIP3    H223993   8.252   2.736   1.961
 8018TIP3   OH223994   8.080   5.961   3.981
 8018TIP3    H123995   8.030   5.981   3.902
 8018TIP3    H223996   8.171   5.965   3.955
 8019TIP3   OH223997   1.683   4.392   2.249
 8019TIP3    H123998   1.751   4.454   2.274
 8019TIP3    H223999   1.604   4.425   2.292
 8020TIP3   OH224000   1.281   7.771   4.108
 8020TIP3    H124001   1.254   7.780   4.199
 8020TIP3    H224002   1.267   7.678   4.088
 8021TIP3   OH224003   1.707   1.907   5.152
 8021TIP3    H124004   1.706   1.825   5.102
 8021TIP3    H224005   1.644   1.893   5.222
 8022TIP3   OH224006   4.676   5.170   0.882
 8022TIP3    H124007   4.757   5.216   0.904
 8022TIP3    H224008   4.686   5.146   0.790
 8023TIP3   OH224009   2.893   2.795   6.447
 8023TIP3    H124010   2.823   2.734   6.469
 8023TIP3    H224011   2.967   2.769   6.502
 8024TIP3   OH224012   5.058   6.386   2.110
 8024TIP3    H124013   5.135   6.434   2.140
 8024TIP3    H224014   5.076   6.367   2.018
 8025TIP3   OH224015   0.419   2.983   6.857
 8025TIP3    H124016   0.351   3.046   6.834
 8025TIP3    H224017   0.382   2.898   6.834
 8026TIP3   OH224018   3.257   2.330   6.378
 8026TIP3    H124019   3.336   2.366   6.337
 8026TIP3    H224020   3.291   2.270   6.445
 8027TIP3   OH224021   6.449   4.637   6.688
 8027TIP3    H124022   6.414   4.676   6.608
 8027TIP3    H224023   6.461   4.544   6.667
 8028TIP3   OH224024   4.259   5.646   2.635
 8028TIP3    H124025   4.200   5.659   2.710
 8028TIP3    H224026   4.314   5.571   2.660
 8029TIP3   OH224027   0.682   3.459   0.144
 8029TIP3    H124028   0.606   3.408   0.172
 8029TIP3    H224029   0.683   3.451   0.049
 8030TIP3   OH224030   3.692   6.390   0.255
 8030TIP3    H124031   3.694   6.297   0.231
 8030TIP3    H224032   3.610   6.422   0.216
 8031TIP3   OH224033   1.842   0.002   0.224
 8031TIP3    H124034   1.796  -0.027   0.303
 8031TIP3    H224035   1.802   0.086   0.202
 8032TIP3   OH224036   2.331   4.655   0.244
 8032TIP3    H124037   2.305   4.624   0.330
 8032TIP3    H224038   2.339   4.750   0.254
 8033TIP3   OH224039   2.447   0.008   2.075
 8033TIP3    H124040   2.395  -0.058   2.031
 8033TIP3    H224041   2.403   0.022   2.159
 8034TIP3   OH224042   3.344   0.295   1.870
 8034TIP3    H124043   3.430   0.280   1.831
 8034TIP3    H224044   3.351   0.380   1.912
 8035TIP3   OH224045   1.203   0.068   0.960
 8035TIP3    H124046   1.222   0.158   0.935
 8035TIP3    H224047   1.216   0.065   1.055
 8036TIP3   OH224048   4.176   0.847   2.547
 8036TIP3    H124049   4.258   0.825   2.590
 8036TIP3    H224050   4.168   0.942   2.558
 8037TIP3   OH224051   0.060   7.385   4.350
 8037TIP3    H124052   0.145   7.352   4.321
 8037TIP3    H224053   0.001   7.368   4.276
 8038TIP3   OH224054   4.155   3.580   4.749
 8038TIP3    H124055   4.154   3.675   4.757
 8038TIP3    H224056   4.123   3.548   4.833
 8039TIP3   OH224057   7.019   4.378   5.945
 8039TIP3    H124058   7.032   4.381   6.039
 8039TIP3    H224059   7.001   4.468   5.920
 8040TIP3   OH224060   7.276   5.290   4.221
 8040TIP3    H124061   7.190   5.287   4.261
 8040TIP3    H224062   7.288   5.382   4.196
 8041TIP3   OH224063   2.906   2.688   1.747
 8041TIP3    H124064   2.864   2.617   1.796
 8041TIP3    H224065   2.930   2.649   1.663
 8042TIP3   OH224066   4.253   6.729   1.209
 8042TIP3    H124067   4.224   6.731   1.118
 8042TIP3    H224068   4.329   6.787   1.212
 8043TIP3   OH224069   6.413   6.358   5.324
 8043TIP3    H124070   6.471   6.407   5.266
 8043TIP3    H224071   6.442   6.381   5.412
 8044TIP3   OH224072   7.427   4.958   1.264
 8044TIP3    H124073   7.395   5.005   1.342
 8044TIP3    H224074   7.394   4.869   1.275
 8045TIP3   OH224075   0.213   1.198   3.442
 8045TIP3    H124076   0.305   1.217   3.461
 8045TIP3    H224077   0.166   1.276   3.469
 8046TIP3   OH224078   0.256   5.725   4.368
 8046TIP3    H124079   0.315   5.653   4.347
 8046TIP3    H224080   0.180   5.682   4.408
 8047TIP3   OH224081   7.197   6.233   1.966
 8047TIP3    H124082   7.209   6.328   1.966
 8047TIP3    H224083   7.174   6.212   1.875
 8048TIP3   OH224084   7.299   0.134   6.212
 8048TIP3    H124085   7.388   0.159   6.186
 8048TIP3    H224086   7.244   0.162   6.139
 8049TIP3   OH224087   3.553   4.749   3.782
 8049TIP3    H124088   3.570   4.826   3.728
 8049TIP3    H224089   3.580   4.774   3.870
 8050TIP3   OH224090   6.698   7.431   5.015
 8050TIP3    H124091   6.772   7.370   5.010
 8050TIP3    H224092   6.639   7.402   4.946
 8051TIP3   OH224093   4.238   0.114   5.816
 8051TIP3    H124094   4.279   0.153   5.739
 8051TIP3    H224095   4.214   0.189   5.871
 8052TIP3   OH224096   0.969   2.561   1.761
 8052TIP3    H124097   0.972   2.656   1.771
 8052TIP3    H224098   0.893   2.545   1.705
 8053TIP3   OH224099   2.433   4.167   0.074
 8053TIP3    H124100   2.375   4.163   0.149
 8053TIP3    H224101   2.475   4.253   0.081
 8054TIP3   OH224102   2.888   3.263   0.589
 8054TIP3    H124103   2.954   3.289   0.524
 8054TIP3    H224104   2.907   3.316   0.666
 8055TIP3   OH224105   6.171   5.190   1.125
 8055TIP3    H124106   6.199   5.105   1.159
 8055TIP3    H224107   6.147   5.173   1.034
 8056TIP3   OH224108   6.401   3.566   2.039
 8056TIP3    H124109   6.461   3.604   1.975
 8056TIP3    H224110   6.448   3.490   2.073
 8057TIP3   OH224111   4.960   2.526   0.305
 8057TIP3    H124112   5.037   2.546   0.357
 8057TIP3    H224113   4.886   2.542   0.363
 8058TIP3   OH224114   6.293   4.510   2.446
 8058TIP3    H124115   6.312   4.449   2.517
 8058TIP3    H224116   6.298   4.596   2.487
 8059TIP3   OH224117   1.679   2.388   6.192
 8059TIP3    H124118   1.594   2.402   6.150
 8059TIP3    H224119   1.676   2.442   6.270
 8060TIP3   OH224120   0.354   4.234   2.652
 8060TIP3    H124121   0.279   4.289   2.675
 8060TIP3    H224122   0.415   4.245   2.725
 8061TIP3   OH224123   0.403   1.158   2.573
 8061TIP3    H124124   0.363   1.078   2.607
 8061TIP3    H224125   0.384   1.224   2.640
 8062TIP3   OH224126   4.333   6.782   0.601
 8062TIP3    H124127   4.405   6.797   0.663
 8062TIP3    H224128   4.343   6.851   0.536
 8063TIP3   OH224129   4.529   7.687   5.473
 8063TIP3    H124130   4.516   7.777   5.505
 8063TIP3    H224131   4.619   7.667   5.495
 8064TIP3   OH224132   1.388   1.007   6.438
 8064TIP3    H124133   1.442   0.948   6.490
 8064TIP3    H224134   1.337   0.949   6.382
 8065TIP3   OH224135   7.277   2.600   1.941
 8065TIP3    H124136   7.245   2.512   1.922
 8065TIP3    H224137   7.372   2.594   1.930
 8066TIP3   OH224138   5.842   2.953   1.399
 8066TIP3    H124139   5.760   2.995   1.423
 8066TIP3    H224140   5.836   2.865   1.437
 8067TIP3   OH224141   0.043   6.746   5.069
 8067TIP3    H124142   0.010   6.822   5.022
 8067TIP3    H224143   0.010   6.671   5.019
 8068TIP3   OH224144   1.182   2.162   6.440
 8068TIP3    H124145   1.275   2.159   6.419
 8068TIP3    H224146   1.151   2.073   6.422
 8069TIP3   OH224147   1.907   4.695   6.226
 8069TIP3    H124148   1.987   4.713   6.276
 8069TIP3    H224149   1.891   4.775   6.176
 8070TIP3   OH224150   0.431   0.498   1.700
 8070TIP3    H124151   0.503   0.510   1.761
 8070TIP3    H224152   0.466   0.438   1.633
 8071TIP3   OH224153   2.484   7.271   3.123
 8071TIP3    H124154   2.565   7.242   3.166
 8071TIP3    H224155   2.414   7.242   3.182
 8072TIP3   OH224156   0.767   1.663   1.238
 8072TIP3    H124157   0.845   1.714   1.216
 8072TIP3    H224158   0.751   1.681   1.330
 8073TIP3   OH224159   5.336   1.775   6.442
 8073TIP3    H124160   5.262   1.716   6.426
 8073TIP3    H224161   5.359   1.760   6.533
 8074TIP3   OH224162   6.757   4.104   5.651
 8074TIP3    H124163   6.683   4.161   5.633
 8074TIP3    H224164   6.719   4.017   5.664
 8075TIP3   OH224165   7.751   0.714   3.347
 8075TIP3    H124166   7.819   0.704   3.281
 8075TIP3    H224167   7.774   0.653   3.416
 8076TIP3   OH224168   2.285   1.267   1.330
 8076TIP3    H124169   2.216   1.201   1.327
 8076TIP3    H224170   2.305   1.285   1.238
 8077TIP3   OH224171   6.677   2.100   3.429
 8077TIP3    H124172   6.592   2.062   3.451
 8077TIP3    H224173   6.740   2.031   3.450
 8078TIP3   OH224174   7.243   1.250   5.041
 8078TIP3    H124175   7.327   1.250   4.995
 8078TIP3    H224176   7.206   1.163   5.025
 8079TIP3   OH224177   2.157   2.663   3.284
 8079TIP3    H124178   2.177   2.726   3.352
 8079TIP3    H224179   2.230   2.601   3.285
 8080TIP3   OH224180   0.132   0.578   4.235
 8080TIP3    H124181   0.069   0.634   4.281
 8080TIP3    H224182   0.213   0.629   4.234
 8081TIP3   OH224183   1.962   3.594   4.636
 8081TIP3    H124184   1.879   3.548   4.633
 8081TIP3    H224185   2.028   3.526   4.651
 8082TIP3   OH224186   0.202   6.522   1.279
 8082TIP3    H124187   0.135   6.453   1.275
 8082TIP3    H224188   0.280   6.482   1.240
 8083TIP3   OH224189   7.043   2.821   6.759
 8083TIP3    H124190   7.041   2.817   6.855
 8083TIP3    H224191   7.119   2.767   6.734
 8084TIP3   OH224192   6.446   5.050   2.246
 8084TIP3    H124193   6.469   4.963   2.279
 8084TIP3    H224194   6.499   5.110   2.299
 8085TIP3   OH224195   8.262   6.489   0.848
 8085TIP3    H124196   8.327   6.535   0.901
 8085TIP3    H224197   8.188   6.549   0.844
 8086TIP3   OH224198   6.807   2.548   2.771
 8086TIP3    H124199   6.757   2.477   2.810
 8086TIP3    H224200   6.892   2.544   2.815
 8087TIP3   OH224201   6.762   7.831   2.733
 8087TIP3    H124202   6.774   7.739   2.758
 8087TIP3    H224203   6.849   7.860   2.708
 8088TIP3   OH224204   5.725   1.235   3.786
 8088TIP3    H124205   5.820   1.248   3.789
 8088TIP3    H224206   5.711   1.152   3.831
 8089TIP3   OH224207   1.175   1.524   5.305
 8089TIP3    H124208   1.118   1.574   5.364
 8089TIP3    H224209   1.116   1.494   5.236
 8090TIP3   OH224210   4.112   4.143   5.083
 8090TIP3    H124211   4.122   4.163   4.990
 8090TIP3    H224212   4.156   4.059   5.095
 8091TIP3   OH224213   0.724   6.413   1.847
 8091TIP3    H124214   0.718   6.508   1.860
 8091TIP3    H224215   0.663   6.395   1.775
 8092TIP3   OH224216   4.911   1.230   1.030
 8092TIP3    H124217   4.898   1.202   1.121
 8092TIP3    H224218   4.842   1.185   0.981
 8093TIP3   OH224219   6.551   6.891   1.521
 8093TIP3    H124220   6.486   6.953   1.555
 8093TIP3    H224221   6.536   6.811   1.572
 8094TIP3   OH224222   5.224   6.050   4.156
 8094TIP3    H124223   5.281   6.080   4.085
 8094TIP3    H224224   5.168   6.125   4.176
 8095TIP3   OH224225   2.653   4.238   2.713
 8095TIP3    H124226   2.698   4.244   2.797
 8095TIP3    H224227   2.595   4.313   2.711
 8096TIP3   OH224228   5.203   6.936   1.820
 8096TIP3    H124229   5.269   6.977   1.765
 8096TIP3    H224230   5.243   6.855   1.850
 8097TIP3   OH224231   4.045   6.067   3.695
 8097TIP3    H124232   3.996   6.139   3.655
 8097TIP3    H224233   4.035   6.080   3.789
 8098TIP3   OH224234   4.007   5.203   0.949
 8098TIP3    H124235   4.018   5.153   1.030
 8098TIP3    H224236   4.002   5.294   0.978
 8099TIP3   OH224237   3.269   3.238   6.594
 8099TIP3    H124238   3.286   3.144   6.587
 8099TIP3    H224239   3.174   3.246   6.587
 8100TIP3   OH224240   8.306   0.325   4.501
 8100TIP3    H124241   8.323   0.276   4.421
 8100TIP3    H224242   8.372   0.394   4.501
 8101TIP3   OH224243   7.926   2.956   6.355
 8101TIP3    H124244   7.912   2.950   6.260
 8101TIP3    H224245   7.844   2.927   6.394
 8102TIP3   OH224246   6.803   6.426   2.957
 8102TIP3    H124247   6.846   6.388   3.033
 8102TIP3    H224248   6.729   6.368   2.939
 8103TIP3   OH224249   2.412   4.646   3.236
 8103TIP3    H124250   2.495   4.599   3.235
 8103TIP3    H224251   2.358   4.598   3.299
 8104TIP3   OH224252   1.868   4.006   2.564
 8104TIP3    H124253   1.838   4.011   2.473
 8104TIP3    H224254   1.956   4.042   2.562
 8105TIP3   OH224255   4.258   4.084   0.094
 8105TIP3    H124256   4.246   4.038   0.177
 8105TIP3    H224257   4.326   4.148   0.111
 8106TIP3   OH224258   4.814   0.195   4.518
 8106TIP3    H124259   4.873   0.151   4.456
 8106TIP3    H224260   4.853   0.281   4.530
 8107TIP3   OH224261   6.170   0.089   5.752
 8107TIP3    H124262   6.142   0.055   5.836
 8107TIP3    H224263   6.236   0.156   5.773
 8108TIP3   OH224264   1.470   4.909   1.812
 8108TIP3    H124265   1.406   4.902   1.742
 8108TIP3    H224266   1.429   4.968   1.876
 8109TIP3   OH224267   3.880   5.285   1.290
 8109TIP3    H124268   3.861   5.325   1.206
 8109TIP3    H224269   3.794   5.269   1.330
 8110TIP3   OH224270   6.505   0.991   4.614
 8110TIP3    H124271   6.446   0.917   4.629
 8110TIP3    H224272   6.584   0.951   4.579
 8111TIP3   OH224273   0.038   7.836   2.283
 8111TIP3    H124274  -0.024   7.894   2.328
 8111TIP3    H224275   0.076   7.783   2.353
 8112TIP3   OH224276   6.873   6.155   4.587
 8112TIP3    H124277   6.963   6.130   4.567
 8112TIP3    H224278   6.881   6.226   4.650
 8113TIP3   OH224279   1.424   4.669   0.172
 8113TIP3    H124280   1.481   4.680   0.248
 8113TIP3    H224281   1.449   4.740   0.113
 8114TIP3   OH224282   5.088   2.607   4.200
 8114TIP3    H124283   5.002   2.585   4.166
 8114TIP3    H224284   5.148   2.552   4.150
 8115TIP3   OH224285   6.129   6.795   2.348
 8115TIP3    H124286   6.108   6.736   2.276
 8115TIP3    H224287   6.175   6.741   2.411
 8116TIP3   OH224288   2.675   6.106   0.954
 8116TIP3    H124289   2.728   6.142   1.024
 8116TIP3    H224290   2.606   6.057   0.998
 8117TIP3   OH224291   7.371   7.703   2.476
 8117TIP3    H124292   7.410   7.678   2.392
 8117TIP3    H224293   7.445   7.724   2.532
 8118TIP3   OH224294   8.327   3.823   1.402
 8118TIP3    H124295   8.386   3.799   1.474
 8118TIP3    H224296   8.249   3.771   1.417
 8119TIP3   OH224297   0.920   2.658   0.175
 8119TIP3    H124298   0.966   2.717   0.235
 8119TIP3    H224299   0.834   2.646   0.215
 8120TIP3   OH224300   8.366   4.780   4.781
 8120TIP3    H124301   8.383   4.852   4.721
 8120TIP3    H224302   8.275   4.790   4.806
 8121TIP3   OH224303   5.706   7.819   0.729
 8121TIP3    H124304   5.675   7.863   0.809
 8121TIP3    H224305   5.690   7.726   0.746
 8122TIP3   OH224306   4.829   5.136   6.310
 8122TIP3    H124307   4.784   5.220   6.306
 8122TIP3    H224308   4.784   5.088   6.379
 8123TIP3   OH224309   4.225   1.620   4.742
 8123TIP3    H124310   4.206   1.533   4.707
 8123TIP3    H224311   4.318   1.633   4.723
 8124TIP3   OH224312   0.012   5.496   3.771
 8124TIP3    H124313   0.046   5.573   3.726
 8124TIP3    H224314   0.090   5.448   3.799
 8125TIP3   OH224315   3.056   6.604   5.549
 8125TIP3    H124316   3.112   6.663   5.598
 8125TIP3    H224317   3.056   6.637   5.460
 8126TIP3   OH224318   3.876   7.208   5.720
 8126TIP3    H124319   3.877   7.304   5.715
 8126TIP3    H224320   3.968   7.184   5.729
 8127TIP3   OH224321   7.255   0.664   0.174
 8127TIP3    H124322   7.301   0.729   0.121
 8127TIP3    H224323   7.308   0.585   0.165
 8128TIP3   OH224324   1.185   0.485   6.527
 8128TIP3    H124325   1.274   0.513   6.550
 8128TIP3    H224326   1.129   0.531   6.590
 8129TIP3   OH224327   1.002   0.758   1.277
 8129TIP3    H124328   1.083   0.748   1.327
 8129TIP3    H224329   0.976   0.668   1.255
 8130TIP3   OH224330   1.002   5.528   6.550
 8130TIP3    H124331   0.973   5.500   6.463
 8130TIP3    H224332   0.992   5.623   6.549
 8131TIP3   OH224333   5.890   4.988   1.676
 8131TIP3    H124334   5.952   5.059   1.689
 8131TIP3    H224335   5.931   4.913   1.720
 8132TIP3   OH224336   3.765   0.691   4.870
 8132TIP3    H124337   3.766   0.701   4.966
 8132TIP3    H224338   3.775   0.597   4.856
 8133TIP3   OH224339   2.859   7.699   0.106
 8133TIP3    H124340   2.815   7.775   0.142
 8133TIP3    H224341   2.875   7.721   0.014
 8134TIP3   OH224342   4.707   6.381   1.580
 8134TIP3    H124343   4.682   6.462   1.624
 8134TIP3    H224344   4.623   6.340   1.558
 8135TIP3   OH224345   3.300   4.696   5.802
 8135TIP3    H124346   3.358   4.770   5.785
 8135TIP3    H224347   3.302   4.645   5.721
 8136TIP3   OH224348   2.447   3.273   6.648
 8136TIP3    H124349   2.382   3.289   6.579
 8136TIP3    H224350   2.404   3.303   6.728
 8137TIP3   OH224351   5.179   1.685   1.093
 8137TIP3    H124352   5.166   1.600   1.134
 8137TIP3    H224353   5.190   1.666   1.000
 8138TIP3   OH224354   8.380   0.351   6.759
 8138TIP3    H124355   8.451   0.383   6.814
 8138TIP3    H224356   8.301   0.392   6.797
 8139TIP3   OH224357   4.568   2.448   6.155
 8139TIP3    H124358   4.565   2.542   6.174
 8139TIP3    H224359   4.508   2.438   6.081
 8140TIP3   OH224360   8.361   5.682   2.674
 8140TIP3    H124361   8.323   5.716   2.755
 8140TIP3    H224362   8.299   5.708   2.606
 8141TIP3   OH224363   4.873   7.852   2.170
 8141TIP3    H124364   4.868   7.787   2.239
 8141TIP3    H224365   4.823   7.927   2.203
 8142TIP3   OH224366   2.819  -0.016   1.535
 8142TIP3    H124367   2.763   0.001   1.611
 8142TIP3    H224368   2.801   0.057   1.475
 8143TIP3   OH224369   5.217   1.160   2.654
 8143TIP3    H124370   5.288   1.208   2.697
 8143TIP3    H224371   5.137   1.193   2.694
 8144TIP3   OH224372   0.689   5.382   2.058
 8144TIP3    H124373   0.718   5.300   2.017
 8144TIP3    H224374   0.757   5.445   2.036
 8145TIP3   OH224375   6.844   7.236   4.896
 8145TIP3    H124376   6.851   7.279   4.810
 8145TIP3    H224377   6.930   7.197   4.910
 8146TIP3   OH224378   2.440   1.304   3.227
 8146TIP3    H124379   2.514   1.361   3.246
 8146TIP3    H224380   2.430   1.309   3.132
 8147TIP3   OH224381   4.683   6.256   6.006
 8147TIP3    H124382   4.707   6.251   6.099
 8147TIP3    H224383   4.766   6.261   5.960
 8148TIP3   OH224384   7.938   0.631   5.894
 8148TIP3    H124385   7.989   0.711   5.883
 8148TIP3    H224386   7.854   0.661   5.928
 8149TIP3   OH224387   5.946   7.544   3.307
 8149TIP3    H124388   5.944   7.607   3.235
 8149TIP3    H224389   5.879   7.480   3.285
 8150TIP3   OH224390   6.044   1.068   0.841
 8150TIP3    H124391   6.113   1.102   0.783
 8150TIP3    H224392   6.001   1.147   0.876
 8151TIP3   OH224393   5.494   5.466   5.936
 8151TIP3    H124394   5.462   5.550   5.904
 8151TIP3    H224395   5.422   5.405   5.918
 8152TIP3   OH224396   2.061   4.940   4.640
 8152TIP3    H124397   2.093   5.018   4.686
 8152TIP3    H224398   1.974   4.964   4.608
 8153TIP3   OH224399   0.725   3.407   6.486
 8153TIP3    H124400   0.764   3.350   6.552
 8153TIP3    H224401   0.699   3.349   6.415
 8154TIP3   OH224402   0.624   4.009   1.661
 8154TIP3    H124403   0.687   4.074   1.695
 8154TIP3    H224404   0.674   3.957   1.599
 8155TIP3   OH224405   1.917   0.675   6.741
 8155TIP3    H124406   1.966   0.646   6.664
 8155TIP3    H224407   1.985   0.695   6.806
 8156TIP3   OH224408   7.833   7.468   0.821
 8156TIP3    H124409   7.753   7.483   0.872
 8156TIP3    H224410   7.887   7.544   0.840
 8157TIP3   OH224411   0.701   6.297   5.474
 8157TIP3    H124412   0.666   6.270   5.558
 8157TIP3    H224413   0.792   6.265   5.474
 8158TIP3   OH224414   7.460   1.844   3.044
 8158TIP3    H124415   7.422   1.756   3.051
 8158TIP3    H224416   7.537   1.841   3.100
 8159TIP3   OH224417   6.433   5.355   4.355
 8159TIP3    H124418   6.398   5.315   4.434
 8159TIP3    H224419   6.419   5.449   4.368
 8160TIP3   OH224420   3.548   1.443   1.263
 8160TIP3    H124421   3.586   1.391   1.192
 8160TIP3    H224422   3.556   1.534   1.232
 8161TIP3   OH224423   4.338   2.926   5.184
 8161TIP3    H124424   4.345   3.017   5.212
 8161TIP3    H224425   4.314   2.932   5.091
 8162TIP3   OH224426   7.412   2.043   2.876
 8162TIP3    H124427   7.431   1.960   2.919
 8162TIP3    H224428   7.486   2.057   2.817
 8163TIP3   OH224429   6.726   7.818   6.198
 8163TIP3    H124430   6.720   7.818   6.102
 8163TIP3    H224431   6.658   7.756   6.226
 8164TIP3   OH224432   6.168   0.405   4.261
 8164TIP3    H124433   6.086   0.356   4.263
 8164TIP3    H224434   6.197   0.406   4.353
 8165TIP3   OH224435   7.888   0.068   0.233
 8165TIP3    H124436   7.898   0.094   0.142
 8165TIP3    H224437   7.953  -0.001   0.247
 8166TIP3   OH224438   1.916   5.347   4.618
 8166TIP3    H124439   1.937   5.429   4.663
 8166TIP3    H224440   1.833   5.319   4.657
 8167TIP3   OH224441   1.225   0.354   2.644
 8167TIP3    H124442   1.284   0.421   2.609
 8167TIP3    H224443   1.150   0.404   2.676
 8168TIP3   OH224444   4.429   0.101   3.079
 8168TIP3    H124445   4.407   0.027   3.023
 8168TIP3    H224446   4.346   0.147   3.092
 8169TIP3   OH224447   7.311   4.242   1.536
 8169TIP3    H124448   7.231   4.294   1.550
 8169TIP3    H224449   7.280   4.151   1.532
 8170TIP3   OH224450   1.052   0.891   5.872
 8170TIP3    H124451   1.036   0.832   5.946
 8170TIP3    H224452   0.973   0.945   5.868
 8171TIP3   OH224453   8.007   7.693   4.945
 8171TIP3    H124454   7.923   7.729   4.973
 8171TIP3    H224455   8.018   7.726   4.856
 8172TIP3   OH224456   7.022   4.502   6.202
 8172TIP3    H124457   6.985   4.527   6.286
 8172TIP3    H224458   7.108   4.545   6.200
 8173TIP3   OH224459   0.869   2.113   4.090
 8173TIP3    H124460   0.930   2.090   4.161
 8173TIP3    H224461   0.905   2.194   4.054
 8174TIP3   OH224462   3.742   5.120   0.781
 8174TIP3    H124463   3.742   5.111   0.876
 8174TIP3    H224464   3.835   5.120   0.757
 8175TIP3   OH224465   1.603   6.749   1.780
 8175TIP3    H124466   1.699   6.746   1.779
 8175TIP3    H224467   1.577   6.659   1.800
 8176TIP3   OH224468   6.484   7.127   6.717
 8176TIP3    H124469   6.392   7.117   6.739
 8176TIP3    H224470   6.504   7.219   6.736
 8177TIP3   OH224471   5.428   6.655   6.571
 8177TIP3    H124472   5.475   6.728   6.530
 8177TIP3    H224473   5.352   6.696   6.612
 8178TIP3   OH224474   1.869   6.610   6.234
 8178TIP3    H124475   1.856   6.534   6.177
 8178TIP3    H224476   1.964   6.621   6.239
 8179TIP3   OH224477   7.038   2.212   0.403
 8179TIP3    H124478   6.989   2.288   0.435
 8179TIP3    H224479   7.099   2.248   0.338
 8180TIP3   OH224480   1.384   1.291   4.947
 8180TIP3    H124481   1.340   1.251   4.872
 8180TIP3    H224482   1.346   1.379   4.953
 8181TIP3   OH224483   7.924   0.911   3.654
 8181TIP3    H124484   7.880   0.990   3.684
 8181TIP3    H224485   8.012   0.940   3.628
 8182TIP3   OH224486   0.931   3.599   1.607
 8182TIP3    H124487   0.840   3.603   1.635
 8182TIP3    H224488   0.980   3.646   1.675
 8183TIP3   OH224489   0.349   3.913   4.650
 8183TIP3    H124490   0.444   3.917   4.638
 8183TIP3    H224491   0.321   4.004   4.645
 8184TIP3   OH224492   2.357   4.722   3.983
 8184TIP3    H124493   2.263   4.705   3.975
 8184TIP3    H224494   2.362   4.802   4.034
 8185TIP3   OH224495   5.365   3.510   2.091
 8185TIP3    H124496   5.330   3.422   2.106
 8185TIP3    H224497   5.442   3.515   2.148
 8186TIP3   OH224498   2.927   1.001   5.025
 8186TIP3    H124499   2.944   0.990   4.932
 8186TIP3    H224500   2.998   0.953   5.068
 8187TIP3   OH224501   3.851   3.228   0.125
 8187TIP3    H124502   3.794   3.218   0.048
 8187TIP3    H224503   3.868   3.322   0.129
 8188TIP3   OH224504   6.016   4.777   2.138
 8188TIP3    H124505   6.094   4.722   2.137
 8188TIP3    H224506   6.042   4.854   2.190
 8189TIP3   OH224507   8.147   7.523   0.464
 8189TIP3    H124508   8.114   7.591   0.523
 8189TIP3    H224509   8.238   7.548   0.448
 8190TIP3   OH224510   5.966   4.157   4.511
 8190TIP3    H124511   5.986   4.067   4.484
 8190TIP3    H224512   6.002   4.164   4.599
 8191TIP3   OH224513   6.572   0.297   1.507
 8191TIP3    H124514   6.650   0.259   1.548
 8191TIP3    H224515   6.605   0.343   1.430
 8192TIP3   OH224516   4.052   1.510   0.813
 8192TIP3    H124517   4.128   1.451   0.815
 8192TIP3    H224518   3.994   1.477   0.881
 8193TIP3   OH224519   6.381   5.543   2.528
 8193TIP3    H124520   6.329   5.617   2.560
 8193TIP3    H224521   6.470   5.576   2.524
 8194TIP3   OH224522   2.710   3.835   5.209
 8194TIP3    H124523   2.763   3.906   5.173
 8194TIP3    H224524   2.671   3.792   5.133
 8195TIP3   OH224525   7.011   5.756   4.674
 8195TIP3    H124526   6.958   5.829   4.708
 8195TIP3    H224527   7.009   5.767   4.579
 8196TIP3   OH224528   4.714   5.071   3.215
 8196TIP3    H124529   4.642   5.077   3.152
 8196TIP3    H224530   4.731   5.161   3.240
 8197TIP3   OH224531   5.440   4.783   0.920
 8197TIP3    H124532   5.480   4.846   0.861
 8197TIP3    H224533   5.484   4.700   0.900
 8198TIP3   OH224534   0.663   1.629   3.831
 8198TIP3    H124535   0.609   1.650   3.907
 8198TIP3    H224536   0.662   1.709   3.778
 8199TIP3   OH224537   3.861   5.733   4.306
 8199TIP3    H124538   3.895   5.772   4.225
 8199TIP3    H224539   3.908   5.778   4.376
 8200TIP3   OH224540   0.695   4.536   5.088
 8200TIP3    H124541   0.657   4.448   5.083
 8200TIP3    H224542   0.673   4.567   5.176
 8201TIP3   OH224543   4.056   0.903   1.960
 8201TIP3    H124544   4.108   0.937   2.033
 8201TIP3    H224545   3.965   0.921   1.985
 8202TIP3   OH224546   5.191   0.756   5.354
 8202TIP3    H124547   5.192   0.841   5.311
 8202TIP3    H224548   5.205   0.693   5.284
 8203TIP3   OH224549   2.555   5.114   4.344
 8203TIP3    H124550   2.527   5.184   4.403
 8203TIP3    H224551   2.617   5.157   4.285
 8204TIP3   OH224552   3.180  -0.033   0.731
 8204TIP3    H124553   3.168  -0.064   0.821
 8204TIP3    H224554   3.229   0.049   0.741
 8205TIP3   OH224555   2.425   2.349   1.567
 8205TIP3    H124556   2.351   2.341   1.627
 8205TIP3    H224557   2.392   2.405   1.497
 8206TIP3   OH224558   7.866   5.773   4.996
 8206TIP3    H124559   7.845   5.682   4.978
 8206TIP3    H224560   7.884   5.775   5.090
 8207TIP3   OH224561   7.437   4.699   4.613
 8207TIP3    H124562   7.455   4.743   4.529
 8207TIP3    H224563   7.396   4.616   4.587
 8208TIP3   OH224564   7.033   5.364   5.762
 8208TIP3    H124565   7.020   5.444   5.813
 8208TIP3    H224566   7.039   5.394   5.672
 8209TIP3   OH224567   5.499   0.070   3.101
 8209TIP3    H124568   5.404   0.065   3.089
 8209TIP3    H224569   5.533  -0.002   3.048
 8210TIP3   OH224570   1.669   4.955   5.151
 8210TIP3    H124571   1.708   4.974   5.236
 8210TIP3    H224572   1.668   5.039   5.105
 8211TIP3   OH224573   4.305   0.500   6.915
 8211TIP3    H124574   4.348   0.527   6.834
 8211TIP3    H224575   4.365   0.529   6.984
 8212TIP3   OH224576   0.022   1.335   5.778
 8212TIP3    H124577   0.064   1.420   5.761
 8212TIP3    H224578   0.049   1.280   5.705
 8213TIP3   OH224579   1.388   5.746   2.031
 8213TIP3    H124580   1.403   5.803   1.956
 8213TIP3    H224581   1.313   5.785   2.077
 8214TIP3   OH224582   6.273   1.461   5.255
 8214TIP3    H124583   6.317   1.531   5.303
 8214TIP3    H224584   6.255   1.498   5.169
 8215TIP3   OH224585   5.461   4.692   5.773
 8215TIP3    H124586   5.525   4.656   5.836
 8215TIP3    H224587   5.491   4.782   5.758
 8216TIP3   OH224588   1.389   4.891   2.904
 8216TIP3    H124589   1.421   4.905   2.815
 8216TIP3    H224590   1.452   4.938   2.959
 8217TIP3   OH224591   8.349   5.480   6.393
 8217TIP3    H124592   8.320   5.411   6.334
 8217TIP3    H224593   8.429   5.446   6.434
 8218TIP3   OH224594   0.577   2.014   5.137
 8218TIP3    H124595   0.654   1.964   5.112
 8218TIP3    H224596   0.528   2.026   5.055
 8219TIP3   OH224597   2.475   0.974   0.749
 8219TIP3    H124598   2.396   0.935   0.712
 8219TIP3    H224599   2.507   1.032   0.680
 8220TIP3   OH224600   2.717   7.722   5.187
 8220TIP3    H124601   2.674   7.782   5.248
 8220TIP3    H224602   2.647   7.665   5.155
 8221TIP3   OH224603   1.994   6.451   1.157
 8221TIP3    H124604   2.033   6.505   1.089
 8221TIP3    H224605   1.963   6.514   1.222
 8222TIP3   OH224606   8.149   3.678   6.230
 8222TIP3    H124607   8.072   3.708   6.278
 8222TIP3    H224608   8.113   3.627   6.158
 8223TIP3   OH224609   2.611   2.141   6.024
 8223TIP3    H124610   2.547   2.155   5.954
 8223TIP3    H224611   2.678   2.207   6.008
 8224TIP3   OH224612   0.535   3.938   0.863
 8224TIP3    H124613   0.582   4.015   0.897
 8224TIP3    H224614   0.461   3.975   0.815
 8225TIP3   OH224615   2.049   7.092   4.848
 8225TIP3    H124616   2.134   7.047   4.850
 8225TIP3    H224617   2.068   7.180   4.881
 8226TIP3   OH224618   0.553   2.622   0.773
 8226TIP3    H124619   0.611   2.575   0.833
 8226TIP3    H224620   0.580   2.714   0.780
 8227TIP3   OH224621   7.664   4.355   0.625
 8227TIP3    H124622   7.607   4.424   0.591
 8227TIP3    H224623   7.752   4.380   0.595
 8228TIP3   OH224624   6.032   6.988   4.907
 8228TIP3    H124625   6.123   7.015   4.919
 8228TIP3    H224626   6.000   6.971   4.995
 8229TIP3   OH224627   4.053   3.931   6.329
 8229TIP3    H124628   3.990   4.004   6.332
 8229TIP3    H224629   4.138   3.973   6.318
 8230TIP3   OH224630   4.078   5.137   4.219
 8230TIP3    H124631   4.006   5.108   4.275
 8230TIP3    H224632   4.134   5.060   4.210
 8231TIP3   OH224633   8.077   7.330   6.472
 8231TIP3    H124634   8.155   7.355   6.421
 8231TIP3    H224635   8.109   7.261   6.530
 8232TIP3   OH224636   5.398   1.527   3.583
 8232TIP3    H124637   5.458   1.499   3.652
 8232TIP3    H224638   5.448   1.591   3.532
 8233TIP3   OH224639   4.676   1.450   4.884
 8233TIP3    H124640   4.722   1.475   4.964
 8233TIP3    H224641   4.725   1.493   4.814
 8234TIP3   OH224642   7.414   0.276   2.441
 8234TIP3    H124643   7.407   0.268   2.536
 8234TIP3    H224644   7.375   0.196   2.407
 8235TIP3   OH224645   2.801   5.717   3.517
 8235TIP3    H124646   2.786   5.673   3.433
 8235TIP3    H224647   2.862   5.659   3.563
 8236TIP3   OH224648   5.256   3.651   1.890
 8236TIP3    H124649   5.277   3.594   1.964
 8236TIP3    H224650   5.277   3.599   1.813
 8237TIP3   OH224651   6.455   0.632   3.561
 8237TIP3    H124652   6.374   0.581   3.553
 8237TIP3    H224653   6.524   0.566   3.564
 8238TIP3   OH224654   0.685   1.822   6.233
 8238TIP3    H124655   0.675   1.888   6.164
 8238TIP3    H224656   0.602   1.824   6.280
 8239TIP3   OH224657   7.013   6.947   1.739
 8239TIP3    H124658   7.092   6.988   1.774
 8239TIP3    H224659   6.981   6.892   1.810
 8240TIP3   OH224660   7.805   3.001   2.768
 8240TIP3    H124661   7.837   2.931   2.710
 8240TIP3    H224662   7.773   3.069   2.709
 8241TIP3   OH224663   6.073   4.008   6.106
 8241TIP3    H124664   6.153   4.050   6.139
 8241TIP3    H224665   6.102   3.957   6.030
 8242TIP3   OH224666   4.215   2.258   3.155
 8242TIP3    H124667   4.138   2.267   3.099
 8242TIP3    H224668   4.186   2.201   3.227
 8243TIP3   OH224669   6.948   1.335   5.976
 8243TIP3    H124670   6.958   1.410   5.917
 8243TIP3    H224671   6.978   1.368   6.061
 8244TIP3   OH224672   2.681   3.158   6.533
 8244TIP3    H124673   2.656   3.129   6.445
 8244TIP3    H224674   2.607   3.210   6.563
 8245TIP3   OH224675   7.748   5.469   6.100
 8245TIP3    H124676   7.655   5.471   6.076
 8245TIP3    H224677   7.758   5.388   6.150
 8246TIP3   OH224678   3.699   7.323   3.249
 8246TIP3    H124679   3.662   7.373   3.322
 8246TIP3    H224680   3.654   7.239   3.252
 8247TIP3   OH224681   6.092   7.593   6.254
 8247TIP3    H124682   6.106   7.687   6.241
 8247TIP3    H224683   6.042   7.565   6.177
 8248TIP3   OH224684   5.236   1.584   2.486
 8248TIP3    H124685   5.291   1.657   2.458
 8248TIP3    H224686   5.263   1.567   2.576
 8249TIP3   OH224687   4.823   4.416   0.383
 8249TIP3    H124688   4.731   4.433   0.364
 8249TIP3    H224689   4.841   4.333   0.340
 8250TIP3   OH224690   0.606   2.095   1.420
 8250TIP3    H124691   0.657   2.054   1.490
 8250TIP3    H224692   0.670   2.109   1.350
 8251TIP3   OH224693   7.685   6.873   6.091
 8251TIP3    H124694   7.619   6.843   6.153
 8251TIP3    H224695   7.758   6.904   6.145
 8252TIP3   OH224696   2.707   3.536   1.506
 8252TIP3    H124697   2.707   3.464   1.570
 8252TIP3    H224698   2.727   3.494   1.423
 8253TIP3   OH224699   1.232   4.250   4.224
 8253TIP3    H124700   1.284   4.251   4.305
 8253TIP3    H224701   1.143   4.229   4.253
 8254TIP3   OH224702   1.470   4.702   5.755
 8254TIP3    H124703   1.457   4.621   5.705
 8254TIP3    H224704   1.387   4.715   5.800
 8255TIP3   OH224705   5.794   0.312   1.751
 8255TIP3    H124706   5.764   0.377   1.686
 8255TIP3    H224707   5.742   0.234   1.732
 8256TIP3   OH224708   6.794   2.042   4.715
 8256TIP3    H124709   6.708   2.013   4.746
 8256TIP3    H224710   6.813   1.985   4.640
 8257TIP3   OH224711   2.301   3.891   2.430
 8257TIP3    H124712   2.346   3.835   2.494
 8257TIP3    H224713   2.327   3.856   2.345
 8258TIP3   OH224714   3.446   5.880   2.471
 8258TIP3    H124715   3.390   5.952   2.501
 8258TIP3    H224716   3.526   5.888   2.523
 8259TIP3   OH224717   5.674   3.130   0.342
 8259TIP3    H124718   5.731   3.104   0.269
 8259TIP3    H224719   5.586   3.132   0.305
 8260TIP3   OH224720   3.823   2.106   3.482
 8260TIP3    H124721   3.730   2.103   3.457
 8260TIP3    H224722   3.834   2.031   3.540
 8261TIP3   OH224723   7.299   1.600   4.709
 8261TIP3    H124724   7.358   1.540   4.664
 8261TIP3    H224725   7.222   1.604   4.653
 8262TIP3   OH224726   5.401   1.514   5.476
 8262TIP3    H124727   5.317   1.521   5.431
 8262TIP3    H224728   5.465   1.548   5.413
 8263TIP3   OH224729   2.410   4.783   5.318
 8263TIP3    H124730   2.369   4.830   5.245
 8263TIP3    H224731   2.426   4.851   5.384
 8264TIP3   OH224732   4.779   2.546   0.498
 8264TIP3    H124733   4.742   2.631   0.525
 8264TIP3    H224734   4.768   2.490   0.574
 8265TIP3   OH224735   0.521   6.824   3.285
 8265TIP3    H124736   0.451   6.888   3.285
 8265TIP3    H224737   0.495   6.760   3.219
 8266TIP3   OH224738   7.289   4.035   0.093
 8266TIP3    H124739   7.378   4.018   0.124
 8266TIP3    H224740   7.260   3.951   0.056
 8267TIP3   OH224741   0.685   4.083   3.073
 8267TIP3    H124742   0.775   4.096   3.043
 8267TIP3    H224743   0.644   4.169   3.064
 8268TIP3   OH224744   5.637   6.140   2.769
 8268TIP3    H124745   5.709   6.204   2.774
 8268TIP3    H224746   5.668   6.073   2.709
 8269TIP3   OH224747   3.362   5.797   6.335
 8269TIP3    H124748   3.337   5.776   6.426
 8269TIP3    H224749   3.442   5.746   6.320
 8270TIP3   OH224750   0.199   1.107   1.573
 8270TIP3    H124751   0.270   1.076   1.518
 8270TIP3    H224752   0.234   1.185   1.617
 8271TIP3   OH224753   3.333   6.299   2.522
 8271TIP3    H124754   3.245   6.321   2.490
 8271TIP3    H224755   3.319   6.220   2.575
 8272TIP3   OH224756   3.305   2.279   0.248
 8272TIP3    H124757   3.375   2.235   0.296
 8272TIP3    H224758   3.316   2.372   0.267
 8273TIP3   OH224759   6.045   3.417   1.328
 8273TIP3    H124760   6.123   3.465   1.302
 8273TIP3    H224761   6.074   3.325   1.333
 8274TIP3   OH224762   7.774   6.351   2.062
 8274TIP3    H124763   7.756   6.275   2.118
 8274TIP3    H224764   7.703   6.351   1.998
 8275TIP3   OH224765   1.206   5.397   1.349
 8275TIP3    H124766   1.158   5.472   1.384
 8275TIP3    H224767   1.170   5.322   1.396
 8276TIP3   OH224768   7.488   3.317   6.490
 8276TIP3    H124769   7.426   3.390   6.487
 8276TIP3    H224770   7.436   3.241   6.464
 8277TIP3   OH224771   4.281   4.666   3.092
 8277TIP3    H124772   4.270   4.653   2.998
 8277TIP3    H224773   4.259   4.581   3.131
 8278TIP3   OH224774   7.999   1.093   5.006
 8278TIP3    H124775   8.039   1.114   5.090
 8278TIP3    H224776   7.939   1.165   4.989
 8279TIP3   OH224777   3.656   5.647   2.955
 8279TIP3    H124778   3.635   5.726   2.905
 8279TIP3    H224779   3.675   5.581   2.889
 8280TIP3   OH224780   6.637   4.407   5.648
 8280TIP3    H124781   6.707   4.395   5.583
 8280TIP3    H224782   6.602   4.494   5.629
 8281TIP3   OH224783   1.036   5.573   1.467
 8281TIP3    H124784   1.063   5.569   1.559
 8281TIP3    H224785   0.942   5.590   1.470
 8282TIP3   OH224786   4.955   6.811   2.227
 8282TIP3    H124787   4.939   6.798   2.133
 8282TIP3    H224788   4.941   6.725   2.266
 8283TIP3   OH224789   0.367   2.682   5.940
 8283TIP3    H124790   0.424   2.759   5.928
 8283TIP3    H224791   0.427   2.608   5.933
 8284TIP3   OH224792   5.984   1.086   5.386
 8284TIP3    H124793   6.038   1.036   5.325
 8284TIP3    H224794   5.896   1.051   5.374
 8285TIP3   OH224795   4.405   6.540   6.270
 8285TIP3    H124796   4.374   6.449   6.270
 8285TIP3    H224797   4.475   6.541   6.204
 8286TIP3   OH224798   1.220   3.413   0.974
 8286TIP3    H124799   1.127   3.389   0.973
 8286TIP3    H224800   1.264   3.338   1.012
 8287TIP3   OH224801   3.981   5.552   0.721
 8287TIP3    H124802   3.912   5.606   0.760
 8287TIP3    H224803   4.060   5.606   0.728
 8288TIP3   OH224804   3.813   5.800   5.025
 8288TIP3    H124805   3.884   5.736   5.028
 8288TIP3    H224806   3.800   5.816   4.932
 8289TIP3   OH224807   2.086   0.453   2.342
 8289TIP3    H124808   2.060   0.363   2.327
 8289TIP3    H224809   2.003   0.502   2.343
 8290TIP3   OH224810   3.364   6.586   4.203
 8290TIP3    H124811   3.318   6.568   4.284
 8290TIP3    H224812   3.439   6.639   4.229
 8291TIP3   OH224813   5.192   4.990   2.348
 8291TIP3    H124814   5.117   4.993   2.288
 8291TIP3    H224815   5.186   5.072   2.397
 8292TIP3   OH224816   5.923   0.969   3.704
 8292TIP3    H124817   5.875   0.989   3.624
 8292TIP3    H224818   6.013   0.994   3.686
 8293TIP3   OH224819   6.414   3.578   3.046
 8293TIP3    H124820   6.324   3.588   3.078
 8293TIP3    H224821   6.440   3.490   3.073
 8294TIP3   OH224822   3.095   1.800   5.268
 8294TIP3    H124823   3.053   1.809   5.182
 8294TIP3    H224824   3.111   1.706   5.276
 8295TIP3   OH224825   1.002   0.027   5.333
 8295TIP3    H124826   1.002   0.109   5.383
 8295TIP3    H224827   1.082  -0.017   5.361
 8296TIP3   OH224828   4.669   5.669   3.918
 8296TIP3    H124829   4.643   5.579   3.938
 8296TIP3    H224830   4.659   5.716   4.000
 8297TIP3   OH224831   0.548   7.738   6.847
 8297TIP3    H124832   0.488   7.808   6.874
 8297TIP3    H224833   0.583   7.769   6.763
 8298TIP3   OH224834   6.235   6.999   6.037
 8298TIP3    H124835   6.163   7.060   6.020
 8298TIP3    H224836   6.284   7.040   6.108
 8299TIP3   OH224837   3.051   2.934   3.323
 8299TIP3    H124838   3.009   2.971   3.246
 8299TIP3    H224839   3.140   2.970   3.323
 8300TIP3   OH224840   1.561   3.573   0.829
 8300TIP3    H124841   1.633   3.517   0.799
 8300TIP3    H224842   1.550   3.549   0.922
 8301TIP3   OH224843   1.690   0.933   4.330
 8301TIP3    H124844   1.624   0.924   4.399
 8301TIP3    H224845   1.659   0.876   4.260
 8302TIP3   OH224846   0.366   2.286   2.212
 8302TIP3    H124847   0.329   2.201   2.236
 8302TIP3    H224848   0.411   2.315   2.291
 8303TIP3   OH224849   1.622   2.515   1.667
 8303TIP3    H124850   1.583   2.569   1.598
 8303TIP3    H224851   1.647   2.578   1.735
 8304TIP3   OH224852   3.374   1.043   5.613
 8304TIP3    H124853   3.459   1.003   5.633
 8304TIP3    H224854   3.366   1.114   5.676
 8305TIP3   OH224855   1.538   2.986   2.323
 8305TIP3    H124856   1.519   3.009   2.232
 8305TIP3    H224857   1.456   2.950   2.357
 8306TIP3   OH224858   2.068   1.183   4.053
 8306TIP3    H124859   2.089   1.090   4.058
 8306TIP3    H224860   1.999   1.196   4.119
 8307TIP3   OH224861   4.163   1.026   3.251
 8307TIP3    H124862   4.199   0.943   3.281
 8307TIP3    H224863   4.074   1.004   3.222
 8308TIP3   OH224864   3.337   5.263   0.950
 8308TIP3    H124865   3.424   5.279   0.912
 8308TIP3    H224866   3.355   5.242   1.041
 8309TIP3   OH224867   4.531   5.185   4.853
 8309TIP3    H124868   4.538   5.090   4.846
 8309TIP3    H224869   4.488   5.200   4.937
 8310TIP3   OH224870   1.811   5.998   3.669
 8310TIP3    H124871   1.730   6.048   3.679
 8310TIP3    H224872   1.783   5.907   3.661
 8311TIP3   OH224873   0.047   7.022   0.282
 8311TIP3    H124874  -0.004   6.979   0.213
 8311TIP3    H224875  -0.014   7.084   0.322
 8312TIP3   OH224876   0.482   0.520   0.650
 8312TIP3    H124877   0.427   0.442   0.648
 8312TIP3    H224878   0.422   0.592   0.665
 8313TIP3   OH224879   7.849   7.318   2.947
 8313TIP3    H124880   7.833   7.228   2.973
 8313TIP3    H224881   7.932   7.341   2.988
 8314TIP3   OH224882   2.122   3.171   5.371
 8314TIP3    H124883   2.194   3.229   5.347
 8314TIP3    H224884   2.115   3.179   5.466
 8315TIP3   OH224885   4.973   1.888   6.352
 8315TIP3    H124886   5.067   1.906   6.346
 8315TIP3    H224887   4.961   1.853   6.441
 8316TIP3   OH224888   2.567   2.877   4.617
 8316TIP3    H124889   2.507   2.914   4.681
 8316TIP3    H224890   2.550   2.927   4.537
 8317TIP3   OH224891   2.651   5.319   2.591
 8317TIP3    H124892   2.559   5.325   2.566
 8317TIP3    H224893   2.660   5.230   2.626
 8318TIP3   OH224894   4.645   6.881   6.722
 8318TIP3    H124895   4.699   6.892   6.643
 8318TIP3    H224896   4.605   6.968   6.735
 8319TIP3   OH224897   0.964   2.393   5.422
 8319TIP3    H124898   1.019   2.462   5.386
 8319TIP3    H224899   0.997   2.379   5.511
 8320TIP3   OH224900   2.059   3.279   3.874
 8320TIP3    H124901   2.020   3.275   3.961
 8320TIP3    H224902   2.089   3.190   3.857
 8321TIP3   OH224903   2.341   1.697   4.072
 8321TIP3    H124904   2.313   1.605   4.078
 8321TIP3    H224905   2.416   1.703   4.132
 8322TIP3   OH224906   0.645   7.858   4.663
 8322TIP3    H124907   0.634   7.828   4.753
 8322TIP3    H224908   0.609   7.787   4.610
 8323TIP3   OH224909   7.285   3.448   1.397
 8323TIP3    H124910   7.208   3.453   1.340
 8323TIP3    H224911   7.280   3.362   1.438
 8324TIP3   OH224912   6.002   1.719   4.055
 8324TIP3    H124913   6.008   1.718   3.960
 8324TIP3    H224914   6.019   1.810   4.079
 8325TIP3   OH224915   3.515   1.554   0.716
 8325TIP3    H124916   3.496   1.622   0.651
 8325TIP3    H224917   3.567   1.598   0.783
 8326TIP3   OH224918   5.602   0.659   0.243
 8326TIP3    H124919   5.656   0.582   0.263
 8326TIP3    H224920   5.524   0.647   0.297
 8327TIP3   OH224921   2.407   6.898   2.051
 8327TIP3    H124922   2.336   6.852   2.006
 8327TIP3    H224923   2.429   6.970   1.992
 8328TIP3   OH224924   2.005   4.221   6.126
 8328TIP3    H124925   1.999   4.165   6.204
 8328TIP3    H224926   1.923   4.271   6.126
 8329TIP3   OH224927   7.723   6.826   3.191
 8329TIP3    H124928   7.736   6.740   3.151
 8329TIP3    H224929   7.630   6.843   3.181
 8330TIP3   OH224930   6.625   5.717   1.268
 8330TIP3    H124931   6.718   5.733   1.285
 8330TIP3    H224932   6.593   5.679   1.350
 8331TIP3   OH224933   7.370   2.871   6.075
 8331TIP3    H124934   7.312   2.797   6.057
 8331TIP3    H224935   7.363   2.927   5.997
 8332TIP3   OH224936   4.565   7.621   1.211
 8332TIP3    H124937   4.562   7.716   1.197
 8332TIP3    H224938   4.493   7.586   1.157
 8333TIP3   OH224939   3.512   1.317   4.361
 8333TIP3    H124940   3.580   1.379   4.388
 8333TIP3    H224941   3.481   1.351   4.277
 8334TIP3   OH224942   2.261   2.064   3.426
 8334TIP3    H124943   2.255   2.082   3.332
 8334TIP3    H224944   2.281   2.149   3.466
 8335TIP3   OH224945   7.588   3.491   5.550
 8335TIP3    H124946   7.605   3.420   5.612
 8335TIP3    H224947   7.496   3.512   5.563
 8336TIP3   OH224948   1.485   6.421   6.157
 8336TIP3    H124949   1.525   6.443   6.073
 8336TIP3    H224950   1.454   6.505   6.192
 8337TIP3   OH224951   1.506   7.543   4.282
 8337TIP3    H124952   1.474   7.597   4.209
 8337TIP3    H224953   1.463   7.579   4.359
 8338TIP3   OH224954   6.249   2.733   2.218
 8338TIP3    H124955   6.198   2.659   2.250
 8338TIP3    H224956   6.287   2.773   2.296
 8339TIP3   OH224957   2.981   6.685   0.040
 8339TIP3    H124958   3.054   6.678  -0.022
 8339TIP3    H224959   2.916   6.623   0.007
 8340TIP3   OH224960   6.156   5.724   2.436
 8340TIP3    H124961   6.244   5.760   2.448
 8340TIP3    H224962   6.112   5.740   2.519
 8341TIP3   OH224963   6.249   5.278   3.533
 8341TIP3    H124964   6.180   5.309   3.591
 8341TIP3    H224965   6.331   5.296   3.579
 8342TIP3   OH224966   4.247   3.724   4.505
 8342TIP3    H124967   4.211   3.655   4.561
 8342TIP3    H224968   4.190   3.800   4.520
 8343TIP3   OH224969   5.748   7.656   3.879
 8343TIP3    H124970   5.778   7.569   3.907
 8343TIP3    H224971   5.681   7.637   3.813
 8344TIP3   OH224972   1.383   1.963   5.445
 8344TIP3    H124973   1.344   1.960   5.532
 8344TIP3    H224974   1.469   1.923   5.456
 8345TIP3   OH224975   3.448   1.679   2.007
 8345TIP3    H124976   3.460   1.588   1.978
 8345TIP3    H224977   3.525   1.697   2.061
 8346TIP3   OH224978   4.517   1.659   3.419
 8346TIP3    H124979   4.458   1.730   3.447
 8346TIP3    H224980   4.469   1.579   3.441
 8347TIP3   OH224981   0.652   7.027   3.424
 8347TIP3    H124982   0.620   6.956   3.368
 8347TIP3    H224983   0.576   7.083   3.438
 8348TIP3   OH224984   6.696   4.518   1.396
 8348TIP3    H124985   6.752   4.595   1.405
 8348TIP3    H224986   6.682   4.487   1.485
 8349TIP3   OH224987   6.667   5.718   6.417
 8349TIP3    H124988   6.755   5.720   6.380
 8349TIP3    H224989   6.610   5.690   6.345
 8350TIP3   OH224990   0.710   4.441   3.261
 8350TIP3    H124991   0.655   4.427   3.338
 8350TIP3    H224992   0.652   4.483   3.197
 8351TIP3   OH224993   6.841   5.596   1.670
 8351TIP3    H124994   6.770   5.590   1.734
 8351TIP3    H224995   6.828   5.521   1.612
 8352TIP3   OH224996   6.546   0.381   6.796
 8352TIP3    H124997   6.559   0.309   6.734
 8352TIP3    H224998   6.487   0.441   6.751
 8353TIP3   OH224999   4.128   4.414   6.815
 8353TIP3    H125000   4.132   4.375   6.727
 8353TIP3    H225001   4.119   4.508   6.798
 8354TIP3   OH225002   3.558   5.225   2.309
 8354TIP3    H125003   3.573   5.190   2.222
 8354TIP3    H225004   3.646   5.249   2.341
 8355TIP3   OH225005   3.169   4.341   3.470
 8355TIP3    H125006   3.156   4.435   3.485
 8355TIP3    H225007   3.258   4.324   3.499
 8356TIP3   OH225008   8.078   1.306   2.455
 8356TIP3    H125009   8.024   1.231   2.480
 8356TIP3    H225010   8.162   1.268   2.431
 8357TIP3   OH225011   4.448   2.537   4.376
 8357TIP3    H125012   4.398   2.593   4.316
 8357TIP3    H225013   4.498   2.479   4.319
 8358TIP3   OH225014   0.526   5.457   6.016
 8358TIP3    H125015   0.603   5.513   6.006
 8358TIP3    H225016   0.493   5.478   6.104
 8359TIP3   OH225017   0.546   7.304   5.070
 8359TIP3    H125018   0.635   7.270   5.063
 8359TIP3    H225019   0.502   7.275   4.990
 8360TIP3   OH225020   6.455   4.186   1.596
 8360TIP3    H125021   6.424   4.172   1.506
 8360TIP3    H225022   6.393   4.247   1.634
 8361TIP3   OH225023   0.437   5.249   6.358
 8361TIP3    H125024   0.493   5.185   6.401
 8361TIP3    H225025   0.470   5.256   6.269
 8362TIP3   OH225026   6.459   0.225   5.810
 8362TIP3    H125027   6.541   0.203   5.766
 8362TIP3    H225028   6.469   0.189   5.898
 8363TIP3   OH225029   6.218   5.552   2.771
 8363TIP3    H125030   6.188   5.495   2.841
 8363TIP3    H225031   6.252   5.630   2.816
 8364TIP3   OH225032   5.893   2.339   2.961
 8364TIP3    H125033   5.870   2.401   3.031
 8364TIP3    H225034   5.861   2.255   2.992
 8365TIP3   OH225035   5.634   6.133   5.445
 8365TIP3    H125036   5.704   6.176   5.396
 8365TIP3    H225037   5.638   6.042   5.417
 8366TIP3   OH225038   1.939   3.246   4.128
 8366TIP3    H125039   1.843   3.240   4.126
 8366TIP3    H225040   1.956   3.329   4.174
 8367TIP3   OH225041   0.130   1.521   4.658
 8367TIP3    H125042   0.130   1.614   4.633
 8367TIP3    H225043   0.168   1.476   4.582
 8368TIP3   OH225044   7.126   6.537   1.649
 8368TIP3    H125045   7.115   6.625   1.612
 8368TIP3    H225046   7.093   6.478   1.581
 8369TIP3   OH225047   2.075   6.122   5.305
 8369TIP3    H125048   1.998   6.178   5.317
 8369TIP3    H225049   2.097   6.092   5.393
 8370TIP3   OH225050   3.492   3.977   3.548
 8370TIP3    H125051   3.413   4.029   3.565
 8370TIP3    H225052   3.497   3.917   3.623
 8371TIP3   OH225053   2.646   5.538   2.771
 8371TIP3    H125054   2.594   5.490   2.706
 8371TIP3    H225055   2.593   5.614   2.793
 8372TIP3   OH225056   6.068   7.501   6.846
 8372TIP3    H125057   6.108   7.565   6.905
 8372TIP3    H225058   6.103   7.523   6.760
 8373TIP3   OH225059   0.273   2.446   5.293
 8373TIP3    H125060   0.245   2.477   5.379
 8373TIP3    H225061   0.354   2.397   5.309
 8374TIP3   OH225062   3.551   4.074   1.427
 8374TIP3    H125063   3.611   4.041   1.360
 8374TIP3    H225064   3.468   4.088   1.380
 8375TIP3   OH225065   7.681   0.720   5.761
 8375TIP3    H125066   7.714   0.802   5.799
 8375TIP3    H225067   7.638   0.675   5.834
 8376TIP3   OH225068   2.783   5.339   6.469
 8376TIP3    H125069   2.816   5.427   6.452
 8376TIP3    H225070   2.829   5.310   6.547
 8377TIP3   OH225071   8.206   2.028   3.866
 8377TIP3    H125072   8.288   2.077   3.872
 8377TIP3    H225073   8.196   1.988   3.952
 8378TIP3   OH225074   3.514   7.664   0.693
 8378TIP3    H125075   3.584   7.675   0.629
 8378TIP3    H225076   3.500   7.751   0.729
 8379TIP3   OH225077   1.431   6.587   0.700
 8379TIP3    H125078   1.478   6.611   0.779
 8379TIP3    H225079   1.345   6.559   0.730
 8380TIP3   OH225080   6.253   3.651   4.527
 8380TIP3    H125081   6.317   3.632   4.459
 8380TIP3    H225082   6.222   3.565   4.555
 8381TIP3   OH225083   3.840   3.981   0.621
 8381TIP3    H125084   3.759   3.932   0.633
 8381TIP3    H225085   3.908   3.913   0.614
 8382TIP3   OH225086   1.157   3.964   0.241
 8382TIP3    H125087   1.095   3.978   0.169
 8382TIP3    H225088   1.118   4.009   0.315
 8383TIP3   OH225089   2.996   6.141   2.238
 8383TIP3    H125090   2.906   6.118   2.216
 8383TIP3    H225091   3.042   6.139   2.154
 8384TIP3   OH225092   1.919   6.807   5.512
 8384TIP3    H125093   1.857   6.746   5.553
 8384TIP3    H225094   1.943   6.765   5.429
 8385TIP3   OH225095   4.019   5.762   1.523
 8385TIP3    H125096   4.109   5.781   1.550
 8385TIP3    H225097   4.026   5.732   1.432
 8386TIP3   OH225098   3.993   2.494   3.157
 8386TIP3    H125099   4.032   2.448   3.082
 8386TIP3    H225100   3.993   2.429   3.227
 8387TIP3   OH225101   4.618   5.757   6.734
 8387TIP3    H125102   4.599   5.669   6.769
 8387TIP3    H225103   4.669   5.740   6.654
 8388TIP3   OH225104   8.192   6.998   2.172
 8388TIP3    H125105   8.249   7.005   2.249
 8388TIP3    H225106   8.197   6.906   2.147
 8389TIP3   OH225107   7.407   7.950   4.973
 8389TIP3    H125108   7.442   7.863   4.952
 8389TIP3    H225109   7.347   7.969   4.901
 8390TIP3   OH225110   2.363   5.448   2.786
 8390TIP3    H125111   2.286   5.505   2.788
 8390TIP3    H225112   2.341   5.379   2.725
 8391TIP3   OH225113   7.360   0.163   4.001
 8391TIP3    H125114   7.351   0.252   3.968
 8391TIP3    H225115   7.313   0.108   3.938
 8392TIP3   OH225116   2.713   2.716   6.218
 8392TIP3    H125117   2.786   2.773   6.192
 8392TIP3    H225118   2.747   2.627   6.210
 8393TIP3   OH225119   2.794   3.195   1.074
 8393TIP3    H125120   2.737   3.175   1.000
 8393TIP3    H225121   2.882   3.201   1.035
 8394TIP3   OH225122   7.514   7.744   0.668
 8394TIP3    H125123   7.474   7.815   0.618
 8394TIP3    H225124   7.440   7.692   0.699
 8395TIP3   OH225125   7.707   6.302   5.919
 8395TIP3    H125126   7.720   6.395   5.898
 8395TIP3    H225127   7.777   6.257   5.872
 8396TIP3   OH225128   0.700   7.457   4.651
 8396TIP3    H125129   0.663   7.425   4.568
 8396TIP3    H225130   0.791   7.477   4.630
 8397TIP3   OH225131   8.179   3.773   6.740
 8397TIP3    H125132   8.196   3.705   6.674
 8397TIP3    H225133   8.194   3.855   6.693
 8398TIP3   OH225134   3.535   4.294   1.612
 8398TIP3    H125135   3.444   4.317   1.593
 8398TIP3    H225136   3.561   4.236   1.541
 8399TIP3   OH225137   5.619   5.259   4.817
 8399TIP3    H125138   5.619   5.165   4.835
 8399TIP3    H225139   5.527   5.285   4.824
 8400TIP3   OH225140   6.433   3.142   3.790
 8400TIP3    H125141   6.461   3.051   3.780
 8400TIP3    H225142   6.428   3.175   3.700
 8401TIP3   OH225143   4.906   3.452   5.849
 8401TIP3    H125144   4.860   3.450   5.933
 8401TIP3    H225145   4.888   3.539   5.813
 8402TIP3   OH225146   6.553   2.324   5.810
 8402TIP3    H125147   6.460   2.316   5.830
 8402TIP3    H225148   6.597   2.289   5.888
 8403TIP3   OH225149   3.440   7.258   2.889
 8403TIP3    H125150   3.407   7.219   2.970
 8403TIP3    H225151   3.493   7.332   2.918
 8404TIP3   OH225152   4.430   6.446   3.734
 8404TIP3    H125153   4.372   6.372   3.718
 8404TIP3    H225154   4.517   6.413   3.714
 8405TIP3   OH225155   5.173   4.850   4.987
 8405TIP3    H125156   5.177   4.764   5.029
 8405TIP3    H225157   5.190   4.832   4.894
 8406TIP3   OH225158   0.279   6.922   5.680
 8406TIP3    H125159   0.354   6.980   5.685
 8406TIP3    H225160   0.297   6.853   5.744
 8407TIP3   OH225161   8.231   6.496   5.215
 8407TIP3    H125162   8.192   6.584   5.213
 8407TIP3    H225163   8.158   6.439   5.240
 8408TIP3   OH225164   1.756   5.044   6.634
 8408TIP3    H125165   1.819   5.106   6.670
 8408TIP3    H225166   1.789   4.958   6.660
 8409TIP3   OH225167   1.404   5.545   4.403
 8409TIP3    H125168   1.383   5.452   4.392
 8409TIP3    H225169   1.458   5.549   4.482
 8410TIP3   OH225170   4.304   1.903   0.970
 8410TIP3    H125171   4.390   1.875   1.003
 8410TIP3    H225172   4.302   1.997   0.986
 8411TIP3   OH225173   6.823   2.258   2.645
 8411TIP3    H125174   6.771   2.178   2.656
 8411TIP3    H225175   6.844   2.261   2.552
 8412TIP3   OH225176   6.201   0.216   6.801
 8412TIP3    H125177   6.112   0.248   6.816
 8412TIP3    H225178   6.224   0.167   6.880
 8413TIP3   OH225179   2.136   6.883   1.301
 8413TIP3    H125180   2.141   6.869   1.207
 8413TIP3    H225181   2.100   6.970   1.311
 8414TIP3   OH225182   4.279   5.947   0.352
 8414TIP3    H125183   4.202   6.002   0.367
 8414TIP3    H225184   4.332   5.996   0.290
 8415TIP3   OH225185   0.749   5.109   5.105
 8415TIP3    H125186   0.807   5.151   5.167
 8415TIP3    H225187   0.789   5.023   5.088
 8416TIP3   OH225188   2.205   1.001   6.451
 8416TIP3    H125189   2.163   0.994   6.537
 8416TIP3    H225190   2.274   0.935   6.452
 8417TIP3   OH225191   7.549   7.684   3.297
 8417TIP3    H125192   7.577   7.775   3.310
 8417TIP3    H225193   7.496   7.664   3.374
 8418TIP3   OH225194   3.618   4.415   0.215
 8418TIP3    H125195   3.535   4.401   0.170
 8418TIP3    H225196   3.677   4.351   0.177
 8419TIP3   OH225197   2.182   2.415   2.538
 8419TIP3    H125198   2.192   2.340   2.596
 8419TIP3    H225199   2.112   2.390   2.477
 8420TIP3   OH225200   4.048   6.536   3.685
 8420TIP3    H125201   4.093   6.454   3.669
 8420TIP3    H225202   4.113   6.604   3.665
 8421TIP3   OH225203   3.662   6.290   2.016
 8421TIP3    H125204   3.615   6.206   2.012
 8421TIP3    H225205   3.730   6.282   1.950
 8422TIP3   OH225206  -0.003   4.246   2.409
 8422TIP3    H125207   0.035   4.299   2.480
 8422TIP3    H225208   0.047   4.164   2.412
 8423TIP3   OH225209   4.663   1.103   1.735
 8423TIP3    H125210   4.619   1.188   1.732
 8423TIP3    H225211   4.594   1.040   1.715
 8424TIP3   OH225212   1.251   6.265   2.508
 8424TIP3    H125213   1.202   6.231   2.433
 8424TIP3    H225214   1.264   6.189   2.565
 8425TIP3   OH225215   3.616   5.654   2.363
 8425TIP3    H125216   3.702   5.641   2.403
 8425TIP3    H225217   3.586   5.737   2.400
 8426TIP3   OH225218   6.171   7.448   0.449
 8426TIP3    H125219   6.176   7.437   0.544
 8426TIP3    H225220   6.260   7.428   0.419
 8427TIP3   OH225221   3.592   0.736   2.841
 8427TIP3    H125222   3.504   0.773   2.836
 8427TIP3    H225223   3.590   0.679   2.918
 8428TIP3   OH225224   1.033   1.966   1.063
 8428TIP3    H125225   0.987   1.996   1.141
 8428TIP3    H225226   0.971   1.979   0.992
 8429TIP3   OH225227   4.706   6.149   2.774
 8429TIP3    H125228   4.710   6.148   2.869
 8429TIP3    H225229   4.684   6.059   2.750
 8430TIP3   OH225230   8.177   5.842   1.849
 8430TIP3    H125231   8.140   5.902   1.784
 8430TIP3    H225232   8.234   5.898   1.903
 8431TIP3   OH225233   6.564   4.713   2.604
 8431TIP3    H125234   6.600   4.625   2.606
 8431TIP3    H225235   6.479   4.705   2.648
 8432TIP3   OH225236   8.082   5.398   6.091
 8432TIP3    H125237   8.110   5.316   6.133
 8432TIP3    H225238   8.004   5.424   6.140
 8433TIP3   OH225239   1.058   4.970   6.061
 8433TIP3    H125240   1.086   4.996   6.149
 8433TIP3    H225241   1.098   4.885   6.047
 8434TIP3   OH225242   7.441   3.223   5.203
 8434TIP3    H125243   7.384   3.249   5.130
 8434TIP3    H225244   7.491   3.148   5.169
 8435TIP3   OH225245   3.054   1.255   5.547
 8435TIP3    H125246   3.060   1.345   5.515
 8435TIP3    H225247   3.076   1.260   5.640
 8436TIP3   OH225248   4.426   5.575   5.477
 8436TIP3    H125249   4.448   5.485   5.504
 8436TIP3    H225250   4.367   5.606   5.546
 8437TIP3   OH225251   7.550   0.822   1.123
 8437TIP3    H125252   7.560   0.849   1.214
 8437TIP3    H225253   7.639   0.806   1.092
 8438TIP3   OH225254   0.912   2.042   1.282
 8438TIP3    H125255   0.953   2.112   1.332
 8438TIP3    H225256   0.938   1.961   1.326
 8439TIP3   OH225257   7.898   6.990   6.733
 8439TIP3    H125258   7.905   6.896   6.715
 8439TIP3    H225259   7.958   7.005   6.805
 8440TIP3   OH225260   5.158   5.073   0.821
 8440TIP3    H125261   5.117   4.993   0.788
 8440TIP3    H225262   5.127   5.142   0.763
 8441TIP3   OH225263   5.359   3.314   2.529
 8441TIP3    H125264   5.339   3.274   2.444
 8441TIP3    H225265   5.389   3.402   2.507
 8442TIP3   OH225266   5.460   6.179   4.722
 8442TIP3    H125267   5.440   6.244   4.654
 8442TIP3    H225268   5.399   6.200   4.793
 8443TIP3   OH225269   7.343   2.094   5.392
 8443TIP3    H125270   7.289   2.027   5.351
 8443TIP3    H225271   7.433   2.065   5.377
 8444TIP3   OH225272   3.475   4.847   1.593
 8444TIP3    H125273   3.515   4.764   1.569
 8444TIP3    H225274   3.527   4.878   1.667
 8445TIP3   OH225275   7.285   3.734   5.190
 8445TIP3    H125276   7.233   3.668   5.235
 8445TIP3    H225277   7.238   3.816   5.206
 8446TIP3   OH225278   3.444   0.585   1.767
 8446TIP3    H125279   3.456   0.491   1.754
 8446TIP3    H225280   3.524   0.614   1.810
 8447TIP3   OH225281   1.882   3.445   4.932
 8447TIP3    H125282   1.898   3.358   4.970
 8447TIP3    H225283   1.967   3.471   4.896
 8448TIP3   OH225284   1.817   1.398   6.246
 8448TIP3    H125285   1.731   1.365   6.221
 8448TIP3    H225286   1.878   1.351   6.189
 8449TIP3   OH225287   1.077   3.299   4.108
 8449TIP3    H125288   1.093   3.326   4.017
 8449TIP3    H225289   1.144   3.345   4.159
 8450TIP3   OH225290   5.084   2.240   2.996
 8450TIP3    H125291   5.062   2.153   2.964
 8450TIP3    H225292   5.052   2.241   3.086
 8451TIP3   OH225293   7.640   6.438   0.539
 8451TIP3    H125294   7.721   6.387   0.539
 8451TIP3    H225295   7.571   6.374   0.523
 8452TIP3   OH225296   4.938   4.661   3.648
 8452TIP3    H125297   4.949   4.642   3.742
 8452TIP3    H225298   4.956   4.754   3.640
 8453TIP3   OH225299   5.200   5.968   0.231
 8453TIP3    H125300   5.108   5.959   0.256
 8453TIP3    H225301   5.245   5.985   0.314
 8454TIP3   OH225302   4.642   7.394   1.375
 8454TIP3    H125303   4.594   7.456   1.320
 8454TIP3    H225304   4.704   7.351   1.316
 8455TIP3   OH225305   3.773   3.548   4.590
 8455TIP3    H125306   3.810   3.461   4.577
 8455TIP3    H225307   3.722   3.565   4.510
 8456TIP3   OH225308   4.446   6.953   6.365
 8456TIP3    H125309   4.457   7.045   6.340
 8456TIP3    H225310   4.405   6.956   6.451
 8457TIP3   OH225311   6.325   4.321   4.097
 8457TIP3    H125312   6.230   4.331   4.088
 8457TIP3    H225313   6.348   4.375   4.173
 8458TIP3   OH225314   7.565   5.528   2.644
 8458TIP3    H125315   7.614   5.561   2.720
 8458TIP3    H225316   7.481   5.573   2.649
 8459TIP3   OH225317   0.256   1.126   0.788
 8459TIP3    H125318   0.190   1.063   0.818
 8459TIP3    H225319   0.237   1.205   0.838
 8460TIP3   OH225320   4.998   0.693   1.504
 8460TIP3    H125321   4.961   0.645   1.578
 8460TIP3    H225322   5.056   0.757   1.545
 8461TIP3   OH225323   6.243   6.489   6.685
 8461TIP3    H125324   6.253   6.492   6.780
 8461TIP3    H225325   6.205   6.403   6.667
 8462TIP3   OH225326   0.847   5.438   6.807
 8462TIP3    H125327   0.908   5.413   6.738
 8462TIP3    H225328   0.777   5.373   6.802
 8463TIP3   OH225329   3.419   4.534   0.661
 8463TIP3    H125330   3.353   4.565   0.600
 8463TIP3    H225331   3.379   4.543   0.747
 8464TIP3   OH225332   3.663   6.275   4.302
 8464TIP3    H125333   3.594   6.259   4.367
 8464TIP3    H225334   3.616   6.290   4.220
 8465TIP3   OH225335   5.313   6.218   6.752
 8465TIP3    H125336   5.219   6.199   6.751
 8465TIP3    H225337   5.318   6.313   6.756
 8466TIP3   OH225338   1.544   2.389   3.236
 8466TIP3    H125339   1.470   2.352   3.188
 8466TIP3    H225340   1.600   2.427   3.169
 8467TIP3   OH225341   3.238   6.883   3.301
 8467TIP3    H125342   3.184   6.961   3.293
 8467TIP3    H225343   3.196   6.831   3.369
 8468TIP3   OH225344   2.114   7.301   2.284
 8468TIP3    H125345   2.171   7.231   2.250
 8468TIP3    H225346   2.048   7.312   2.216
 8469TIP3   OH225347   5.322   5.783   3.885
 8469TIP3    H125348   5.405   5.776   3.932
 8469TIP3    H225349   5.316   5.875   3.861
 8470TIP3   OH225350   6.595   7.367   2.877
 8470TIP3    H125351   6.526   7.321   2.927
 8470TIP3    H225352   6.552   7.446   2.845
 8471TIP3   OH225353   4.916   2.782   6.176
 8471TIP3    H125354   4.996   2.731   6.159
 8471TIP3    H225355   4.868   2.779   6.093
 8472TIP3   OH225356   4.378   1.201   4.828
 8472TIP3    H125357   4.352   1.280   4.875
 8472TIP3    H225358   4.469   1.187   4.853
 8473TIP3   OH225359   1.211   6.420   5.063
 8473TIP3    H125360   1.176   6.410   4.974
 8473TIP3    H225361   1.243   6.333   5.086
 8474TIP3   OH225362   7.295   1.310   2.926
 8474TIP3    H125363   7.258   1.297   2.839
 8474TIP3    H225364   7.300   1.405   2.937
 8475TIP3   OH225365   3.718   1.842   0.578
 8475TIP3    H125366   3.768   1.919   0.552
 8475TIP3    H225367   3.708   1.791   0.497
 8476TIP3   OH225368   8.088   0.519   6.673
 8476TIP3    H125369   8.125   0.548   6.757
 8476TIP3    H225370   8.050   0.598   6.636
 8477TIP3   OH225371   6.315   6.070   5.302
 8477TIP3    H125372   6.324   6.091   5.209
 8477TIP3    H225373   6.370   6.134   5.347
 8478TIP3   OH225374   4.842   6.815   0.254
 8478TIP3    H125375   4.902   6.779   0.188
 8478TIP3    H225376   4.882   6.898   0.280
 8479TIP3   OH225377   7.404   6.764   2.700
 8479TIP3    H125378   7.499   6.776   2.688
 8479TIP3    H225379   7.380   6.829   2.765
 8480TIP3   OH225380   0.102   5.692   0.876
 8480TIP3    H125381   0.138   5.633   0.810
 8480TIP3    H225382   0.161   5.767   0.876
 8481TIP3   OH225383   6.935   3.093   6.624
 8481TIP3    H125384   6.985   3.016   6.650
 8481TIP3    H225385   6.847   3.079   6.658
 8482TIP3   OH225386   0.280   0.508   5.710
 8482TIP3    H125387   0.206   0.508   5.771
 8482TIP3    H225388   0.239   0.509   5.623
 8483TIP3   OH225389   1.316   1.582   3.188
 8483TIP3    H125390   1.227   1.550   3.172
 8483TIP3    H225391   1.356   1.587   3.101
 8484TIP3   OH225392   6.436   0.692   2.793
 8484TIP3    H125393   6.441   0.778   2.751
 8484TIP3    H225394   6.475   0.706   2.879
 8485TIP3   OH225395   2.458   1.155   6.659
 8485TIP3    H125396   2.492   1.070   6.633
 8485TIP3    H225397   2.416   1.140   6.744
 8486TIP3   OH225398   2.788   1.697   2.354
 8486TIP3    H125399   2.876   1.733   2.348
 8486TIP3    H225400   2.792   1.615   2.305
 8487TIP3   OH225401   6.392   3.586   2.360
 8487TIP3    H125402   6.427   3.530   2.429
 8487TIP3    H225403   6.303   3.553   2.344
 8488TIP3   OH225404   4.918   7.171   2.672
 8488TIP3    H125405   4.944   7.088   2.713
 8488TIP3    H225406   4.824   7.162   2.656
 8489TIP3   OH225407   4.444   0.564   4.733
 8489TIP3    H125408   4.358   0.606   4.743
 8489TIP3    H225409   4.435   0.510   4.654
 8490TIP3   OH225410   0.192   1.877   3.658
 8490TIP3    H125411   0.106   1.849   3.626
 8490TIP3    H225412   0.208   1.822   3.735
 8491TIP3   OH225413   5.962   0.826   0.902
 8491TIP3    H125414   5.916   0.783   0.830
 8491TIP3    H225415   5.969   0.918   0.874
 8492TIP3   OH225416   4.199   1.436   4.536
 8492TIP3    H125417   4.108   1.411   4.553
 8492TIP3    H225418   4.196   1.485   4.454
 8493TIP3   OH225419   7.877   1.622   6.163
 8493TIP3    H125420   7.783   1.636   6.164
 8493TIP3    H225421   7.914   1.705   6.131
 8494TIP3   OH225422   6.215   5.142   1.840
 8494TIP3    H125423   6.200   5.123   1.933
 8494TIP3    H225424   6.153   5.212   1.820
 8495TIP3   OH225425   0.535   7.071   0.968
 8495TIP3    H125426   0.569   6.986   0.940
 8495TIP3    H225427   0.540   7.126   0.890
 8496TIP3   OH225428   3.361   3.935   0.358
 8496TIP3    H125429   3.312   3.887   0.424
 8496TIP3    H225430   3.320   3.911   0.275
 8497TIP3   OH225431   1.346   1.715   0.321
 8497TIP3    H125432   1.331   1.803   0.356
 8497TIP3    H225433   1.343   1.726   0.226
 8498TIP3   OH225434   3.287   1.562   6.407
 8498TIP3    H125435   3.239   1.480   6.394
 8498TIP3    H225436   3.300   1.568   6.502
 8499TIP3   OH225437   7.084   2.547   3.921
 8499TIP3    H125438   6.997   2.558   3.961
 8499TIP3    H225439   7.133   2.495   3.984
 8500TIP3   OH225440   3.118   0.199   2.254
 8500TIP3    H125441   3.038   0.197   2.305
 8500TIP3    H225442   3.092   0.235   2.169
 8501TIP3   OH225443   2.432   4.877   6.482
 8501TIP3    H125444   2.503   4.935   6.511
 8501TIP3    H225445   2.420   4.898   6.390
 8502TIP3   OH225446   1.532   3.698   4.736
 8502TIP3    H125447   1.609   3.754   4.748
 8502TIP3    H225448   1.550   3.622   4.791
 8503TIP3   OH225449   7.826   1.137   3.752
 8503TIP3    H125450   7.758   1.091   3.802
 8503TIP3    H225451   7.890   1.163   3.817
 8504TIP3   OH225452   7.902   1.362   6.199
 8504TIP3    H125453   7.886   1.456   6.198
 8504TIP3    H225454   7.822   1.323   6.164
 8505TIP3   OH225455   4.767   5.663   2.871
 8505TIP3    H125456   4.833   5.599   2.844
 8505TIP3    H225457   4.773   5.665   2.966
 8506TIP3   OH225458   6.466   6.651   2.759
 8506TIP3    H125459   6.512   6.589   2.702
 8506TIP3    H225460   6.536   6.698   2.804
 8507TIP3   OH225461   4.561   7.874   6.600
 8507TIP3    H125462   4.623   7.851   6.531
 8507TIP3    H225463   4.493   7.924   6.556
 8508TIP3   OH225464   3.350   0.005   0.980
 8508TIP3    H125465   3.322   0.096   0.970
 8508TIP3    H225466   3.340  -0.013   1.074
 8509TIP3   OH225467   1.407   5.271   4.440
 8509TIP3    H125468   1.485   5.266   4.384
 8509TIP3    H225469   1.425   5.211   4.512
 8510TIP3   OH225470   4.243   7.854   4.348
 8510TIP3    H125471   4.297   7.822   4.420
 8510TIP3    H225472   4.182   7.915   4.389
 8511TIP3   OH225473   5.983   4.614   1.245
 8511TIP3    H125474   5.945   4.597   1.331
 8511TIP3    H225475   6.077   4.603   1.258
 8512TIP3   OH225476   4.383   5.012   5.939
 8512TIP3    H125477   4.303   5.061   5.923
 8512TIP3    H225478   4.356   4.939   5.996
 8513TIP3   OH225479   6.574   7.555   1.668
 8513TIP3    H125480   6.598   7.638   1.629
 8513TIP3    H225481   6.479   7.560   1.680
 8514TIP3   OH225482   5.878   4.026   3.685
 8514TIP3    H125483   5.915   4.083   3.752
 8514TIP3    H225484   5.792   4.003   3.719
 8515TIP3   OH225485   6.359   4.108   4.763
 8515TIP3    H125486   6.337   4.201   4.765
 8515TIP3    H225487   6.450   4.104   4.791
 8516TIP3   OH225488   3.890   6.033   1.506
 8516TIP3    H125489   3.916   5.942   1.491
 8516TIP3    H225490   3.928   6.054   1.591
 8517TIP3   OH225491   3.729   4.628   0.723
 8517TIP3    H125492   3.718   4.721   0.745
 8517TIP3    H225493   3.643   4.590   0.738
 8518TIP3   OH225494   8.037   5.306   1.572
 8518TIP3    H125495   8.095   5.361   1.626
 8518TIP3    H225496   8.091   5.231   1.548
 8519TIP3   OH225497   1.620   6.391   3.656
 8519TIP3    H125498   1.566   6.392   3.735
 8519TIP3    H225499   1.557   6.390   3.584
 8520TIP3   OH225500   4.834   7.495   2.606
 8520TIP3    H125501   4.858   7.453   2.688
 8520TIP3    H225502   4.835   7.588   2.625
 8521TIP3   OH225503   2.416   7.869   4.647
 8521TIP3    H125504   2.498   7.918   4.653
 8521TIP3    H225505   2.381   7.872   4.736
 8522TIP3   OH225506   1.198   6.837   1.240
 8522TIP3    H125507   1.192   6.749   1.277
 8522TIP3    H225508   1.107   6.866   1.232
 8523TIP3   OH225509   2.522   1.428   6.633
 8523TIP3    H125510   2.570   1.420   6.551
 8523TIP3    H225511   2.506   1.337   6.660
 8524TIP3   OH225512   0.308   1.565   5.100
 8524TIP3    H125513   0.316   1.487   5.046
 8524TIP3    H225514   0.282   1.634   5.039
 8525TIP3   OH225515   7.295   6.254   3.399
 8525TIP3    H125516   7.212   6.267   3.351
 8525TIP3    H225517   7.334   6.177   3.357
 8526TIP3   OH225518   0.871   0.939   0.915
 8526TIP3    H125519   0.906   0.969   1.000
 8526TIP3    H225520   0.867   1.018   0.862
 8527TIP3   OH225521   6.074   1.281   4.049
 8527TIP3    H125522   6.013   1.339   4.093
 8527TIP3    H225523   6.161   1.311   4.078
 8528TIP3   OH225524   7.577   1.587   4.882
 8528TIP3    H125525   7.525   1.667   4.873
 8528TIP3    H225526   7.591   1.558   4.792
 8529TIP3   OH225527   3.535   2.333   4.906
 8529TIP3    H125528   3.604   2.383   4.863
 8529TIP3    H225529   3.580   2.255   4.940
 8530TIP3   OH225530   6.036   5.093   4.888
 8530TIP3    H125531   5.983   5.036   4.832
 8530TIP3    H225532   6.054   5.169   4.834
 8531TIP3   OH225533   4.860   2.767   0.808
 8531TIP3    H125534   4.769   2.742   0.791
 8531TIP3    H225535   4.902   2.685   0.834
 8532TIP3   OH225536   7.836   0.171   1.923
 8532TIP3    H125537   7.848   0.266   1.935
 8532TIP3    H225538   7.775   0.164   1.850
 8533TIP3   OH225539   7.600   1.264   3.518
 8533TIP3    H125540   7.554   1.188   3.482
 8533TIP3    H225541   7.530   1.324   3.545
 8534TIP3   OH225542   4.644   1.796   6.064
 8534TIP3    H125543   4.705   1.816   6.135
 8534TIP3    H225544   4.561   1.834   6.093
 8535TIP3   OH225545   5.390   5.343   6.270
 8535TIP3    H125546   5.442   5.387   6.203
 8535TIP3    H225547   5.301   5.376   6.257
 8536TIP3   OH225548   3.814   1.881   3.309
 8536TIP3    H125549   3.780   1.959   3.266
 8536TIP3    H225550   3.905   1.902   3.329
 8537TIP3   OH225551   1.847   6.979   1.010
 8537TIP3    H125552   1.768   6.925   1.009
 8537TIP3    H225553   1.910   6.929   1.060
 8538TIP3   OH225554   3.371   1.922   0.974
 8538TIP3    H125555   3.390   1.890   0.885
 8538TIP3    H225556   3.354   2.015   0.963
 8539TIP3   OH225557   1.772   6.233   4.216
 8539TIP3    H125558   1.748   6.317   4.178
 8539TIP3    H225559   1.689   6.193   4.241
 8540TIP3   OH225560   1.400   7.535   2.614
 8540TIP3    H125561   1.463   7.480   2.567
 8540TIP3    H225562   1.435   7.539   2.704
 8541TIP3   OH225563   3.648   5.036   3.231
 8541TIP3    H125564   3.614   5.091   3.160
 8541TIP3    H225565   3.598   5.063   3.308
 8542TIP3   OH225566   5.066   1.747   2.665
 8542TIP3    H125567   5.141   1.701   2.628
 8542TIP3    H225568   4.993   1.724   2.608
 8543TIP3   OH225569   6.717   5.285   4.322
 8543TIP3    H125570   6.718   5.380   4.331
 8543TIP3    H225571   6.628   5.260   4.347
 8544TIP3   OH225572   3.592   1.423   5.884
 8544TIP3    H125573   3.629   1.343   5.921
 8544TIP3    H225574   3.616   1.420   5.791
 8545TIP3   OH225575   6.501   1.777   4.044
 8545TIP3    H125576   6.451   1.839   4.096
 8545TIP3    H225577   6.436   1.727   3.995
 8546TIP3   OH225578   2.847   6.116   4.545
 8546TIP3    H125579   2.935   6.154   4.550
 8546TIP3    H225580   2.841   6.059   4.622
 8547TIP3   OH225581   1.408   0.951   0.535
 8547TIP3    H125582   1.396   1.046   0.537
 8547TIP3    H225583   1.473   0.934   0.603
 8548TIP3   OH225584   2.019   3.433   2.288
 8548TIP3    H125585   2.056   3.346   2.269
 8548TIP3    H225586   2.061   3.459   2.370
 8549TIP3   OH225587   2.423   7.648   5.876
 8549TIP3    H125588   2.428   7.554   5.890
 8549TIP3    H225589   2.386   7.658   5.789
 8550TIP3   OH225590   0.651   6.969   5.168
 8550TIP3    H125591   0.677   7.022   5.243
 8550TIP3    H225592   0.733   6.951   5.122
 8551TIP3   OH225593   2.203   5.408   0.769
 8551TIP3    H125594   2.215   5.469   0.696
 8551TIP3    H225595   2.290   5.373   0.786
 8552TIP3   OH225596   5.691   1.685   4.618
 8552TIP3    H125597   5.698   1.714   4.527
 8552TIP3    H225598   5.633   1.609   4.614
 8553TIP3   OH225599   7.985   1.785   0.194
 8553TIP3    H125600   7.990   1.765   0.287
 8553TIP3    H225601   7.894   1.765   0.170
 8554TIP3   OH225602   1.084   2.774   0.406
 8554TIP3    H125603   1.174   2.807   0.403
 8554TIP3    H225604   1.046   2.814   0.484
 8555TIP3   OH225605   7.473   4.980   6.715
 8555TIP3    H125606   7.415   5.056   6.724
 8555TIP3    H225607   7.454   4.926   6.792
 8556TIP3   OH225608   2.614   1.901   2.357
 8556TIP3    H125609   2.671   1.824   2.357
 8556TIP3    H225610   2.653   1.961   2.420
 8557TIP3   OH225611   7.359   2.600   3.847
 8557TIP3    H125612   7.269   2.631   3.837
 8557TIP3    H225613   7.359   2.513   3.806
 8558TIP3   OH225614   4.999   7.857   4.103
 8558TIP3    H125615   5.038   7.785   4.053
 8558TIP3    H225616   4.908   7.829   4.116
 8559TIP3   OH225617   6.614   0.181   5.445
 8559TIP3    H125618   6.532   0.227   5.464
 8559TIP3    H225619   6.637   0.139   5.528
 8560TIP3   OH225620   7.111   2.991   1.001
 8560TIP3    H125621   7.138   3.082   0.992
 8560TIP3    H225622   7.188   2.940   0.976
 8561TIP3   OH225623   4.697   1.790   4.592
 8561TIP3    H125624   4.673   1.719   4.532
 8561TIP3    H225625   4.778   1.826   4.556
 8562TIP3   OH225626   3.005   2.246   4.298
 8562TIP3    H125627   2.941   2.289   4.355
 8562TIP3    H225628   3.019   2.309   4.227
 8563TIP3   OH225629   7.899   0.012   2.375
 8563TIP3    H125630   7.932  -0.001   2.464
 8563TIP3    H225631   7.848   0.093   2.380
 8564TIP3   OH225632   6.233   5.986   5.586
 8564TIP3    H125633   6.251   6.008   5.494
 8564TIP3    H225634   6.312   6.013   5.633
 8565TIP3   OH225635   5.981   1.786   4.424
 8565TIP3    H125636   5.941   1.804   4.509
 8565TIP3    H225637   6.060   1.840   4.423
 8566TIP3   OH225638   6.175   5.030   3.746
 8566TIP3    H125639   6.175   5.000   3.837
 8566TIP3    H225640   6.223   5.112   3.748
 8567TIP3   OH225641   1.708   1.414   2.894
 8567TIP3    H125642   1.688   1.327   2.859
 8567TIP3    H225643   1.727   1.467   2.817
 8568TIP3   OH225644   0.696   1.938   3.752
 8568TIP3    H125645   0.677   2.029   3.732
 8568TIP3    H225646   0.636   1.888   3.696
 8569TIP3   OH225647   7.911   4.274   4.369
 8569TIP3    H125648   7.965   4.196   4.359
 8569TIP3    H225649   7.895   4.282   4.463
 8570TIP3   OH225650   2.628   3.877   4.020
 8570TIP3    H125651   2.632   3.781   4.027
 8570TIP3    H225652   2.624   3.894   3.926
 8571TIP3   OH225653   0.724   6.129   6.113
 8571TIP3    H125654   0.783   6.133   6.037
 8571TIP3    H225655   0.759   6.194   6.174
 8572TIP3   OH225656   5.418   1.279   1.061
 8572TIP3    H125657   5.454   1.354   1.013
 8572TIP3    H225658   5.407   1.311   1.151
 8573TIP3   OH225659   5.321   4.203   4.969
 8573TIP3    H125660   5.357   4.251   5.043
 8573TIP3    H225661   5.340   4.259   4.893
 8574TIP3   OH225662   5.381   2.125   5.581
 8574TIP3    H125663   5.472   2.133   5.554
 8574TIP3    H225664   5.345   2.057   5.524
 8575TIP3   OH225665   5.729   7.521   1.019
 8575TIP3    H125666   5.634   7.520   1.007
 8575TIP3    H225667   5.763   7.544   0.933
 8576TIP3   OH225668   6.152   1.297   3.386
 8576TIP3    H125669   6.223   1.361   3.374
 8576TIP3    H225670   6.173   1.226   3.324
 8577TIP3   OH225671   5.571   0.905   4.346
 8577TIP3    H125672   5.478   0.922   4.357
 8577TIP3    H225673   5.597   0.958   4.271
 8578TIP3   OH225674   3.105   5.801   2.150
 8578TIP3    H125675   3.039   5.769   2.211
 8578TIP3    H225676   3.083   5.759   2.066
 8579TIP3   OH225677   5.279   3.446   3.268
 8579TIP3    H125678   5.293   3.529   3.314
 8579TIP3    H225679   5.328   3.382   3.320
 8580TIP3   OH225680   0.918   3.605   4.020
 8580TIP3    H125681   0.990   3.552   3.987
 8580TIP3    H225682   0.842   3.579   3.968
 8581TIP3   OH225683   6.930   7.353   1.613
 8581TIP3    H125684   6.892   7.352   1.701
 8581TIP3    H225685   6.927   7.261   1.586
 8582TIP3   OH225686   5.757   6.905   0.864
 8582TIP3    H125687   5.710   6.947   0.791
 8582TIP3    H225688   5.791   6.823   0.826
 8583TIP3   OH225689   3.659   3.417   0.708
 8583TIP3    H125690   3.665   3.512   0.714
 8583TIP3    H225691   3.720   3.394   0.637
 8584TIP3   OH225692   6.005   0.871   1.360
 8584TIP3    H125693   6.030   0.915   1.278
 8584TIP3    H225694   5.936   0.926   1.396
 8585TIP3   OH225695   7.183   1.019   4.648
 8585TIP3    H125696   7.177   1.110   4.679
 8585TIP3    H225697   7.277   1.003   4.640
 8586TIP3   OH225698   7.608   5.105   6.340
 8586TIP3    H125699   7.636   5.135   6.427
 8586TIP3    H225700   7.579   5.185   6.295
 8587TIP3   OH225701   2.979   5.963   5.222
 8587TIP3    H125702   3.012   6.016   5.295
 8587TIP3    H225703   2.943   6.027   5.160
 8588TIP3   OH225704   0.164   7.192   5.500
 8588TIP3    H125705   0.145   7.098   5.506
 8588TIP3    H225706   0.231   7.198   5.432
 8589TIP3   OH225707   7.462   2.653   1.682
 8589TIP3    H125708   7.464   2.566   1.722
 8589TIP3    H225709   7.380   2.655   1.632
 8590TIP3   OH225710   0.099   6.373   0.762
 8590TIP3    H125711   0.004   6.376   0.755
 8590TIP3    H225712   0.117   6.347   0.852
 8591TIP3   OH225713   7.245   7.765   3.528
 8591TIP3    H125714   7.202   7.744   3.445
 8591TIP3    H225715   7.317   7.703   3.534
 8592TIP3   OH225716   1.696   2.806   0.192
 8592TIP3    H125717   1.686   2.758   0.109
 8592TIP3    H225718   1.734   2.742   0.252
 8593TIP3   OH225719   0.611   0.184   4.580
 8593TIP3    H125720   0.638   0.210   4.668
 8593TIP3    H225721   0.547   0.251   4.554
 8594TIP3   OH225722   6.513   0.282   2.877
 8594TIP3    H125723   6.468   0.356   2.836
 8594TIP3    H225724   6.582   0.322   2.930
 8595TIP3   OH225725   3.971   7.566   0.614
 8595TIP3    H125726   4.028   7.603   0.681
 8595TIP3    H225727   3.892   7.539   0.661
 8596TIP3   OH225728   0.484   1.634   5.287
 8596TIP3    H125729   0.432   1.619   5.208
 8596TIP3    H225730   0.571   1.656   5.255
 8597TIP3   OH225731   4.566   0.630   3.680
 8597TIP3    H125732   4.648   0.582   3.686
 8597TIP3    H225733   4.534   0.635   3.770
 8598TIP3   OH225734   3.707   1.609   4.935
 8598TIP3    H125735   3.789   1.633   4.891
 8598TIP3    H225736   3.693   1.679   4.998
 8599TIP3   OH225737   7.785   3.152   1.486
 8599TIP3    H125738   7.812   3.126   1.574
 8599TIP3    H225739   7.724   3.224   1.500
 8600TIP3   OH225740   2.318   2.406   4.907
 8600TIP3    H125741   2.291   2.496   4.890
 8600TIP3    H225742   2.399   2.395   4.858
 8601TIP3   OH225743   1.613   7.590   2.093
 8601TIP3    H125744   1.633   7.615   2.003
 8601TIP3    H225745   1.545   7.523   2.085
 8602TIP3   OH225746   5.828   1.177   2.204
 8602TIP3    H125747   5.920   1.197   2.188
 8602TIP3    H225748   5.815   1.090   2.167
 8603TIP3   OH225749   3.099   1.176   1.440
 8603TIP3    H125750   3.178   1.219   1.406
 8603TIP3    H225751   3.027   1.223   1.398
 8604TIP3   OH225752   3.693   5.078   5.738
 8604TIP3    H125753   3.680   5.016   5.811
 8604TIP3    H225754   3.702   5.022   5.661
 8605TIP3   OH225755   1.320   3.197   5.639
 8605TIP3    H125756   1.415   3.204   5.634
 8605TIP3    H225757   1.305   3.115   5.686
 8606TIP3   OH225758   4.126   2.237   1.414
 8606TIP3    H125759   4.205   2.285   1.388
 8606TIP3    H225760   4.080   2.221   1.332
 8607TIP3   OH225761   2.995   2.828   2.829
 8607TIP3    H125762   3.075   2.787   2.796
 8607TIP3    H225763   2.966   2.884   2.757
 8608TIP3   OH225764   3.252   0.843   6.851
 8608TIP3    H125765   3.320   0.842   6.783
 8608TIP3    H225766   3.170   0.831   6.802
 8609TIP3   OH225767   5.875   3.416   0.476
 8609TIP3    H125768   5.795   3.376   0.510
 8609TIP3    H225769   5.866   3.509   0.495
 8610TIP3   OH225770   3.913   0.797   2.610
 8610TIP3    H125771   4.006   0.821   2.604
 8610TIP3    H225772   3.913   0.716   2.661
 8611TIP3   OH225773   5.411   3.632   1.374
 8611TIP3    H125774   5.378   3.707   1.423
 8611TIP3    H225775   5.333   3.593   1.335
 8612TIP3   OH225776   1.330   3.396   4.189
 8612TIP3    H125777   1.356   3.477   4.144
 8612TIP3    H225778   1.345   3.414   4.282
 8613TIP3   OH225779   1.244   1.105   0.004
 8613TIP3    H125780   1.326   1.059   0.022
 8613TIP3    H225781   1.215   1.070  -0.081
 8614TIP3   OH225782   1.218   7.884   6.329
 8614TIP3    H125783   1.255   7.812   6.381
 8614TIP3    H225784   1.131   7.852   6.303
 8615TIP3   OH225785   3.099   0.325   2.801
 8615TIP3    H125786   3.026   0.386   2.800
 8615TIP3    H225787   3.177   0.380   2.812
 8616TIP3   OH225788   6.152   6.228   1.378
 8616TIP3    H125789   6.135   6.266   1.292
 8616TIP3    H225790   6.159   6.134   1.361
 8617TIP3   OH225791   7.273   0.608   6.812
 8617TIP3    H125792   7.258   0.591   6.905
 8617TIP3    H225793   7.185   0.627   6.777
 8618TIP3   OH225794   2.205   2.450   2.888
 8618TIP3    H125795   2.251   2.366   2.895
 8618TIP3    H225796   2.112   2.427   2.890
 8619TIP3   OH225797   1.097   6.850   4.844
 8619TIP3    H125798   1.052   6.934   4.834
 8619TIP3    H225799   1.121   6.825   4.754
 8620TIP3   OH225800   4.336   3.314   0.869
 8620TIP3    H125801   4.361   3.256   0.797
 8620TIP3    H225802   4.416   3.325   0.920
 8621TIP3   OH225803   2.828   7.874   5.822
 8621TIP3    H125804   2.803   7.963   5.799
 8621TIP3    H225805   2.783   7.857   5.905
 8622TIP3   OH225806   5.581   5.304   5.617
 8622TIP3    H125807   5.492   5.274   5.634
 8622TIP3    H225808   5.616   5.327   5.703
 8623TIP3   OH225809   7.699   4.787   4.243
 8623TIP3    H125810   7.791   4.798   4.218
 8623TIP3    H225811   7.686   4.849   4.315
 8624TIP3   OH225812   1.224   2.236   5.885
 8624TIP3    H125813   1.235   2.148   5.920
 8624TIP3    H225814   1.185   2.286   5.957
 8625TIP3   OH225815   1.431   0.156   2.982
 8625TIP3    H125816   1.414   0.114   3.066
 8625TIP3    H225817   1.345   0.188   2.953
 8626TIP3   OH225818   2.590   0.909   5.180
 8626TIP3    H125819   2.595   1.005   5.179
 8626TIP3    H225820   2.605   0.884   5.089
 8627TIP3   OH225821   6.706   3.369   6.053
 8627TIP3    H125822   6.718   3.369   6.148
 8627TIP3    H225823   6.730   3.457   6.026
 8628TIP3   OH225824   1.880   6.312   2.758
 8628TIP3    H125825   1.888   6.389   2.702
 8628TIP3    H225826   1.927   6.243   2.711
 8629TIP3   OH225827   3.003   0.820   6.702
 8629TIP3    H125828   2.986   0.764   6.778
 8629TIP3    H225829   2.916   0.846   6.671
 8630TIP3   OH225830   2.003   3.829   0.484
 8630TIP3    H125831   1.985   3.922   0.495
 8630TIP3    H225832   1.929   3.796   0.434
 8631TIP3   OH225833   0.083   5.423   2.437
 8631TIP3    H125834   0.082   5.416   2.342
 8631TIP3    H225835  -0.009   5.421   2.463
 8632TIP3   OH225836   7.454   7.151   5.452
 8632TIP3    H125837   7.446   7.148   5.548
 8632TIP3    H225838   7.393   7.219   5.425
 8633TIP3   OH225839   5.919   7.046   3.246
 8633TIP3    H125840   5.977   7.028   3.320
 8633TIP3    H225841   5.846   6.985   3.258
 8634TIP3   OH225842   4.716   5.352   3.664
 8634TIP3    H125843   4.654   5.424   3.659
 8634TIP3    H225844   4.681   5.295   3.733
 8635TIP3   OH225845   7.972   3.419   0.095
 8635TIP3    H125846   8.043   3.479   0.072
 8635TIP3    H225847   7.958   3.435   0.188
 8636TIP3   OH225848   8.128   4.054   5.784
 8636TIP3    H125849   8.071   4.065   5.708
 8636TIP3    H225850   8.212   4.091   5.757
 8637TIP3   OH225851   0.609   7.331   0.878
 8637TIP3    H125852   0.639   7.410   0.924
 8637TIP3    H225853   0.592   7.361   0.789
 8638TIP3   OH225854   7.412   1.049   1.767
 8638TIP3    H125855   7.495   1.017   1.802
 8638TIP3    H225856   7.431   1.137   1.734
 8639TIP3   OH225857   6.905   4.051   5.204
 8639TIP3    H125858   6.902   4.146   5.201
 8639TIP3    H225859   6.845   4.022   5.135
 8640TIP3   OH225860   1.029   7.168   0.853
 8640TIP3    H125861   0.951   7.178   0.908
 8640TIP3    H225862   1.082   7.246   0.872
 8641TIP3   OH225863   0.635   2.690   3.347
 8641TIP3    H125864   0.707   2.662   3.290
 8641TIP3    H225865   0.676   2.703   3.433
 8642TIP3   OH225866   0.065   0.476   0.654
 8642TIP3    H125867   0.125   0.408   0.624
 8642TIP3    H225868   0.111   0.558   0.636
 8643TIP3   OH225869   2.849   2.351   2.818
 8643TIP3    H125870   2.929   2.386   2.778
 8643TIP3    H225871   2.857   2.375   2.911
 8644TIP3   OH225872   3.227   2.556   3.374
 8644TIP3    H125873   3.273   2.630   3.335
 8644TIP3    H225874   3.297   2.498   3.405
 8645TIP3   OH225875   2.281   2.183   2.861
 8645TIP3    H125876   2.279   2.170   2.766
 8645TIP3    H225877   2.247   2.100   2.896
 8646TIP3   OH225878   6.277   3.256   1.784
 8646TIP3    H125879   6.319   3.337   1.754
 8646TIP3    H225880   6.221   3.229   1.712
 8647TIP3   OH225881   4.302   4.509   5.234
 8647TIP3    H125882   4.212   4.516   5.201
 8647TIP3    H225883   4.334   4.426   5.199
 8648TIP3   OH225884   5.715   5.826   4.341
 8648TIP3    H125885   5.678   5.871   4.417
 8648TIP3    H225886   5.792   5.878   4.317
 8649TIP3   OH225887   7.451   6.129   1.375
 8649TIP3    H125888   7.498   6.138   1.292
 8649TIP3    H225889   7.461   6.036   1.397
 8650TIP3   OH225890   6.412   5.822   2.621
 8650TIP3    H125891   6.458   5.857   2.545
 8650TIP3    H225892   6.415   5.892   2.686
 8651TIP3   OH225893   3.106   2.158   1.433
 8651TIP3    H125894   3.042   2.088   1.426
 8651TIP3    H225895   3.160   2.150   1.354
 8652TIP3   OH225896   8.313   1.743   5.638
 8652TIP3    H125897   8.372   1.736   5.563
 8652TIP3    H225898   8.234   1.697   5.611
 8653TIP3   OH225899   1.178   3.054   5.370
 8653TIP3    H125900   1.120   2.981   5.388
 8653TIP3    H225901   1.265   3.015   5.366
 8654TIP3   OH225902   5.410   2.620   0.298
 8654TIP3    H125903   5.484   2.681   0.293
 8654TIP3    H225904   5.413   2.572   0.215
 8655TIP3   OH225905   2.539   4.369   5.970
 8655TIP3    H125906   2.524   4.463   5.965
 8655TIP3    H225907   2.604   4.351   5.901
 8656TIP3   OH225908   6.974   6.806   5.306
 8656TIP3    H125909   7.047   6.780   5.250
 8656TIP3    H225910   7.015   6.843   5.384
 8657TIP3   OH225911   5.215   4.431   3.314
 8657TIP3    H125912   5.230   4.500   3.379
 8657TIP3    H225913   5.217   4.477   3.230
 8658TIP3   OH225914   7.302   3.005   6.657
 8658TIP3    H125915   7.264   3.054   6.729
 8658TIP3    H225916   7.263   2.918   6.664
 8659TIP3   OH225917   3.252   1.085   2.818
 8659TIP3    H125918   3.175   1.135   2.848
 8659TIP3    H225919   3.294   1.143   2.754
 8660TIP3   OH225920   8.314   3.004   6.675
 8660TIP3    H125921   8.323   2.917   6.637
 8660TIP3    H225922   8.224   3.030   6.652
 8661TIP3   OH225923   4.332   2.689   5.331
 8661TIP3    H125924   4.358   2.749   5.260
 8661TIP3    H225925   4.402   2.624   5.334
 8662TIP3   OH225926   7.499   1.256   5.257
 8662TIP3    H125927   7.481   1.302   5.340
 8662TIP3    H225928   7.417   1.264   5.208
 8663TIP3   OH225929   5.911   0.922   2.846
 8663TIP3    H125930   5.963   0.913   2.766
 8663TIP3    H225931   5.946   0.855   2.905
 8664TIP3   OH225932   4.338   6.064   0.098
 8664TIP3    H125933   4.406   6.039   0.035
 8664TIP3    H225934   4.268   6.100   0.044
 8665TIP3   OH225935   3.287   5.010   3.938
 8665TIP3    H125936   3.310   5.022   4.030
 8665TIP3    H225937   3.221   5.078   3.921
 8666TIP3   OH225938   1.140   7.367   1.782
 8666TIP3    H125939   1.106   7.287   1.823
 8666TIP3    H225940   1.085   7.379   1.704
 8667TIP3   OH225941   0.249   0.024   6.491
 8667TIP3    H125942   0.214  -0.032   6.561
 8667TIP3    H225943   0.195   0.103   6.494
 8668TIP3   OH225944   0.835   1.707   4.200
 8668TIP3    H125945   0.887   1.765   4.255
 8668TIP3    H225946   0.831   1.752   4.115
 8669TIP3   OH225947   6.871   3.843   1.589
 8669TIP3    H125948   6.813   3.768   1.580
 8669TIP3    H225949   6.900   3.841   1.680
 8670TIP3   OH225950   2.772   6.175   1.818
 8670TIP3    H125951   2.734   6.087   1.827
 8670TIP3    H225952   2.753   6.218   1.901
 8671TIP3   OH225953   3.862   7.813   3.865
 8671TIP3    H125954   3.925   7.754   3.905
 8671TIP3    H225955   3.878   7.805   3.771
 8672TIP3   OH225956   4.578   1.972   0.706
 8672TIP3    H125957   4.525   1.892   0.700
 8672TIP3    H225958   4.642   1.952   0.774
 8673TIP3   OH225959   1.167   5.519   5.210
 8673TIP3    H125960   1.254   5.553   5.232
 8673TIP3    H225961   1.110   5.596   5.211
 8674TIP3   OH225962   4.685   1.727   0.461
 8674TIP3    H125963   4.706   1.645   0.416
 8674TIP3    H225964   4.604   1.756   0.420
 8675TIP3   OH225965   7.916   6.803   3.937
 8675TIP3    H125966   7.892   6.853   3.859
 8675TIP3    H225967   7.988   6.746   3.908
 8676TIP3   OH225968   4.527   7.074   0.038
 8676TIP3    H125969   4.584   7.119   0.100
 8676TIP3    H225970   4.441   7.073   0.080
 8677TIP3   OH225971   4.667   6.846   0.458
 8677TIP3    H125972   4.735   6.846   0.390
 8677TIP3    H225973   4.639   6.755   0.464
 8678TIP3   OH225974   4.496   0.422   3.986
 8678TIP3    H125975   4.503   0.517   3.979
 8678TIP3    H225976   4.451   0.395   3.906
 8679TIP3   OH225977   0.277   0.090   0.801
 8679TIP3    H125978   0.230   0.029   0.745
 8679TIP3    H225979   0.265   0.055   0.890
 8680TIP3   OH225980   6.100   7.684   0.315
 8680TIP3    H125981   6.095   7.603   0.365
 8680TIP3    H225982   6.089   7.753   0.380
 8681TIP3   OH225983   7.885   1.777   5.786
 8681TIP3    H125984   7.826   1.821   5.725
 8681TIP3    H225985   7.952   1.737   5.730
 8682TIP3   OH225986   7.550   5.838   1.906
 8682TIP3    H125987   7.551   5.932   1.923
 8682TIP3    H225988   7.492   5.827   1.830
 8683TIP3   OH225989   6.106   6.110   3.486
 8683TIP3    H125990   6.185   6.163   3.478
 8683TIP3    H225991   6.035   6.167   3.457
 8684TIP3   OH225992   6.041   2.338   3.448
 8684TIP3    H125993   6.104   2.377   3.388
 8684TIP3    H225994   5.999   2.413   3.490
 8685TIP3   OH225995   8.334   3.559   5.544
 8685TIP3    H125996   8.281   3.485   5.513
 8685TIP3    H225997   8.359   3.534   5.633
 8686TIP3   OH225998   0.352   2.968   1.606
 8686TIP3    H125999   0.378   2.918   1.683
 8686TIP3    H226000   0.326   3.053   1.639
 8687TIP3   OH226001   4.941   5.690   2.489
 8687TIP3    H126002   5.000   5.625   2.526
 8687TIP3    H226003   4.996   5.740   2.427
 8688TIP3   OH226004   6.499   0.112   6.067
 8688TIP3    H126005   6.566   0.063   6.114
 8688TIP3    H226006   6.428   0.123   6.130
 8689TIP3   OH226007   8.177   6.341   4.541
 8689TIP3    H126008   8.141   6.389   4.467
 8689TIP3    H226009   8.255   6.299   4.507
 8690TIP3   OH226010   4.434   7.794   2.019
 8690TIP3    H126011   4.339   7.781   2.021
 8690TIP3    H226012   4.470   7.716   2.062
 8691TIP3   OH226013   3.688   2.489   2.353
 8691TIP3    H126014   3.654   2.438   2.279
 8691TIP3    H226015   3.733   2.564   2.313
 8692TIP3   OH226016   0.952   1.369   4.554
 8692TIP3    H126017   0.956   1.429   4.479
 8692TIP3    H226018   1.012   1.407   4.618
 8693TIP3   OH226019   4.432   7.563  -0.027
 8693TIP3    H126020   4.360   7.625  -0.041
 8693TIP3    H226021   4.495   7.611   0.026
 8694TIP3   OH226022   5.680   3.431   2.634
 8694TIP3    H126023   5.597   3.454   2.591
 8694TIP3    H226024   5.745   3.432   2.564
 8695TIP3   OH226025   5.243   7.512   4.270
 8695TIP3    H126026   5.181   7.576   4.305
 8695TIP3    H226027   5.188   7.443   4.234
 8696TIP3   OH226028   6.352   6.923   0.042
 8696TIP3    H126029   6.266   6.953   0.012
 8696TIP3    H226030   6.347   6.929   0.137
 8697TIP3   OH226031   1.114   7.452   0.859
 8697TIP3    H126032   1.031   7.495   0.838
 8697TIP3    H226033   1.161   7.450   0.776
 8698TIP3   OH226034   7.749   6.716   1.188
 8698TIP3    H126035   7.783   6.805   1.192
 8698TIP3    H226036   7.826   6.662   1.171
 8699TIP3   OH226037   5.795   0.303   3.175
 8699TIP3    H126038   5.769   0.225   3.224
 8699TIP3    H226039   5.833   0.361   3.241
 8700TIP3   OH226040   2.991   3.004   0.966
 8700TIP3    H126041   2.978   2.909   0.970
 8700TIP3    H226042   3.036   3.025   1.047
 8701TIP3   OH226043   0.458   3.982   3.810
 8701TIP3    H126044   0.536   3.989   3.866
 8701TIP3    H226045   0.476   3.906   3.755
 8702TIP3   OH226046   1.925   2.721   3.556
 8702TIP3    H126047   1.979   2.679   3.623
 8702TIP3    H226048   1.955   2.812   3.556
 8703TIP3   OH226049   7.724   1.839   6.515
 8703TIP3    H126050   7.820   1.831   6.515
 8703TIP3    H226051   7.706   1.912   6.575
 8704TIP3   OH226052   5.596   3.762   0.409
 8704TIP3    H126053   5.687   3.773   0.434
 8704TIP3    H226054   5.595   3.682   0.357
 8705TIP3   OH226055   0.238   4.706   0.233
 8705TIP3    H126056   0.331   4.696   0.215
 8705TIP3    H226057   0.219   4.797   0.210
 8706TIP3   OH226058   2.100   1.697   0.809
 8706TIP3    H126059   2.138   1.626   0.758
 8706TIP3    H226060   2.162   1.770   0.800
 8707TIP3   OH226061   6.701   5.036   4.920
 8707TIP3    H126062   6.757   5.029   4.997
 8707TIP3    H226063   6.759   5.066   4.850
 8708TIP3   OH226064   7.054   3.860   2.360
 8708TIP3    H126065   7.014   3.785   2.316
 8708TIP3    H226066   7.050   3.931   2.295
 8709TIP3   OH226067   5.167   4.321   0.334
 8709TIP3    H126068   5.197   4.402   0.294
 8709TIP3    H226069   5.095   4.347   0.392
 8710TIP3   OH226070   1.387   3.160   3.609
 8710TIP3    H126071   1.434   3.081   3.636
 8710TIP3    H226072   1.432   3.189   3.530
 8711TIP3   OH226073   2.550   3.492   2.962
 8711TIP3    H126074   2.469   3.524   2.923
 8711TIP3    H226075   2.528   3.405   2.995
 8712TIP3   OH226076   7.984   2.240   2.799
 8712TIP3    H126077   7.982   2.315   2.859
 8712TIP3    H226078   7.899   2.241   2.757
 8713TIP3   OH226079   6.048   4.765   2.567
 8713TIP3    H126080   5.976   4.819   2.537
 8713TIP3    H226081   6.028   4.677   2.533
 8714TIP3   OH226082   5.464   0.654   0.519
 8714TIP3    H126083   5.453   0.705   0.599
 8714TIP3    H226084   5.527   0.586   0.542
 8715TIP3   OH226085   3.582   1.678   6.365
 8715TIP3    H126086   3.578   1.595   6.318
 8715TIP3    H226087   3.591   1.744   6.296
 8716TIP3   OH226088   3.605   0.367   4.403
 8716TIP3    H126089   3.612   0.361   4.499
 8716TIP3    H226090   3.512   0.383   4.387
 8717TIP3   OH226091   4.191   1.381   0.300
 8717TIP3    H126092   4.257   1.371   0.368
 8717TIP3    H226093   4.219   1.457   0.249
 8718TIP3   OH226094   3.474   0.291   6.729
 8718TIP3    H126095   3.500   0.348   6.801
 8718TIP3    H226096   3.487   0.344   6.650
 8719TIP3   OH226097   8.128   4.745   6.125
 8719TIP3    H126098   8.148   4.809   6.057
 8719TIP3    H226099   8.049   4.701   6.094
 8720TIP3   OH226100   4.755   4.126   0.987
 8720TIP3    H126101   4.687   4.076   0.941
 8720TIP3    H226102   4.744   4.215   0.955
 8721TIP3   OH226103   2.037   6.015   0.309
 8721TIP3    H126104   2.044   5.948   0.241
 8721TIP3    H226105   2.126   6.051   0.318
 8722TIP3   OH226106   1.852   4.094   3.122
 8722TIP3    H126107   1.900   4.121   3.043
 8722TIP3    H226108   1.769   4.140   3.117
 8723TIP3   OH226109   1.747   3.521   6.281
 8723TIP3    H126110   1.683   3.453   6.301
 8723TIP3    H226111   1.817   3.476   6.234
 8724TIP3   OH226112   8.247   4.894   6.611
 8724TIP3    H126113   8.221   4.866   6.523
 8724TIP3    H226114   8.166   4.896   6.661
 8725TIP3   OH226115   6.322   3.855   0.694
 8725TIP3    H126116   6.323   3.945   0.662
 8725TIP3    H226117   6.377   3.806   0.632
 8726TIP3   OH226118   2.720   2.513   5.386
 8726TIP3    H126119   2.643   2.486   5.437
 8726TIP3    H226120   2.788   2.451   5.412
 8727TIP3   OH226121   3.548   5.186   3.465
 8727TIP3    H126122   3.612   5.244   3.506
 8727TIP3    H226123   3.464   5.219   3.495
 8728TIP3   OH226124   4.237   2.220   1.781
 8728TIP3    H126125   4.176   2.169   1.727
 8728TIP3    H226126   4.315   2.227   1.727
 8729TIP3   OH226127   6.493   3.013   5.426
 8729TIP3    H126128   6.566   2.960   5.395
 8729TIP3    H226129   6.534   3.085   5.474
 8730TIP3   OH226130   5.252   4.760   2.691
 8730TIP3    H126131   5.254   4.763   2.787
 8730TIP3    H226132   5.314   4.828   2.664
 8731TIP3   OH226133   5.095   4.615   5.107
 8731TIP3    H126134   5.007   4.618   5.145
 8731TIP3    H226135   5.092   4.545   5.043
 8732TIP3   OH226136   0.840   0.790   0.471
 8732TIP3    H126137   0.844   0.699   0.500
 8732TIP3    H226138   0.926   0.825   0.492
 8733TIP3   OH226139   3.301   3.416   0.297
 8733TIP3    H126140   3.320   3.323   0.280
 8733TIP3    H226141   3.330   3.461   0.218
 8734TIP3   OH226142   8.143   2.376   0.995
 8734TIP3    H126143   8.173   2.298   0.950
 8734TIP3    H226144   8.127   2.347   1.085
 8735TIP3   OH226145   3.494   1.982   0.694
 8735TIP3    H126146   3.577   1.935   0.681
 8735TIP3    H226147   3.520   2.070   0.721
 8736TIP3   OH226148   4.382   1.324   2.835
 8736TIP3    H126149   4.363   1.273   2.914
 8736TIP3    H226150   4.449   1.274   2.789
 8737TIP3   OH226151   1.494   6.147   6.301
 8737TIP3    H126152   1.491   6.096   6.382
 8737TIP3    H226153   1.531   6.231   6.327
 8738TIP3   OH226154   5.096   4.991   4.530
 8738TIP3    H126155   5.026   4.957   4.587
 8738TIP3    H226156   5.090   5.086   4.539
 8739TIP3   OH226157   2.812   1.058   0.674
 8739TIP3    H126158   2.856   1.138   0.703
 8739TIP3    H226159   2.848   0.989   0.730
 8740TIP3   OH226160   7.314   7.012   2.835
 8740TIP3    H126161   7.385   7.059   2.791
 8740TIP3    H226162   7.334   7.021   2.928
 8741TIP3   OH226163   7.808   7.422   6.546
 8741TIP3    H126164   7.788   7.511   6.576
 8741TIP3    H226165   7.900   7.426   6.519
 8742TIP3   OH226166   3.252   3.680   6.585
 8742TIP3    H126167   3.211   3.612   6.637
 8742TIP3    H226168   3.329   3.637   6.547
 8743TIP3   OH226169   5.739   1.671   3.702
 8743TIP3    H126170   5.675   1.635   3.763
 8743TIP3    H226171   5.696   1.669   3.617
 8744TIP3   OH226172   0.953   7.392   1.597
 8744TIP3    H126173   0.890   7.325   1.626
 8744TIP3    H226174   0.922   7.473   1.638
 8745TIP3   OH226175   6.513   6.448   5.593
 8745TIP3    H126176   6.554   6.534   5.586
 8745TIP3    H226177   6.457   6.454   5.670
 8746TIP3   OH226178   0.691   1.292   1.470
 8746TIP3    H126179   0.708   1.373   1.518
 8746TIP3    H226180   0.726   1.308   1.382
 8747TIP3   OH226181   2.603   6.106   4.083
 8747TIP3    H126182   2.573   6.193   4.109
 8747TIP3    H226183   2.638   6.068   4.164
 8748TIP3   OH226184   8.057   1.605   2.453
 8748TIP3    H126185   8.086   1.517   2.426
 8748TIP3    H226186   8.042   1.597   2.547
 8749TIP3   OH226187   2.859   0.724   0.508
 8749TIP3    H126188   2.912   0.753   0.582
 8749TIP3    H226189   2.820   0.641   0.538
 8750TIP3   OH226190   4.047   6.237   0.186
 8750TIP3    H126191   4.026   6.187   0.265
 8750TIP3    H226192   4.055   6.328   0.217
 8751TIP3   OH226193   5.841   1.905   1.714
 8751TIP3    H126194   5.908   1.886   1.780
 8751TIP3    H226195   5.832   1.822   1.666
 8752TIP3   OH226196   3.698   7.595   1.609
 8752TIP3    H126197   3.686   7.676   1.658
 8752TIP3    H226198   3.695   7.526   1.676
 8753TIP3   OH226199   5.385   2.867   1.366
 8753TIP3    H126200   5.349   2.874   1.277
 8753TIP3    H226201   5.452   2.800   1.360
 8754TIP3   OH226202   4.429   3.602   5.920
 8754TIP3    H126203   4.493   3.534   5.904
 8754TIP3    H226204   4.385   3.575   6.001
 8755TIP3   OH226205   4.611   6.377   0.820
 8755TIP3    H126206   4.595   6.303   0.762
 8755TIP3    H226207   4.705   6.392   0.814
 8756TIP3   OH226208   1.615   2.494   3.870
 8756TIP3    H126209   1.662   2.504   3.788
 8756TIP3    H226210   1.565   2.413   3.860
 8757TIP3   OH226211   8.297   6.142   1.370
 8757TIP3    H126212   8.223   6.122   1.426
 8757TIP3    H226213   8.284   6.088   1.292
 8758TIP3   OH226214   7.781   0.825   5.116
 8758TIP3    H126215   7.813   0.843   5.204
 8758TIP3    H226216   7.757   0.911   5.080
 8759TIP3   OH226217   7.289   2.937   2.045
 8759TIP3    H126218   7.371   2.912   2.003
 8759TIP3    H226219   7.221   2.912   1.982
 8760TIP3   OH226220   6.505   6.392   4.968
 8760TIP3    H126221   6.586   6.436   4.995
 8760TIP3    H226222   6.435   6.450   4.996
 8761TIP3   OH226223   2.117   3.664   4.973
 8761TIP3    H126224   2.049   3.647   5.038
 8761TIP3    H226225   2.126   3.759   4.971
 8762TIP3   OH226226   6.593   4.278   2.211
 8762TIP3    H126227   6.548   4.230   2.142
 8762TIP3    H226228   6.532   4.275   2.285
 8763TIP3   OH226229   6.758   0.653   5.163
 8763TIP3    H126230   6.708   0.700   5.229
 8763TIP3    H226231   6.735   0.561   5.176
 8764TIP3   OH226232   1.102   5.919   5.400
 8764TIP3    H126233   1.089   5.867   5.479
 8764TIP3    H226234   1.109   5.855   5.330
 8765TIP3   OH226235   7.328   1.128   5.816
 8765TIP3    H126236   7.422   1.111   5.813
 8765TIP3    H226237   7.319   1.219   5.786
 8766TIP3   OH226238   6.715   3.068   6.189
 8766TIP3    H126239   6.689   3.138   6.249
 8766TIP3    H226240   6.632   3.036   6.153
 8767TIP3   OH226241   1.542   2.078   2.030
 8767TIP3    H126242   1.544   1.983   2.022
 8767TIP3    H226243   1.626   2.107   1.993
 8768TIP3   OH226244   0.880   1.090   2.803
 8768TIP3    H126245   0.794   1.101   2.843
 8768TIP3    H226246   0.896   0.996   2.805
 8769TIP3   OH226247   7.259   5.014   0.245
 8769TIP3    H126248   7.247   5.017   0.340
 8769TIP3    H226249   7.170   5.010   0.210
 8770TIP3   OH226250   4.437   0.768   5.883
 8770TIP3    H126251   4.392   0.685   5.870
 8770TIP3    H226252   4.370   0.835   5.864
 8771TIP3   OH226253   6.705   5.862   5.444
 8771TIP3    H126254   6.786   5.815   5.463
 8771TIP3    H226255   6.716   5.947   5.486
 8772TIP3   OH226256   4.702   5.730   5.407
 8772TIP3    H126257   4.743   5.647   5.430
 8772TIP3    H226258   4.613   5.722   5.442
 8773TIP3   OH226259   3.422   7.848   3.260
 8773TIP3    H126260   3.330   7.824   3.254
 8773TIP3    H226261   3.462   7.779   3.313
 8774TIP3   OH226262   0.558   6.373   4.223
 8774TIP3    H126263   0.650   6.363   4.246
 8774TIP3    H226264   0.520   6.285   4.235
 8775TIP3   OH226265   1.895   5.645   3.035
 8775TIP3    H126266   1.897   5.582   3.107
 8775TIP3    H226267   1.864   5.595   2.960
 8776TIP3   OH226268   7.716   1.850   3.196
 8776TIP3    H126269   7.781   1.798   3.149
 8776TIP3    H226270   7.735   1.834   3.289
 8777TIP3   OH226271   4.060   2.397   2.296
 8777TIP3    H126272   4.105   2.433   2.220
 8777TIP3    H226273   4.075   2.461   2.366
 8778TIP3   OH226274   0.319   3.899   3.034
 8778TIP3    H126275   0.291   3.813   3.002
 8778TIP3    H226276   0.406   3.912   2.995
 8779TIP3   OH226277   1.246   2.409   3.853
 8779TIP3    H126278   1.326   2.358   3.838
 8779TIP3    H226279   1.240   2.466   3.776
 8780TIP3   OH226280   3.416   5.651   1.320
 8780TIP3    H126281   3.409   5.709   1.396
 8780TIP3    H226282   3.326   5.623   1.304
 8781TIP3   OH226283   0.217   5.820   2.243
 8781TIP3    H126284   0.167   5.873   2.305
 8781TIP3    H226285   0.235   5.739   2.291
 8782TIP3   OH226286   2.906   2.693   0.762
 8782TIP3    H126287   2.946   2.616   0.722
 8782TIP3    H226288   2.841   2.722   0.698
 8783TIP3   OH226289   5.838   2.952   4.544
 8783TIP3    H126290   5.872   3.005   4.471
 8783TIP3    H226291   5.861   3.002   4.622
 8784TIP3   OH226292   3.792   1.626   4.215
 8784TIP3    H126293   3.736   1.614   4.292
 8784TIP3    H226294   3.737   1.672   4.152
 8785TIP3   OH226295   4.187   5.723   0.767
 8785TIP3    H126296   4.257   5.663   0.794
 8785TIP3    H226297   4.230   5.809   0.760
 8786TIP3   OH226298   0.768   1.310   3.371
 8786TIP3    H126299   0.753   1.400   3.401
 8786TIP3    H226300   0.791   1.319   3.279
 8787TIP3   OH226301   8.166   4.101   5.336
 8787TIP3    H126302   8.095   4.052   5.378
 8787TIP3    H226303   8.159   4.079   5.243
 8788TIP3   OH226304   6.736   1.750   5.755
 8788TIP3    H126305   6.714   1.841   5.774
 8788TIP3    H226306   6.654   1.712   5.724
 8789TIP3   OH226307   2.650   7.267   2.215
 8789TIP3    H126308   2.618   7.320   2.142
 8789TIP3    H226309   2.704   7.199   2.174
 8790TIP3   OH226310   1.790   7.612   4.801
 8790TIP3    H126311   1.751   7.691   4.838
 8790TIP3    H226312   1.851   7.645   4.735
 8791TIP3   OH226313   0.567   3.290   6.034
 8791TIP3    H126314   0.475   3.279   6.059
 8791TIP3    H226315   0.615   3.288   6.117
 8792TIP3   OH226316   3.135   5.100   2.753
 8792TIP3    H126317   3.111   5.008   2.740
 8792TIP3    H226318   3.224   5.096   2.789
 8793TIP3   OH226319   3.014   4.633   2.042
 8793TIP3    H126320   2.950   4.596   2.103
 8793TIP3    H226321   3.031   4.562   1.980
 8794TIP3   OH226322   2.780   2.393   1.753
 8794TIP3    H126323   2.844   2.353   1.811
 8794TIP3    H226324   2.695   2.374   1.793
 8795TIP3   OH226325   3.019   5.241   1.158
 8795TIP3    H126326   3.100   5.291   1.169
 8795TIP3    H226327   2.954   5.307   1.133
 8796TIP3   OH226328   0.934   7.891   4.566
 8796TIP3    H126329   0.903   7.946   4.495
 8796TIP3    H226330   0.861   7.890   4.629
 8797TIP3   OH226331   0.350   2.720   1.202
 8797TIP3    H126332   0.258   2.749   1.204
 8797TIP3    H226333   0.368   2.693   1.292
 8798TIP3   OH226334   7.286   0.060   5.531
 8798TIP3    H126335   7.290   0.085   5.438
 8798TIP3    H226336   7.319   0.137   5.578
 8799TIP3   OH226337   2.467   6.832   2.510
 8799TIP3    H126338   2.469   6.914   2.461
 8799TIP3    H226339   2.379   6.798   2.496
 8800TIP3   OH226340   2.563   5.930   1.523
 8800TIP3    H126341   2.576   5.900   1.613
 8800TIP3    H226342   2.484   5.885   1.494
 8801TIP3   OH226343   5.770   7.002   2.432
 8801TIP3    H126344   5.838   7.002   2.365
 8801TIP3    H226345   5.688   7.005   2.384
 8802TIP3   OH226346   1.611   7.494   6.546
 8802TIP3    H126347   1.668   7.535   6.612
 8802TIP3    H226348   1.665   7.493   6.467
 8803TIP3   OH226349   2.396   1.778   1.471
 8803TIP3    H126350   2.328   1.712   1.484
 8803TIP3    H226351   2.424   1.765   1.380
 8804TIP3   OH226352   4.996   0.680   3.703
 8804TIP3    H126353   5.083   0.641   3.713
 8804TIP3    H226354   4.938   0.606   3.682
 8805TIP3   OH226355   0.599   2.985   5.512
 8805TIP3    H126356   0.515   2.953   5.545
 8805TIP3    H226357   0.576   3.055   5.452
 8806TIP3   OH226358   4.378   6.835   5.188
 8806TIP3    H126359   4.460   6.834   5.238
 8806TIP3    H226360   4.313   6.799   5.247
 8807TIP3   OH226361   0.670   2.160   2.124
 8807TIP3    H126362   0.639   2.237   2.076
 8807TIP3    H226363   0.765   2.173   2.133
 8808TIP3   OH226364   2.338   1.200   2.704
 8808TIP3    H126365   2.313   1.284   2.667
 8808TIP3    H226366   2.257   1.150   2.709
 8809TIP3   OH226367   5.735   2.287   0.356
 8809TIP3    H126368   5.810   2.232   0.335
 8809TIP3    H226369   5.674   2.229   0.401
 8810TIP3   OH226370   4.303   0.921   0.001
 8810TIP3    H126371   4.361   0.859   0.046
 8810TIP3    H226372   4.300   0.997   0.060
 8811TIP3   OH226373   6.793   5.765   4.144
 8811TIP3    H126374   6.764   5.694   4.087
 8811TIP3    H226375   6.854   5.816   4.090
 8812TIP3   OH226376   0.797   1.346   0.463
 8812TIP3    H126377   0.868   1.285   0.484
 8812TIP3    H226378   0.838   1.432   0.462
 8813TIP3   OH226379   5.500   6.996   2.385
 8813TIP3    H126380   5.500   7.009   2.480
 8813TIP3    H226381   5.478   7.082   2.350
 8814TIP3   OH226382   0.715   4.837   2.631
 8814TIP3    H126383   0.628   4.863   2.602
 8814TIP3    H226384   0.730   4.889   2.710
 8815TIP3   OH226385   1.371   7.213   3.924
 8815TIP3    H126386   1.428   7.290   3.924
 8815TIP3    H226387   1.358   7.193   3.831
 8816TIP3   OH226388   3.872   4.259   0.168
 8816TIP3    H126389   3.914   4.323   0.226
 8816TIP3    H226390   3.878   4.176   0.216
 8817TIP3   OH226391   3.705   7.399   3.547
 8817TIP3    H126392   3.721   7.306   3.560
 8817TIP3    H226393   3.792   7.436   3.528
 8818TIP3   OH226394   0.186   7.030   6.154
 8818TIP3    H126395   0.267   6.996   6.115
 8818TIP3    H226396   0.120   7.019   6.085
 8819TIP3   OH226397   3.829   6.507   1.016
 8819TIP3    H126398   3.775   6.529   0.941
 8819TIP3    H226399   3.783   6.544   1.091
 8820TIP3   OH226400   2.596   5.647   4.824
 8820TIP3    H126401   2.551   5.731   4.812
 8820TIP3    H226402   2.526   5.584   4.843
 8821TIP3   OH226403   4.913   5.170   5.328
 8821TIP3    H126404   4.928   5.089   5.377
 8821TIP3    H226405   4.932   5.147   5.237
 8822TIP3   OH226406   6.016   3.592   1.825
 8822TIP3    H126407   5.926   3.561   1.827
 8822TIP3    H226408   6.045   3.590   1.916
 8823TIP3   OH226409   6.970   7.062   0.624
 8823TIP3    H126410   7.028   7.109   0.684
 8823TIP3    H226411   7.008   7.076   0.537
 8824TIP3   OH226412   5.531  -0.001   0.203
 8824TIP3    H126413   5.537   0.093   0.223
 8824TIP3    H226414   5.438  -0.021   0.208
 8825TIP3   OH226415   7.709   2.641   5.792
 8825TIP3    H126416   7.641   2.617   5.855
 8825TIP3    H226417   7.690   2.732   5.770
 8826TIP3   OH226418   3.900   7.267   0.325
 8826TIP3    H126419   3.984   7.255   0.369
 8826TIP3    H226420   3.881   7.182   0.286
 8827TIP3   OH226421   6.870   5.298   6.576
 8827TIP3    H126422   6.782   5.282   6.612
 8827TIP3    H226423   6.895   5.214   6.537
 8828TIP3   OH226424   6.055   6.624   2.148
 8828TIP3    H126425   6.142   6.613   2.108
 8828TIP3    H226426   6.024   6.535   2.162
 8829TIP3   OH226427   0.167   1.499   3.730
 8829TIP3    H126428   0.127   1.515   3.815
 8829TIP3    H226429   0.259   1.522   3.742
 8830TIP3   OH226430   3.162   7.510   3.729
 8830TIP3    H126431   3.122   7.460   3.658
 8830TIP3    H226432   3.171   7.448   3.800
 8831TIP3   OH226433   6.631   1.199   5.634
 8831TIP3    H126434   6.636   1.254   5.555
 8831TIP3    H226435   6.574   1.248   5.693
 8832TIP3   OH226436   6.363   4.243   3.845
 8832TIP3    H126437   6.392   4.334   3.853
 8832TIP3    H226438   6.334   4.220   3.933
 8833TIP3   OH226439   0.482   5.623   4.069
 8833TIP3    H126440   0.470   5.595   4.160
 8833TIP3    H226441   0.551   5.688   4.074
 8834TIP3   OH226442   3.065   4.167   6.042
 8834TIP3    H126443   3.009   4.243   6.059
 8834TIP3    H226444   3.005   4.100   6.010
 8835TIP3   OH226445   4.618   6.251   2.183
 8835TIP3    H126446   4.611   6.179   2.245
 8835TIP3    H226447   4.671   6.217   2.111
 8836TIP3   OH226448   7.589   4.120   0.491
 8836TIP3    H126449   7.635   4.187   0.542
 8836TIP3    H226450   7.511   4.099   0.543
 8837TIP3   OH226451   5.854   6.895   2.855
 8837TIP3    H126452   5.912   6.950   2.906
 8837TIP3    H226453   5.773   6.890   2.906
 8838TIP3   OH226454   2.805   1.764   5.554
 8838TIP3    H126455   2.769   1.747   5.467
 8838TIP3    H226456   2.766   1.847   5.581
 8839TIP3   OH226457   5.288   1.700   4.696
 8839TIP3    H126458   5.256   1.781   4.657
 8839TIP3    H226459   5.337   1.728   4.773
 8840TIP3   OH226460   8.073   1.006   6.294
 8840TIP3    H126461   8.065   1.020   6.388
 8840TIP3    H226462   8.131   0.930   6.286
 8841TIP3   OH226463   1.963   5.017   0.502
 8841TIP3    H126464   1.909   4.944   0.531
 8841TIP3    H226465   1.962   5.013   0.406
 8842TIP3   OH226466   1.659   4.916   5.773
 8842TIP3    H126467   1.612   4.833   5.776
 8842TIP3    H226468   1.598   4.978   5.733
 8843TIP3   OH226469   0.081   6.353   5.688
 8843TIP3    H126470   0.169   6.388   5.670
 8843TIP3    H226471   0.024   6.430   5.689
 8844TIP3   OH226472   1.868   1.012   6.133
 8844TIP3    H126473   1.779   1.022   6.098
 8844TIP3    H226474   1.878   0.918   6.147
 8845TIP3   OH226475   0.510   1.605   0.105
 8845TIP3    H126476   0.487   1.561   0.023
 8845TIP3    H226477   0.551   1.537   0.158
 8846TIP3   OH226478   0.154   4.007   1.665
 8846TIP3    H126479   0.141   4.094   1.702
 8846TIP3    H226480   0.097   4.005   1.588
 8847TIP3   OH226481   3.325   7.549   5.038
 8847TIP3    H126482   3.294   7.519   4.953
 8847TIP3    H226483   3.417   7.522   5.041
 8848TIP3   OH226484   5.853   7.344   2.546
 8848TIP3    H126485   5.832   7.261   2.589
 8848TIP3    H226486   5.920   7.384   2.602
 8849TIP3   OH226487   4.232   0.656   4.884
 8849TIP3    H126488   4.305   0.680   4.941
 8849TIP3    H226489   4.168   0.727   4.894
 8850TIP3   OH226490   0.895   3.690   4.892
 8850TIP3    H126491   0.873   3.644   4.810
 8850TIP3    H226492   0.953   3.629   4.938
 8851TIP3   OH226493   2.854   0.254   6.439
 8851TIP3    H126494   2.839   0.161   6.422
 8851TIP3    H226495   2.945   0.259   6.468
 8852TIP3   OH226496   3.668   0.816   1.200
 8852TIP3    H126497   3.761   0.802   1.183
 8852TIP3    H226498   3.628   0.731   1.185
 8853TIP3   OH226499   5.819   7.621   4.151
 8853TIP3    H126500   5.743   7.592   4.101
 8853TIP3    H226501   5.801   7.713   4.171
 8854TIP3   OH226502   1.187   3.486   1.525
 8854TIP3    H126503   1.108   3.520   1.567
 8854TIP3    H226504   1.254   3.553   1.541
 8855TIP3   OH226505   7.791   6.691   0.570
 8855TIP3    H126506   7.753   6.607   0.596
 8855TIP3    H226507   7.876   6.668   0.531
 8856TIP3   OH226508   1.735   6.519   1.360
 8856TIP3    H126509   1.717   6.499   1.452
 8856TIP3    H226510   1.828   6.543   1.358
 8857TIP3   OH226511   0.150   1.422   6.491
 8857TIP3    H126512   0.234   1.389   6.524
 8857TIP3    H226513   0.174   1.481   6.420
 8858TIP3   OH226514   2.248   3.336   6.465
 8858TIP3    H126515   2.182   3.405   6.466
 8858TIP3    H226516   2.213   3.270   6.406
 8859TIP3   OH226517   7.919   1.381   1.525
 8859TIP3    H126518   7.831   1.359   1.555
 8859TIP3    H226519   7.969   1.300   1.532
 8860TIP3   OH226520   7.244   2.318   1.392
 8860TIP3    H126521   7.234   2.346   1.301
 8860TIP3    H226522   7.318   2.257   1.390
 8861TIP3   OH226523   4.906   3.144   6.841
 8861TIP3    H126524   4.989   3.096   6.844
 8861TIP3    H226525   4.909   3.192   6.759
 8862TIP3   OH226526   4.587   5.777   0.562
 8862TIP3    H126527   4.491   5.778   0.554
 8862TIP3    H226528   4.610   5.684   0.556
 8863TIP3   OH226529   2.674   5.686   4.558
 8863TIP3    H126530   2.727   5.764   4.541
 8863TIP3    H226531   2.683   5.672   4.652
 8864TIP3   OH226532   2.248   3.286   4.938
 8864TIP3    H126533   2.164   3.298   4.982
 8864TIP3    H226534   2.304   3.355   4.973
 8865TIP3   OH226535   7.712   6.595   6.599
 8865TIP3    H126536   7.642   6.544   6.639
 8865TIP3    H226537   7.741   6.543   6.525
 8866TIP3   OH226538   0.973   1.398   5.133
 8866TIP3    H126539   0.939   1.376   5.046
 8866TIP3    H226540   1.012   1.317   5.164
 8867TIP3   OH226541   5.932   3.675   6.516
 8867TIP3    H126542   5.955   3.765   6.537
 8867TIP3    H226543   5.842   3.680   6.484
 8868TIP3   OH226544   7.740   0.801   4.327
 8868TIP3    H126545   7.672   0.761   4.382
 8868TIP3    H226546   7.722   0.767   4.239
 8869TIP3   OH226547   1.304   3.966   4.323
 8869TIP3    H126548   1.344   3.891   4.368
 8869TIP3    H226549   1.347   4.042   4.361
 8870TIP3   OH226550   6.556   6.978   6.487
 8870TIP3    H126551   6.571   6.900   6.542
 8870TIP3    H226552   6.539   7.048   6.550
 8871TIP3   OH226553   1.615   2.368   2.713
 8871TIP3    H126554   1.708   2.349   2.699
 8871TIP3    H226555   1.599   2.450   2.665
 8872TIP3   OH226556   2.300   6.574   4.140
 8872TIP3    H126557   2.282   6.530   4.223
 8872TIP3    H226558   2.214   6.588   4.101
 8873TIP3   OH226559   0.997   1.910   0.269
 8873TIP3    H126560   1.066   1.945   0.213
 8873TIP3    H226561   1.020   1.818   0.281
 8874TIP3   OH226562   5.672   3.551   0.246
 8874TIP3    H126563   5.691   3.472   0.196
 8874TIP3    H226564   5.750   3.605   0.237
 8875TIP3   OH226565   2.578   1.025   2.405
 8875TIP3    H126566   2.604   1.115   2.382
 8875TIP3    H226567   2.661   0.979   2.417
 8876TIP3   OH226568   7.817   0.186   3.116
 8876TIP3    H126569   7.882   0.219   3.054
 8876TIP3    H226570   7.828   0.241   3.194
 8877TIP3   OH226571   0.221   0.327   5.191
 8877TIP3    H126572   0.298   0.353   5.140
 8877TIP3    H226573   0.150   0.322   5.128
 8878TIP3   OH226574   0.375   5.908   3.703
 8878TIP3    H126575   0.433   5.928   3.777
 8878TIP3    H226576   0.368   5.812   3.703
 8879TIP3   OH226577   2.323   7.913   2.788
 8879TIP3    H126578   2.337   7.830   2.743
 8879TIP3    H226579   2.238   7.904   2.830
 8880TIP3   OH226580   8.151   0.441   3.840
 8880TIP3    H126581   8.224   0.495   3.871
 8880TIP3    H226582   8.074   0.479   3.882
 8881TIP3   OH226583   3.142   6.573   0.229
 8881TIP3    H126584   3.078   6.604   0.165
 8881TIP3    H226585   3.090   6.544   0.303
 8882TIP3   OH226586   0.158   3.813   5.641
 8882TIP3    H126587   0.123   3.861   5.565
 8882TIP3    H226588   0.102   3.839   5.714
 8883TIP3   OH226589   4.654   2.456   0.118
 8883TIP3    H126590   4.585   2.498   0.169
 8883TIP3    H226591   4.700   2.401   0.180
 8884TIP3   OH226592   2.715   5.032   5.041
 8884TIP3    H126593   2.647   4.974   5.006
 8884TIP3    H226594   2.794   5.006   4.994
 8885TIP3   OH226595   6.932   4.694   4.046
 8885TIP3    H126596   6.910   4.615   3.997
 8885TIP3    H226597   6.967   4.754   3.980
 8886TIP3   OH226598   6.864   1.804   2.559
 8886TIP3    H126599   6.940   1.822   2.503
 8886TIP3    H226600   6.815   1.886   2.561
 8887TIP3   OH226601   2.252   4.561   5.302
 8887TIP3    H126602   2.313   4.489   5.287
 8887TIP3    H226603   2.307   4.639   5.307
 8888TIP3   OH226604   2.887   7.822   0.645
 8888TIP3    H126605   2.896   7.728   0.662
 8888TIP3    H226606   2.976   7.852   0.627
 8889TIP3   OH226607   8.320   2.079   1.555
 8889TIP3    H126608   8.225   2.073   1.557
 8889TIP3    H226609   8.347   2.082   1.646
 8890TIP3   OH226610   2.943   3.784   6.323
 8890TIP3    H126611   2.856   3.800   6.361
 8890TIP3    H226612   3.003   3.813   6.391
 8891TIP3   OH226613   0.214   7.080   2.173
 8891TIP3    H126614   0.295   7.074   2.224
 8891TIP3    H226615   0.223   7.162   2.124
 8892TIP3   OH226616   7.565   6.868   0.515
 8892TIP3    H126617   7.631   6.808   0.480
 8892TIP3    H226618   7.612   6.918   0.581
 8893TIP3   OH226619   5.613   0.631   4.296
 8893TIP3    H126620   5.571   0.620   4.211
 8893TIP3    H226621   5.561   0.700   4.339
 8894TIP3   OH226622   5.341   4.565   4.820
 8894TIP3    H126623   5.406   4.581   4.888
 8894TIP3    H226624   5.335   4.648   4.772
 8895TIP3   OH226625   2.522   7.275   2.718
 8895TIP3    H126626   2.473   7.293   2.638
 8895TIP3    H226627   2.470   7.209   2.763
 8896TIP3   OH226628   6.315   6.527   3.096
 8896TIP3    H126629   6.281   6.440   3.078
 8896TIP3    H226630   6.284   6.581   3.024
 8897TIP3   OH226631   8.267   7.232   3.333
 8897TIP3    H126632   8.171   7.239   3.333
 8897TIP3    H226633   8.293   7.261   3.420
 8898TIP3   OH226634   0.284   5.481   2.720
 8898TIP3    H126635   0.310   5.456   2.631
 8898TIP3    H226636   0.195   5.448   2.729
 8899TIP3   OH226637   7.078   3.178   3.798
 8899TIP3    H126638   6.996   3.132   3.815
 8899TIP3    H226639   7.052   3.259   3.753
 8900TIP3   OH226640   4.829   4.960   4.130
 8900TIP3    H126641   4.874   4.911   4.198
 8900TIP3    H226642   4.752   4.907   4.109
 8901TIP3   OH226643   5.817   5.040   6.184
 8901TIP3    H126644   5.841   5.132   6.176
 8901TIP3    H226645   5.734   5.040   6.232
 8902TIP3   OH226646   6.076   4.453   2.769
 8902TIP3    H126647   6.138   4.395   2.813
 8902TIP3    H226648   6.045   4.403   2.693
 8903TIP3   OH226649   4.407   6.778   4.929
 8903TIP3    H126650   4.401   6.682   4.930
 8903TIP3    H226651   4.401   6.803   5.021
 8904TIP3   OH226652   2.109   7.885   2.940
 8904TIP3    H126653   2.126   7.934   3.021
 8904TIP3    H226654   2.132   7.794   2.962
 8905TIP3   OH226655   3.133   4.172   4.776
 8905TIP3    H126656   3.137   4.095   4.833
 8905TIP3    H226657   3.201   4.230   4.810
 8906TIP3   OH226658   7.684   3.899   5.192
 8906TIP3    H126659   7.664   3.968   5.256
 8906TIP3    H226660   7.630   3.825   5.220
 8907TIP3   OH226661   1.587   1.909   4.060
 8907TIP3    H126662   1.643   1.834   4.082
 8907TIP3    H226663   1.569   1.951   4.144
 8908TIP3   OH226664   4.560   6.750   4.391
 8908TIP3    H126665   4.478   6.799   4.400
 8908TIP3    H226666   4.584   6.761   4.299
 8909TIP3   OH226667   3.527   4.745   3.096
 8909TIP3    H126668   3.450   4.800   3.110
 8909TIP3    H226669   3.601   4.805   3.107
 8910TIP3   OH226670   6.261   6.009   0.099
 8910TIP3    H126671   6.229   6.097   0.079
 8910TIP3    H226672   6.350   6.006   0.062
 8911TIP3   OH226673   0.224   0.381   0.171
 8911TIP3    H126674   0.205   0.394   0.078
 8911TIP3    H226675   0.304   0.329   0.172
 8912TIP3   OH226676   2.632   4.065   0.685
 8912TIP3    H126677   2.665   3.988   0.638
 8912TIP3    H226678   2.539   4.069   0.660
 8913TIP3   OH226679   0.626   5.721   5.985
 8913TIP3    H126680   0.660   5.712   6.074
 8913TIP3    H226681   0.532   5.710   5.994
 8914TIP3   OH226682   0.693   2.273   6.470
 8914TIP3    H126683   0.598   2.278   6.478
 8914TIP3    H226684   0.717   2.194   6.518
 8915TIP3   OH226685   4.572   4.345   0.620
 8915TIP3    H126686   4.613   4.426   0.653
 8915TIP3    H226687   4.646   4.291   0.591
 8916TIP3   OH226688   2.242   1.766   2.870
 8916TIP3    H126689   2.213   1.689   2.920
 8916TIP3    H226690   2.229   1.839   2.930
 8917TIP3   OH226691   3.307   2.081   4.185
 8917TIP3    H126692   3.247   2.037   4.125
 8917TIP3    H226693   3.306   2.027   4.264
 8918TIP3   OH226694   6.638   5.537   1.056
 8918TIP3    H126695   6.598   5.471   1.113
 8918TIP3    H226696   6.647   5.614   1.112
 8919TIP3   OH226697   2.369   5.864   1.785
 8919TIP3    H126698   2.352   5.939   1.729
 8919TIP3    H226699   2.379   5.901   1.873
 8920TIP3   OH226700   7.639   2.311   4.962
 8920TIP3    H126701   7.660   2.395   4.921
 8920TIP3    H226702   7.624   2.333   5.054
 8921TIP3   OH226703   7.623   7.095   6.303
 8921TIP3    H126704   7.531   7.072   6.285
 8921TIP3    H226705   7.644   7.047   6.383
 8922TIP3   OH226706   4.662   7.273   4.485
 8922TIP3    H126707   4.605   7.331   4.535
 8922TIP3    H226708   4.745   7.320   4.479
 8923TIP3   OH226709   6.402   4.370   4.629
 8923TIP3    H126710   6.373   4.449   4.584
 8923TIP3    H226711   6.415   4.396   4.720
 8924TIP3   OH226712   4.039   3.531   0.785
 8924TIP3    H126713   3.968   3.554   0.844
 8924TIP3    H226714   4.118   3.543   0.838
 8925TIP3   OH226715   5.092   7.087   3.222
 8925TIP3    H126716   5.053   7.141   3.153
 8925TIP3    H226717   5.018   7.056   3.273
 8926TIP3   OH226718   0.213   2.452   2.516
 8926TIP3    H126719   0.242   2.440   2.606
 8926TIP3    H226720   0.154   2.379   2.499
 8927TIP3   OH226721   0.953   2.295   4.781
 8927TIP3    H126722   0.981   2.384   4.758
 8927TIP3    H226723   1.024   2.262   4.837
 8928TIP3   OH226724   6.067   4.109   2.839
 8928TIP3    H126725   6.097   4.020   2.824
 8928TIP3    H226726   6.118   4.140   2.914
 8929TIP3   OH226727   6.587   7.837   0.883
 8929TIP3    H126728   6.626   7.809   0.800
 8929TIP3    H226729   6.642   7.910   0.912
 8930TIP3   OH226730   2.056   3.773   5.470
 8930TIP3    H126731   2.144   3.735   5.464
 8930TIP3    H226732   1.998   3.697   5.471
 8931TIP3   OH226733   3.356   6.754   1.023
 8931TIP3    H126734   3.433   6.807   1.002
 8931TIP3    H226735   3.326   6.789   1.107
 8932TIP3   OH226736   5.361   6.539   5.909
 8932TIP3    H126737   5.353   6.523   6.004
 8932TIP3    H226738   5.271   6.556   5.881
 8933TIP3   OH226739   7.936   5.741   0.036
 8933TIP3    H126740   8.016   5.786   0.011
 8933TIP3    H226741   7.966   5.669   0.092
 8934TIP3   OH226742   2.278   2.525   3.544
 8934TIP3    H126743   2.360   2.571   3.525
 8934TIP3    H226744   2.304   2.452   3.600
 8935TIP3   OH226745   0.988   1.605   1.959
 8935TIP3    H126746   0.962   1.578   1.871
 8935TIP3    H226747   0.954   1.694   1.968
 8936TIP3   OH226748   4.101   1.250   6.742
 8936TIP3    H126749   4.063   1.297   6.667
 8936TIP3    H226750   4.037   1.262   6.812
 8937TIP3   OH226751   6.552   0.502   2.368
 8937TIP3    H126752   6.527   0.506   2.276
 8937TIP3    H226753   6.620   0.434   2.371
 8938TIP3   OH226754   7.389   7.429   4.662
 8938TIP3    H126755   7.430   7.508   4.626
 8938TIP3    H226756   7.411   7.360   4.600
 8939TIP3   OH226757   0.192   2.009   2.966
 8939TIP3    H126758   0.158   1.971   3.047
 8939TIP3    H226759   0.113   2.028   2.914
 8940TIP3   OH226760   3.200   7.329   3.931
 8940TIP3    H126761   3.195   7.333   4.027
 8940TIP3    H226762   3.215   7.237   3.911
 8941TIP3   OH226763   5.119   1.171   0.088
 8941TIP3    H126764   5.118   1.172   0.183
 8941TIP3    H226765   5.056   1.102   0.064
 8942TIP3   OH226766   6.516   4.817   4.842
 8942TIP3    H126767   6.592   4.764   4.818
 8942TIP3    H226768   6.553   4.904   4.859
 8943TIP3   OH226769   2.286   6.519   1.810
 8943TIP3    H126770   2.275   6.462   1.734
 8943TIP3    H226771   2.234   6.477   1.878
 8944TIP3   OH226772   4.579   1.495   0.382
 8944TIP3    H126773   4.516   1.433   0.418
 8944TIP3    H226774   4.653   1.440   0.356
 8945TIP3   OH226775   6.006   1.782   1.468
 8945TIP3    H126776   6.011   1.875   1.491
 8945TIP3    H226777   6.076   1.769   1.404
 8946TIP3   OH226778   0.896   6.646   4.192
 8946TIP3    H126779   0.893   6.688   4.106
 8946TIP3    H226780   0.902   6.552   4.173
 8947TIP3   OH226781   7.321   0.908   0.038
 8947TIP3    H126782   7.342   0.977   0.101
 8947TIP3    H226783   7.389   0.914  -0.029
 8948TIP3   OH226784   7.530   4.114   5.356
 8948TIP3    H126785   7.444   4.084   5.328
 8948TIP3    H226786   7.534   4.206   5.327
 8949TIP3   OH226787   2.159   2.638   2.245
 8949TIP3    H126788   2.111   2.695   2.305
 8949TIP3    H226789   2.092   2.596   2.192
 8950TIP3   OH226790   6.798   3.316   4.373
 8950TIP3    H126791   6.813   3.407   4.399
 8950TIP3    H226792   6.875   3.269   4.404
 8951TIP3   OH226793   1.972   7.798   2.149
 8951TIP3    H126794   1.916   7.783   2.225
 8951TIP3    H226795   1.912   7.821   2.079
 8952TIP3   OH226796   2.034   1.560   0.432
 8952TIP3    H126797   2.007   1.630   0.372
 8952TIP3    H226798   2.100   1.511   0.383
 8953TIP3   OH226799   5.589   6.440   2.120
 8953TIP3    H126800   5.576   6.408   2.209
 8953TIP3    H226801   5.613   6.362   2.069
 8954TIP3   OH226802   5.709   7.156   0.978
 8954TIP3    H126803   5.790   7.201   0.957
 8954TIP3    H226804   5.726   7.064   0.956
 8955TIP3   OH226805   3.958   2.164   6.351
 8955TIP3    H126806   3.946   2.155   6.446
 8955TIP3    H226807   3.930   2.253   6.332
 8956TIP3   OH226808   0.310   7.579   0.876
 8956TIP3    H126809   0.318   7.639   0.950
 8956TIP3    H226810   0.327   7.493   0.914
 8957TIP3   OH226811   3.066   6.270   6.282
 8957TIP3    H126812   3.019   6.266   6.365
 8957TIP3    H226813   3.158   6.261   6.306
 8958TIP3   OH226814   3.535   3.845   2.206
 8958TIP3    H126815   3.510   3.847   2.298
 8958TIP3    H226816   3.521   3.934   2.174
 8959TIP3   OH226817   3.797   7.552   1.228
 8959TIP3    H126818   3.822   7.562   1.136
 8959TIP3    H226819   3.703   7.570   1.230
 8960TIP3   OH226820   5.051   0.859   4.353
 8960TIP3    H126821   5.024   0.885   4.265
 8960TIP3    H226822   4.975   0.875   4.408
 8961TIP3   OH226823   8.148   5.814   4.272
 8961TIP3    H126824   8.063   5.781   4.243
 8961TIP3    H226825   8.128   5.867   4.349
 8962TIP3   OH226826   8.272   0.909   1.111
 8962TIP3    H126827   8.320   0.868   1.184
 8962TIP3    H226828   8.250   0.996   1.143
 8963TIP3   OH226829   7.163   7.200   0.737
 8963TIP3    H126830   7.254   7.177   0.758
 8963TIP3    H226831   7.159   7.295   0.750
 8964TIP3   OH226832   5.397   1.696   0.204
 8964TIP3    H126833   5.468   1.755   0.229
 8964TIP3    H226834   5.395   1.699   0.108
 8965TIP3   OH226835   5.789   0.729   6.666
 8965TIP3    H126836   5.849   0.803   6.679
 8965TIP3    H226837   5.705   0.770   6.644
 8966TIP3   OH226838   1.275   5.952   3.543
 8966TIP3    H126839   1.295   5.996   3.460
 8966TIP3    H226840   1.342   5.984   3.604
 8967TIP3   OH226841   3.504   7.467   0.084
 8967TIP3    H126842   3.558   7.441   0.158
 8967TIP3    H226843   3.461   7.386   0.055
 8968TIP3   OH226844   0.767   3.831   3.713
 8968TIP3    H126845   0.859   3.826   3.740
 8968TIP3    H226846   0.758   3.919   3.677
 8969TIP3   OH226847   1.628   1.850   1.200
 8969TIP3    H126848   1.541   1.816   1.179
 8969TIP3    H226849   1.673   1.854   1.116
 8970TIP3   OH226850   3.898   1.827   6.543
 8970TIP3    H126851   3.886   1.922   6.551
 8970TIP3    H226852   3.839   1.789   6.609
 8971TIP3   OH226853   7.060   0.128   0.092
 8971TIP3    H126854   7.102   0.196   0.040
 8971TIP3    H226855   6.984   0.102   0.041
 8972TIP3   OH226856   4.619   6.692   5.118
 8972TIP3    H126857   4.527   6.694   5.095
 8972TIP3    H226858   4.655   6.773   5.081
 8973TIP3   OH226859   2.452   1.581   2.356
 8973TIP3    H126860   2.480   1.620   2.273
 8973TIP3    H226861   2.357   1.583   2.354
 8974TIP3   OH226862   4.108   4.938   6.315
 8974TIP3    H126863   4.157   4.875   6.368
 8974TIP3    H226864   4.138   4.923   6.226
 8975TIP3   OH226865   0.335   0.025   1.112
 8975TIP3    H126866   0.316  -0.059   1.154
 8975TIP3    H226867   0.251   0.055   1.078
 8976TIP3   OH226868   2.856   4.896   6.580
 8976TIP3    H126869   2.857   4.801   6.566
 8976TIP3    H226870   2.763   4.919   6.583
 8977TIP3   OH226871   2.996   1.236   3.315
 8977TIP3    H126872   3.068   1.229   3.377
 8977TIP3    H226873   2.929   1.177   3.349
 8978TIP3   OH226874   1.339   4.954   1.338
 8978TIP3    H126875   1.344   5.012   1.414
 8978TIP3    H226876   1.267   4.894   1.358
 8979TIP3   OH226877   5.227   4.461   1.942
 8979TIP3    H126878   5.262   4.545   1.972
 8979TIP3    H226879   5.286   4.396   1.979
 8980TIP3   OH226880   2.278   6.137   0.293
 8980TIP3    H126881   2.350   6.121   0.355
 8980TIP3    H226882   2.321   6.173   0.216
 8981TIP3   OH226883   0.377   1.283   3.107
 8981TIP3    H126884   0.422   1.206   3.143
 8981TIP3    H226885   0.400   1.354   3.167
 8982TIP3   OH226886   3.029   5.586   5.480
 8982TIP3    H126887   3.013   5.539   5.562
 8982TIP3    H226888   2.991   5.530   5.412
 8983TIP3   OH226889   8.345   2.940   2.702
 8983TIP3    H126890   8.272   2.969   2.647
 8983TIP3    H226891   8.421   2.946   2.644
 8984TIP3   OH226892   5.724   1.217   6.602
 8984TIP3    H126893   5.722   1.206   6.507
 8984TIP3    H226894   5.665   1.150   6.635
 8985TIP3   OH226895   0.693   0.603   4.754
 8985TIP3    H126896   0.759   0.533   4.754
 8985TIP3    H226897   0.722   0.663   4.823
 8986TIP3   OH226898   2.446   7.672   0.360
 8986TIP3    H126899   2.410   7.583   0.363
 8986TIP3    H226900   2.403   7.718   0.431
 8987TIP3   OH226901   7.222   0.622   1.624
 8987TIP3    H126902   7.185   0.660   1.704
 8987TIP3    H226903   7.260   0.697   1.577
 8988TIP3   OH226904   4.476   1.959   3.699
 8988TIP3    H126905   4.486   1.870   3.734
 8988TIP3    H226906   4.538   1.963   3.626
 8989TIP3   OH226907   1.903   1.963   3.588
 8989TIP3    H126908   1.981   1.918   3.622
 8989TIP3    H226909   1.929   2.055   3.582
 8990TIP3   OH226910   6.114   4.027   5.289
 8990TIP3    H126911   6.180   4.084   5.249
 8990TIP3    H226912   6.071   3.984   5.215
 8991TIP3   OH226913   1.805   2.448   5.099
 8991TIP3    H126914   1.758   2.368   5.120
 8991TIP3    H226915   1.780   2.510   5.168
 8992TIP3   OH226916   6.442   2.547   4.465
 8992TIP3    H126917   6.363   2.503   4.433
 8992TIP3    H226918   6.461   2.613   4.398
 8993TIP3   OH226919   5.656   2.627   1.278
 8993TIP3    H126920   5.729   2.662   1.330
 8993TIP3    H226921   5.625   2.552   1.328
 8994TIP3   OH226922   6.581   3.698   2.867
 8994TIP3    H126923   6.662   3.648   2.881
 8994TIP3    H226924   6.522   3.667   2.936
 8995TIP3   OH226925   7.052   7.741   1.090
 8995TIP3    H126926   7.049   7.776   1.179
 8995TIP3    H226927   7.126   7.681   1.090
 8996TIP3   OH226928   2.241   1.023   3.174
 8996TIP3    H126929   2.177   0.986   3.113
 8996TIP3    H226930   2.315   1.048   3.118
 8997TIP3   OH226931   5.181   3.184   4.774
 8997TIP3    H126932   5.099   3.205   4.728
 8997TIP3    H226933   5.249   3.223   4.720
 8998TIP3   OH226934   2.037   7.596   5.641
 8998TIP3    H126935   2.075   7.510   5.657
 8998TIP3    H226936   2.080   7.628   5.562
 8999TIP3   OH226937   3.168   2.096   6.740
 8999TIP3    H126938   3.212   2.145   6.809
 8999TIP3    H226939   3.234   2.087   6.671
 9000TIP3   OH226940   6.034   6.126   3.112
 9000TIP3    H126941   6.067   6.066   3.178
 9000TIP3    H226942   6.112   6.152   3.063
 9001TIP3   OH226943   6.201   6.028   4.451
 9001TIP3    H126944   6.256   6.043   4.528
 9001TIP3    H226945   6.152   5.949   4.471
 9002TIP3   OH226946   2.773   6.227   1.190
 9002TIP3    H126947   2.852   6.210   1.242
 9002TIP3    H226948   2.701   6.222   1.253
 9003TIP3   OH226949   1.393   0.660   3.742
 9003TIP3    H126950   1.416   0.575   3.779
 9003TIP3    H226951   1.400   0.720   3.816
 9004TIP3   OH226952   0.108   3.822   6.639
 9004TIP3    H126953   0.109   3.734   6.602
 9004TIP3    H226954   0.017   3.833   6.669
 9005TIP3   OH226955   7.550   1.385   5.749
 9005TIP3    H126956   7.600   1.309   5.778
 9005TIP3    H226957   7.591   1.459   5.795
 9006TIP3   OH226958   6.168   6.786   0.249
 9006TIP3    H126959   6.203   6.709   0.295
 9006TIP3    H226960   6.192   6.860   0.305
 9007TIP3   OH226961   4.380   5.577   0.056
 9007TIP3    H126962   4.383   5.547  -0.034
 9007TIP3    H226963   4.290   5.605   0.069
 9008TIP3   OH226964   4.675   4.365   3.448
 9008TIP3    H126965   4.711   4.453   3.434
 9008TIP3    H226966   4.615   4.353   3.374
 9009TIP3   OH226967   5.319   6.708   0.209
 9009TIP3    H126968   5.408   6.728   0.238
 9009TIP3    H226969   5.325   6.705   0.114
 9010TIP3   OH226970   3.650   1.964   5.475
 9010TIP3    H126971   3.683   1.915   5.550
 9010TIP3    H226972   3.643   2.054   5.506
 9011TIP3   OH226973   0.409   0.945   3.440
 9011TIP3    H126974   0.347   1.017   3.451
 9011TIP3    H226975   0.433   0.919   3.529
 9012TIP3   OH226976   5.985   2.784   1.162
 9012TIP3    H126977   5.984   2.825   1.248
 9012TIP3    H226978   5.975   2.690   1.180
 9013TIP3   OH226979   3.265   0.290   1.173
 9013TIP3    H126980   3.330   0.290   1.244
 9013TIP3    H226981   3.314   0.320   1.096
 9014TIP3   OH226982   0.709   5.016   2.842
 9014TIP3    H126983   0.639   5.016   2.908
 9014TIP3    H226984   0.757   5.097   2.858
 9015TIP3   OH226985   5.436   3.036   3.638
 9015TIP3    H126986   5.431   3.067   3.729
 9015TIP3    H226987   5.529   3.018   3.624
 9016TIP3   OH226988   1.890   6.624   0.652
 9016TIP3    H126989   1.956   6.684   0.687
 9016TIP3    H226990   1.922   6.602   0.565
 9017TIP3   OH226991   5.419   2.194   1.762
 9017TIP3    H126992   5.371   2.273   1.736
 9017TIP3    H226993   5.355   2.124   1.755
 9018TIP3   OH226994   6.940   7.236   5.549
 9018TIP3    H126995   6.983   7.322   5.543
 9018TIP3    H226996   6.923   7.212   5.458
 9019TIP3   OH226997   8.161   6.367   5.511
 9019TIP3    H126998   8.089   6.370   5.574
 9019TIP3    H226999   8.207   6.450   5.522
 9020TIP3   OH227000   5.349   0.927   3.634
 9020TIP3    H127001   5.420   0.864   3.629
 9020TIP3    H227002   5.379   1.001   3.581
 9021TIP3   OH227003   3.465   5.833   1.112
 9021TIP3    H127004   3.529   5.902   1.130
 9021TIP3    H227005   3.473   5.773   1.186
 9022TIP3   OH227006   2.712   6.417   4.934
 9022TIP3    H127007   2.709   6.337   4.881
 9022TIP3    H227008   2.663   6.481   4.884
 9023TIP3   OH227009   3.115   2.005   4.795
 9023TIP3    H127010   3.169   1.947   4.848
 9023TIP3    H227011   3.139   2.093   4.824
 9024TIP3   OH227012   3.003   2.957   0.441
 9024TIP3    H127013   3.095   2.980   0.452
 9024TIP3    H227014   2.968   2.952   0.529
 9025TIP3   OH227015   6.333   0.389   0.838
 9025TIP3    H127016   6.403   0.324   0.839
 9025TIP3    H227017   6.341   0.434   0.922
 9026TIP3   OH227018   7.736   7.120   5.644
 9026TIP3    H127019   7.677   7.100   5.717
 9026TIP3    H227020   7.760   7.212   5.657
 9027TIP3   OH227021   3.794   2.650   2.981
 9027TIP3    H127022   3.863   2.604   3.029
 9027TIP3    H227023   3.721   2.587   2.977
 9028TIP3   OH227024   0.861   4.524   5.439
 9028TIP3    H127025   0.870   4.448   5.496
 9028TIP3    H227026   0.810   4.494   5.365
 9029TIP3   OH227027   0.210   4.242   1.350
 9029TIP3    H127028   0.193   4.175   1.284
 9029TIP3    H227029   0.284   4.208   1.401
 9030TIP3   OH227030   6.120   3.726   5.471
 9030TIP3    H127031   6.179   3.801   5.459
 9030TIP3    H227032   6.101   3.726   5.565
 9031TIP3   OH227033   5.353   7.079   0.504
 9031TIP3    H127034   5.414   7.151   0.522
 9031TIP3    H227035   5.391   7.004   0.551
 9032TIP3   OH227036   7.275   2.794   0.758
 9032TIP3    H127037   7.250   2.815   0.668
 9032TIP3    H227038   7.367   2.820   0.764
 9033TIP3   OH227039   6.172   2.189   2.894
 9033TIP3    H127040   6.111   2.252   2.933
 9033TIP3    H227041   6.118   2.136   2.836
 9034TIP3   OH227042   3.393   2.569   2.113
 9034TIP3    H127043   3.366   2.654   2.079
 9034TIP3    H227044   3.479   2.554   2.073
 9035TIP3   OH227045   6.303   3.277   0.769
 9035TIP3    H127046   6.218   3.254   0.731
 9035TIP3    H227047   6.291   3.266   0.863
 9036TIP3   OH227048   5.861   6.692   3.098
 9036TIP3    H127049   5.792   6.644   3.053
 9036TIP3    H227050   5.816   6.738   3.169
 9037TIP3   OH227051   8.053   2.647   1.061
 9037TIP3    H127052   8.065   2.563   1.018
 9037TIP3    H227053   8.057   2.627   1.155
 9038TIP3   OH227054   2.748   3.005   2.782
 9038TIP3    H127055   2.788   3.067   2.721
 9038TIP3    H227056   2.656   3.033   2.789
 9039TIP3   OH227057   4.509   6.241   6.404
 9039TIP3    H127058   4.501   6.231   6.499
 9039TIP3    H227059   4.419   6.246   6.373
 9040TIP3   OH227060   6.819   0.035   6.080
 9040TIP3    H127061   6.860  -0.046   6.109
 9040TIP3    H227062   6.795   0.080   6.160
 9041TIP3   OH227063   5.194   5.120   6.040
 9041TIP3    H127064   5.211   5.214   6.032
 9041TIP3    H227065   5.099   5.112   6.030
 9042TIP3   OH227066   4.668   1.998   1.852
 9042TIP3    H127067   4.690   1.911   1.886
 9042TIP3    H227068   4.722   2.059   1.903
 9043TIP3   OH227069   2.514   1.476   0.249
 9043TIP3    H127070   2.586   1.459   0.188
 9043TIP3    H227071   2.533   1.562   0.286
 9044TIP3   OH227072   8.256   0.846   2.322
 9044TIP3    H127073   8.326   0.815   2.264
 9044TIP3    H227074   8.277   0.939   2.336
 9045TIP3   OH227075   7.471   6.707   5.078
 9045TIP3    H127076   7.460   6.624   5.125
 9045TIP3    H227077   7.498   6.681   4.990
 9046TIP3   OH227078   6.072   7.641   0.674
 9046TIP3    H127079   6.106   7.714   0.622
 9046TIP3    H227080   6.141   7.575   0.671
 9047TIP3   OH227081   3.682   4.686   5.338
 9047TIP3    H127082   3.738   4.737   5.396
 9047TIP3    H227083   3.739   4.662   5.265
 9048TIP3   OH227084   7.030   0.110   2.477
 9048TIP3    H127085   7.004   0.162   2.553
 9048TIP3    H227086   6.957   0.048   2.464
 9049TIP3   OH227087   5.052   0.176   0.433
 9049TIP3    H127088   5.002   0.245   0.477
 9049TIP3    H227089   5.118   0.223   0.382
 9050TIP3   OH227090   5.598   6.701   2.415
 9050TIP3    H127091   5.640   6.672   2.334
 9050TIP3    H227092   5.568   6.790   2.395
 9051TIP3   OH227093   4.824   4.854   0.138
 9051TIP3    H127094   4.853   4.768   0.106
 9051TIP3    H227095   4.730   4.845   0.148
 9052TIP3   OH227096   7.496   7.480   6.156
 9052TIP3    H127097   7.440   7.548   6.116
 9052TIP3    H227098   7.475   7.485   6.250
 9053TIP3   OH227099   2.464   7.380   4.488
 9053TIP3    H127100   2.422   7.450   4.438
 9053TIP3    H227101   2.551   7.372   4.449
 9054TIP3   OH227102   6.600   0.741   1.511
 9054TIP3    H127103   6.531   0.698   1.562
 9054TIP3    H227104   6.676   0.740   1.569
 9055TIP3   OH227105   4.017   1.178   0.901
 9055TIP3    H127106   4.016   1.084   0.881
 9055TIP3    H227107   4.105   1.207   0.876
 9056TIP3   OH227108   6.578   3.851   4.246
 9056TIP3    H127109   6.545   3.770   4.285
 9056TIP3    H227110   6.568   3.916   4.315
 9057TIP3   OH227111   7.038   1.941   1.853
 9057TIP3    H127112   7.005   1.896   1.775
 9057TIP3    H227113   7.115   1.890   1.879
 9058TIP3   OH227114   4.291   6.123   1.916
 9058TIP3    H127115   4.256   6.208   1.890
 9058TIP3    H227116   4.385   6.129   1.896
 9059TIP3   OH227117   3.660   5.979   4.003
 9059TIP3    H127118   3.697   6.061   3.972
 9059TIP3    H227119   3.575   6.002   4.039
 9060TIP3   OH227120   1.738   2.636   3.337
 9060TIP3    H127121   1.704   2.549   3.318
 9060TIP3    H227122   1.710   2.654   3.427
 9061TIP3   OH227123   7.267   5.252   5.840
 9061TIP3    H127124   7.222   5.283   5.919
 9061TIP3    H227125   7.223   5.299   5.768
 9062TIP3   OH227126   7.728   3.884   1.754
 9062TIP3    H127127   7.787   3.952   1.721
 9062TIP3    H227128   7.654   3.884   1.694
 9063TIP3   OH227129   6.039   3.911   2.407
 9063TIP3    H127130   6.046   4.006   2.416
 9063TIP3    H227131   6.003   3.898   2.319
 9064TIP3   OH227132   6.838   5.071   3.914
 9064TIP3    H127133   6.912   5.011   3.929
 9064TIP3    H227134   6.778   5.053   3.986
 9065TIP3   OH227135   6.872   4.011   0.771
 9065TIP3    H127136   6.779   4.002   0.751
 9065TIP3    H227137   6.895   4.097   0.736
 9066TIP3   OH227138   3.642   4.722   4.966
 9066TIP3    H127139   3.640   4.641   5.016
 9066TIP3    H227140   3.663   4.790   5.031
 9067TIP3   OH227141   0.081   0.203   1.277
 9067TIP3    H127142   0.072   0.173   1.367
 9067TIP3    H227143  -0.005   0.188   1.238
 9068TIP3   OH227144   4.782   6.305   3.947
 9068TIP3    H127145   4.755   6.388   3.987
 9068TIP3    H227146   4.872   6.322   3.917
 9069TIP3   OH227147   1.376   2.600   1.159
 9069TIP3    H127148   1.444   2.536   1.181
 9069TIP3    H227149   1.303   2.547   1.127
 9070TIP3   OH227150   3.532   7.640   6.579
 9070TIP3    H127151   3.557   7.666   6.490
 9070TIP3    H227152   3.579   7.558   6.594
 9071TIP3   OH227153   5.199   0.211   2.626
 9071TIP3    H127154   5.172   0.147   2.692
 9071TIP3    H227155   5.125   0.216   2.566
 9072TIP3   OH227156   7.320   5.230   6.752
 9072TIP3    H127157   7.377   5.286   6.805
 9072TIP3    H227158   7.232   5.263   6.768
 9073TIP3   OH227159   1.613   3.517   4.918
 9073TIP3    H127160   1.599   3.529   5.012
 9073TIP3    H227161   1.706   3.495   4.910
 9074TIP3   OH227162   5.961   3.573   4.907
 9074TIP3    H127163   5.984   3.493   4.954
 9074TIP3    H227164   5.932   3.634   4.975
 9075TIP3   OH227165   2.451   5.578   3.524
 9075TIP3    H127166   2.415   5.492   3.547
 9075TIP3    H227167   2.439   5.631   3.602
 9076TIP3   OH227168   8.038   0.736   4.746
 9076TIP3    H127169   8.093   0.742   4.667
 9076TIP3    H227170   8.009   0.645   4.747
 9077TIP3   OH227171   0.658   0.909   5.938
 9077TIP3    H127172   0.706   0.975   5.988
 9077TIP3    H227173   0.567   0.922   5.961
 9078TIP3   OH227174   7.666   2.000   6.755
 9078TIP3    H127175   7.643   2.092   6.742
 9078TIP3    H227176   7.744   2.002   6.811
 9079TIP3   OH227177   2.130   3.396   1.487
 9079TIP3    H127178   2.119   3.490   1.497
 9079TIP3    H227179   2.102   3.378   1.397
 9080TIP3   OH227180   4.905   2.973   0.654
 9080TIP3    H127181   4.885   2.895   0.705
 9080TIP3    H227182   4.999   2.985   0.665
 9081TIP3   OH227183   6.128   2.162   3.635
 9081TIP3    H127184   6.089   2.076   3.627
 9081TIP3    H227185   6.087   2.214   3.566
 9082TIP3   OH227186   5.419   0.638   0.898
 9082TIP3    H127187   5.433   0.544   0.884
 9082TIP3    H227188   5.357   0.663   0.830
 9083TIP3   OH227189   7.273   4.470   4.591
 9083TIP3    H127190   7.245   4.399   4.649
 9083TIP3    H227191   7.192   4.505   4.555
 9084TIP3   OH227192   0.031   0.203   1.548
 9084TIP3    H127193  -0.039   0.267   1.537
 9084TIP3    H227194   0.086   0.238   1.617
 9085TIP3   OH227195   3.606   0.929   5.639
 9085TIP3    H127196   3.635   0.838   5.643
 9085TIP3    H227197   3.682   0.981   5.666
 9086TIP3   OH227198   3.345   1.608   5.329
 9086TIP3    H127199   3.363   1.702   5.324
 9086TIP3    H227200   3.377   1.582   5.415
 9087TIP3   OH227201   7.518   7.440   6.436
 9087TIP3    H127202   7.605   7.404   6.423
 9087TIP3    H227203   7.469   7.370   6.479
 9088TIP3   OH227204   1.643   7.824   0.847
 9088TIP3    H127205   1.570   7.873   0.885
 9088TIP3    H227206   1.604   7.777   0.774
 9089TIP3   OH227207   5.621   5.565   6.259
 9089TIP3    H127208   5.607   5.476   6.290
 9089TIP3    H227209   5.705   5.561   6.213
 9090TIP3   OH227210   5.225   2.819   6.705
 9090TIP3    H127211   5.249   2.757   6.774
 9090TIP3    H227212   5.188   2.893   6.752
 9091TIP3   OH227213   1.499   6.082   2.314
 9091TIP3    H127214   1.544   6.029   2.380
 9091TIP3    H227215   1.445   6.019   2.266
 9092TIP3   OH227216   1.877   2.094   3.316
 9092TIP3    H127217   1.876   2.145   3.397
 9092TIP3    H227218   1.807   2.132   3.263
 9093TIP3   OH227219   0.652   6.007   5.853
 9093TIP3    H127220   0.646   5.912   5.862
 9093TIP3    H227221   0.744   6.028   5.873
 9094TIP3   OH227222   7.576   7.047   3.994
 9094TIP3    H127223   7.606   7.109   3.928
 9094TIP3    H227224   7.649   7.041   4.056
 9095TIP3   OH227225   2.053   6.402   3.031
 9095TIP3    H127226   1.977   6.459   3.026
 9095TIP3    H227227   2.020   6.315   3.008
 9096TIP3   OH227228   4.536   4.758   0.642
 9096TIP3    H127229   4.522   4.735   0.550
 9096TIP3    H227230   4.451   4.790   0.672
 9097TIP3   OH227231   7.387   5.832   5.096
 9097TIP3    H127232   7.359   5.783   5.173
 9097TIP3    H227233   7.308   5.840   5.042
 9098TIP3   OH227234   5.637   4.424   0.178
 9098TIP3    H127235   5.629   4.331   0.159
 9098TIP3    H227236   5.636   4.430   0.273
 9099TIP3   OH227237   7.720   0.205   2.692
 9099TIP3    H127238   7.813   0.193   2.675
 9099TIP3    H227239   7.705   0.165   2.777
 9100TIP3   OH227240   6.144   7.033   4.152
 9100TIP3    H127241   6.176   7.011   4.240
 9100TIP3    H227242   6.060   7.077   4.168
 9101TIP3   OH227243   1.769   4.316   5.997
 9101TIP3    H127244   1.710   4.256   5.951
 9101TIP3    H227245   1.833   4.342   5.931
 9102TIP3   OH227246   0.797   4.284   0.694
 9102TIP3    H127247   0.799   4.378   0.677
 9102TIP3    H227248   0.857   4.247   0.629
 9103TIP3   OH227249   3.981   1.152   0.353
 9103TIP3    H127250   4.000   1.186   0.440
 9103TIP3    H227251   3.886   1.164   0.342
 9104TIP3   OH227252   7.789   6.666   1.527
 9104TIP3    H127253   7.875   6.706   1.514
 9104TIP3    H227254   7.745   6.678   1.443
 9105TIP3   OH227255   4.063   2.756   6.399
 9105TIP3    H127256   4.103   2.678   6.435
 9105TIP3    H227257   4.136   2.807   6.364
 9106TIP3   OH227258   2.542   3.719   3.135
 9106TIP3    H127259   2.617   3.736   3.192
 9106TIP3    H227260   2.571   3.646   3.080
 9107TIP3   OH227261   7.551   3.843   3.386
 9107TIP3    H127262   7.552   3.898   3.464
 9107TIP3    H227263   7.607   3.769   3.408
 9108TIP3   OH227264   4.097   3.296   1.012
 9108TIP3    H127265   4.019   3.295   0.956
 9108TIP3    H227266   4.169   3.311   0.951
 9109TIP3   OH227267   2.722   1.622   2.931
 9109TIP3    H127268   2.675   1.695   2.893
 9109TIP3    H227269   2.784   1.595   2.863
 9110TIP3   OH227270   1.853   0.176   3.123
 9110TIP3    H127271   1.898   0.135   3.196
 9110TIP3    H227272   1.920   0.228   3.079
 9111TIP3   OH227273   8.212   3.629   0.460
 9111TIP3    H127274   8.163   3.578   0.524
 9111TIP3    H227275   8.259   3.564   0.408
 9112TIP3   OH227276   7.223   5.686   6.371
 9112TIP3    H127277   7.139   5.676   6.326
 9112TIP3    H227278   7.224   5.617   6.437
 9113TIP3   OH227279   1.803   7.512   2.250
 9113TIP3    H127280   1.733   7.526   2.186
 9113TIP3    H227281   1.801   7.418   2.267
 9114TIP3   OH227282   3.581   4.232   5.783
 9114TIP3    H127283   3.521   4.300   5.752
 9114TIP3    H227284   3.587   4.171   5.710
 9115TIP3   OH227285   0.552   1.841   0.491
 9115TIP3    H127286   0.585   1.827   0.402
 9115TIP3    H227287   0.515   1.929   0.489
 9116TIP3   OH227288   3.354   2.914   0.591
 9116TIP3    H127289   3.260   2.927   0.574
 9116TIP3    H227290   3.376   2.980   0.657
 9117TIP3   OH227291   2.079   1.646   1.930
 9117TIP3    H127292   2.106   1.702   1.857
 9117TIP3    H227293   1.987   1.627   1.913
 9118TIP3   OH227294   5.272   5.057   5.713
 9118TIP3    H127295   5.329   5.026   5.783
 9118TIP3    H227296   5.207   5.111   5.757
 9119TIP3   OH227297   0.139   3.822   5.265
 9119TIP3    H127298   0.097   3.907   5.248
 9119TIP3    H227299   0.068   3.767   5.298
 9120TIP3   OH227300   3.438   3.011   4.115
 9120TIP3    H127301   3.370   2.975   4.172
 9120TIP3    H227302   3.420   2.974   4.029
 9121TIP3   OH227303   6.802   1.490   3.934
 9121TIP3    H127304   6.846   1.538   3.864
 9121TIP3    H227305   6.719   1.463   3.896
 9122TIP3   OH227306   6.320   7.724   5.975
 9122TIP3    H127307   6.308   7.642   5.926
 9122TIP3    H227308   6.342   7.696   6.064
 9123TIP3   OH227309   1.634   6.694   4.649
 9123TIP3    H127310   1.675   6.767   4.601
 9123TIP3    H227311   1.698   6.670   4.716
 9124TIP3   OH227312   5.040   0.243   1.137
 9124TIP3    H127313   5.093   0.301   1.082
 9124TIP3    H227314   5.021   0.295   1.215
 9125TIP3   OH227315   4.545   6.170   1.840
 9125TIP3    H127316   4.582   6.121   1.767
 9125TIP3    H227317   4.618   6.186   1.899
 9126TIP3   OH227318   6.658   4.352   5.900
 9126TIP3    H127319   6.648   4.373   5.808
 9126TIP3    H227320   6.713   4.422   5.935
 9127TIP3   OH227321   4.530   1.567   2.018
 9127TIP3    H127322   4.480   1.647   2.031
 9127TIP3    H227323   4.585   1.559   2.096
 9128TIP3   OH227324   6.234   3.805   6.629
 9128TIP3    H127325   6.239   3.821   6.535
 9128TIP3    H227326   6.282   3.724   6.643
 9129TIP3   OH227327   4.225   6.987   6.531
 9129TIP3    H127328   4.246   6.958   6.620
 9129TIP3    H227329   4.226   7.082   6.536
 9130TIP3   OH227330   4.440   3.251   3.775
 9130TIP3    H127331   4.460   3.344   3.770
 9130TIP3    H227332   4.461   3.226   3.865
 9131TIP3   OH227333   1.556   7.857   5.480
 9131TIP3    H127334   1.587   7.787   5.538
 9131TIP3    H227335   1.465   7.835   5.461
 9132TIP3   OH227336   0.511   2.912   2.630
 9132TIP3    H127337   0.421   2.890   2.653
 9132TIP3    H227338   0.553   2.827   2.614
 9133TIP3   OH227339   7.073   0.559   6.410
 9133TIP3    H127340   7.105   0.647   6.389
 9133TIP3    H227341   7.060   0.560   6.504
 9134TIP3   OH227342   1.074   4.369   5.293
 9134TIP3    H127343   1.162   4.335   5.273
 9134TIP3    H227344   1.087   4.425   5.369
 9135TIP3   OH227345   3.223   3.974   3.067
 9135TIP3    H127346   3.294   3.931   3.114
 9135TIP3    H227347   3.168   4.012   3.136
 9136TIP3   OH227348   7.494   1.832   0.964
 9136TIP3    H127349   7.452   1.914   0.988
 9136TIP3    H227350   7.425   1.781   0.922
 9137TIP3   OH227351   1.321   7.893   3.875
 9137TIP3    H127352   1.347   7.978   3.911
 9137TIP3    H227353   1.309   7.837   3.952
 9138TIP3   OH227354   8.363   7.489   5.047
 9138TIP3    H127355   8.435   7.543   5.015
 9138TIP3    H227356   8.372   7.492   5.143
 9139TIP3   OH227357   2.689   1.734   5.816
 9139TIP3    H127358   2.714   1.791   5.743
 9139TIP3    H227359   2.773   1.706   5.853
 9140TIP3   OH227360   7.060   4.230   5.456
 9140TIP3    H127361   7.090   4.165   5.393
 9140TIP3    H227362   7.140   4.265   5.496
 9141TIP3   OH227363   6.196   6.723   3.758
 9141TIP3    H127364   6.271   6.672   3.726
 9141TIP3    H227365   6.123   6.695   3.703
 9142TIP3   OH227366   2.403   2.858   5.827
 9142TIP3    H127367   2.320   2.812   5.842
 9142TIP3    H227368   2.444   2.860   5.913
 9143TIP3   OH227369   5.754   6.840   1.938
 9143TIP3    H127370   5.753   6.919   1.884
 9143TIP3    H227371   5.814   6.781   1.892
 9144TIP3   OH227372   3.165   1.828   6.356
 9144TIP3    H127373   3.137   1.866   6.439
 9144TIP3    H227374   3.200   1.742   6.379
 9145TIP3   OH227375   2.810   5.972   0.275
 9145TIP3    H127376   2.874   6.033   0.240
 9145TIP3    H227377   2.809   5.990   0.369
 9146TIP3   OH227378   4.437   6.925   1.186
 9146TIP3    H127379   4.515   6.870   1.194
 9146TIP3    H227380   4.456   7.002   1.239
 9147TIP3   OH227381   1.391   3.974   1.251
 9147TIP3    H127382   1.387   4.064   1.220
 9147TIP3    H227383   1.354   3.922   1.180
 9148TIP3   OH227384   1.222   5.852   1.601
 9148TIP3    H127385   1.252   5.885   1.517
 9148TIP3    H227386   1.133   5.886   1.610
 9149TIP3   OH227387   2.517   6.748   4.072
 9149TIP3    H127388   2.448   6.691   4.105
 9149TIP3    H227389   2.588   6.689   4.048
 9150TIP3   OH227390   7.839   0.589   4.991
 9150TIP3    H127391   7.810   0.672   5.027
 9150TIP3    H227392   7.931   0.581   5.019
 9151TIP3   OH227393   0.352   3.555   1.974
 9151TIP3    H127394   0.412   3.621   1.939
 9151TIP3    H227395   0.334   3.584   2.063
 9152TIP3   OH227396   3.153   7.145   6.481
 9152TIP3    H127397   3.147   7.114   6.391
 9152TIP3    H227398   3.107   7.229   6.482
 9153TIP3   OH227399   7.689   2.827   3.346
 9153TIP3    H127400   7.681   2.907   3.294
 9153TIP3    H227401   7.599   2.802   3.367
 9154TIP3   OH227402   0.072   6.040   2.843
 9154TIP3    H127403   0.014   6.115   2.838
 9154TIP3    H227404   0.125   6.044   2.763
 9155TIP3   OH227405   4.622   0.027   5.523
 9155TIP3    H127406   4.528   0.042   5.518
 9155TIP3    H227407   4.641  -0.031   5.450
 9156TIP3   OH227408   4.976   1.636   3.949
 9156TIP3    H127409   5.057   1.625   3.899
 9156TIP3    H227410   4.957   1.549   3.984
 9157TIP3   OH227411   7.958   4.063   2.786
 9157TIP3    H127412   7.892   4.012   2.833
 9157TIP3    H227413   8.033   4.004   2.777
 9158TIP3   OH227414   7.719   3.468   5.862
 9158TIP3    H127415   7.699   3.376   5.881
 9158TIP3    H227416   7.644   3.516   5.898
 9159TIP3   OH227417   3.777   3.685   5.749
 9159TIP3    H127418   3.710   3.721   5.808
 9159TIP3    H227419   3.858   3.688   5.799
 9160TIP3   OH227420   0.636   7.769   6.496
 9160TIP3    H127421   0.646   7.824   6.418
 9160TIP3    H227422   0.665   7.824   6.569
 9161TIP3   OH227423   1.668   2.045   3.831
 9161TIP3    H127424   1.763   2.044   3.819
 9161TIP3    H227425   1.651   1.981   3.900
 9162TIP3   OH227426   7.756   0.637   0.483
 9162TIP3    H127427   7.732   0.702   0.550
 9162TIP3    H227428   7.680   0.635   0.424
 9163TIP3   OH227429   5.557   2.982   6.256
 9163TIP3    H127430   5.467   3.008   6.235
 9163TIP3    H227431   5.610   3.057   6.232
 9164TIP3   OH227432   6.569   1.039   0.251
 9164TIP3    H127433   6.615   0.976   0.307
 9164TIP3    H227434   6.493   1.066   0.302
 9165TIP3   OH227435   0.545   5.763   5.616
 9165TIP3    H127436   0.591   5.800   5.541
 9165TIP3    H227437   0.460   5.807   5.616
 9166TIP3   OH227438   1.944   2.057   6.489
 9166TIP3    H127439   1.990   2.078   6.408
 9166TIP3    H227440   1.851   2.058   6.466
 9167TIP3   OH227441   0.359   7.204   4.545
 9167TIP3    H127442   0.315   7.207   4.630
 9167TIP3    H227443   0.371   7.110   4.528
 9168TIP3   OH227444   7.798   5.901   1.241
 9168TIP3    H127445   7.805   5.959   1.317
 9168TIP3    H227446   7.750   5.952   1.176
 9169TIP3   OH227447   4.947   5.923   0.362
 9169TIP3    H127448   4.874   5.946   0.305
 9169TIP3    H227449   4.925   5.962   0.447
 9170TIP3   OH227450   6.544   6.740   4.670
 9170TIP3    H127451   6.615   6.677   4.662
 9170TIP3    H227452   6.544   6.788   4.586
 9171TIP3   OH227453   3.495   3.963   4.265
 9171TIP3    H127454   3.588   3.944   4.263
 9171TIP3    H227455   3.458   3.914   4.192
 9172TIP3   OH227456   4.045   2.021   4.997
 9172TIP3    H127457   4.114   1.955   5.004
 9172TIP3    H227458   4.044   2.064   5.082
 9173TIP3   OH227459   0.525   6.137   0.441
 9173TIP3    H127460   0.484   6.182   0.515
 9173TIP3    H227461   0.478   6.054   0.435
 9174TIP3   OH227462   6.965   4.487   5.224
 9174TIP3    H127463   6.966   4.582   5.237
 9174TIP3    H227464   6.914   4.474   5.144
 9175TIP3   OH227465   0.243   5.150   2.022
 9175TIP3    H127466   0.261   5.202   2.100
 9175TIP3    H227467   0.321   5.159   1.969
 9176TIP3   OH227468   0.434   4.736   3.503
 9176TIP3    H127469   0.486   4.674   3.555
 9176TIP3    H227470   0.481   4.742   3.420
 9177TIP3   OH227471   0.994   1.450   5.769
 9177TIP3    H127472   0.962   1.536   5.741
 9177TIP3    H227473   1.038   1.466   5.853
 9178TIP3   OH227474   5.684   4.497   3.627
 9178TIP3    H127475   5.668   4.436   3.554
 9178TIP3    H227476   5.754   4.554   3.596
 9179TIP3   OH227477   5.681   3.724   6.372
 9179TIP3    H127478   5.616   3.676   6.320
 9179TIP3    H227479   5.631   3.795   6.413
 9180TIP3   OH227480   4.725   0.972   4.176
 9180TIP3    H127481   4.678   0.985   4.094
 9180TIP3    H227482   4.664   0.923   4.231
 9181TIP3   OH227483   7.019   4.864   4.770
 9181TIP3    H127484   7.071   4.890   4.694
 9181TIP3    H227485   7.064   4.905   4.845
 9182TIP3   OH227486   1.417   1.614   5.193
 9182TIP3    H127487   1.414   1.710   5.197
 9182TIP3    H227488   1.346   1.585   5.250
 9183TIP3   OH227489   6.523   0.968   5.947
 9183TIP3    H127490   6.578   1.044   5.969
 9183TIP3    H227491   6.529   0.961   5.852
 9184TIP3   OH227492   7.772   2.994   4.124
 9184TIP3    H127493   7.748   2.926   4.188
 9184TIP3    H227494   7.692   3.011   4.075
 9185TIP3   OH227495   0.391   7.095   3.373
 9185TIP3    H127496   0.405   7.173   3.319
 9185TIP3    H227497   0.369   7.130   3.460
 9186TIP3   OH227498   5.880   0.676   1.839
 9186TIP3    H127499   5.946   0.742   1.819
 9186TIP3    H227500   5.922   0.593   1.817
 9187TIP3   OH227501   2.300   6.610   6.495
 9187TIP3    H127502   2.344   6.650   6.569
 9187TIP3    H227503   2.319   6.669   6.422
 9188TIP3   OH227504   1.921   4.185   6.848
 9188TIP3    H127505   1.999   4.192   6.793
 9188TIP3    H227506   1.955   4.185   6.937
 9189TIP3   OH227507   5.528   7.796   2.113
 9189TIP3    H127508   5.573   7.837   2.186
 9189TIP3    H227509   5.435   7.807   2.133
 9190TIP3   OH227510   1.598   4.198   1.816
 9190TIP3    H127511   1.604   4.281   1.769
 9190TIP3    H227512   1.549   4.218   1.896
 9191TIP3   OH227513   7.455   0.958   6.412
 9191TIP3    H127514   7.416   0.886   6.362
 9191TIP3    H227515   7.399   0.965   6.489
 9192TIP3   OH227516   6.394   0.284   5.563
 9192TIP3    H127517   6.304   0.279   5.531
 9192TIP3    H227518   6.388   0.268   5.657
 9193TIP3   OH227519   6.377   0.286   4.142
 9193TIP3    H127520   6.303   0.318   4.194
 9193TIP3    H227521   6.427   0.233   4.203
 9194TIP3   OH227522   6.708   2.840   3.500
 9194TIP3    H127523   6.636   2.784   3.472
 9194TIP3    H227524   6.786   2.802   3.459
 9195TIP3   OH227525   1.760   7.193   0.110
 9195TIP3    H127526   1.804   7.225   0.030
 9195TIP3    H227527   1.790   7.253   0.178
 9196TIP3   OH227528   6.133   6.734   3.210
 9196TIP3    H127529   6.054   6.729   3.157
 9196TIP3    H227530   6.199   6.685   3.160
 9197TIP3   OH227531   4.416   7.864   1.490
 9197TIP3    H127532   4.353   7.791   1.489
 9197TIP3    H227533   4.363   7.941   1.472
 9198TIP3   OH227534   4.991   3.007   2.868
 9198TIP3    H127535   4.986   2.929   2.923
 9198TIP3    H227536   4.938   3.072   2.915
 9199TIP3   OH227537   3.797   0.338   2.539
 9199TIP3    H127538   3.712   0.312   2.575
 9199TIP3    H227539   3.832   0.401   2.602
 9200TIP3   OH227540   2.007   2.978   5.123
 9200TIP3    H127541   1.923   3.003   5.084
 9200TIP3    H227542   1.994   2.887   5.151
 9201TIP3   OH227543   2.302   0.268   1.508
 9201TIP3    H127544   2.295   0.344   1.566
 9201TIP3    H227545   2.224   0.274   1.452
 9202TIP3   OH227546   5.150   2.369   2.545
 9202TIP3    H127547   5.100   2.292   2.518
 9202TIP3    H227548   5.107   2.399   2.625
 9203TIP3   OH227549   0.863   6.507   6.625
 9203TIP3    H127550   0.859   6.581   6.686
 9203TIP3    H227551   0.785   6.455   6.644
 9204TIP3   OH227552   2.227   0.853   2.776
 9204TIP3    H127553   2.203   0.943   2.756
 9204TIP3    H227554   2.302   0.834   2.720
 9205TIP3   OH227555   0.540   3.238   0.672
 9205TIP3    H127556   0.569   3.225   0.762
 9205TIP3    H227557   0.444   3.244   0.678
 9206TIP3   OH227558   8.218   4.780   5.523
 9206TIP3    H127559   8.249   4.858   5.477
 9206TIP3    H227560   8.296   4.742   5.562
 9207TIP3   OH227561   3.480   7.606   6.096
 9207TIP3    H127562   3.460   7.516   6.123
 9207TIP3    H227563   3.406   7.632   6.041
 9208TIP3   OH227564   5.011   2.479   5.861
 9208TIP3    H127565   4.927   2.435   5.847
 9208TIP3    H227566   5.055   2.475   5.776
 9209TIP3   OH227567   0.512   4.334   3.440
 9209TIP3    H127568   0.507   4.266   3.507
 9209TIP3    H227569   0.421   4.359   3.423
 9210TIP3   OH227570   4.954   7.756   5.781
 9210TIP3    H127571   4.997   7.842   5.784
 9210TIP3    H227572   4.918   7.745   5.869
 9211TIP3   OH227573   0.144   7.245   2.509
 9211TIP3    H127574   0.227   7.266   2.466
 9211TIP3    H227575   0.167   7.181   2.576
 9212TIP3   OH227576   0.614   7.396   3.017
 9212TIP3    H127577   0.610   7.467   3.081
 9212TIP3    H227578   0.549   7.332   3.047
 9213TIP3   OH227579   1.000   5.757   4.217
 9213TIP3    H127580   1.091   5.761   4.186
 9213TIP3    H227581   0.992   5.668   4.253
 9214TIP3   OH227582   5.898   2.880   1.986
 9214TIP3    H127583   5.928   2.880   2.077
 9214TIP3    H227584   5.940   2.957   1.947
 9215TIP3   OH227585   7.955   7.088   4.946
 9215TIP3    H127586   7.890   7.158   4.956
 9215TIP3    H227587   7.914   7.012   4.988
 9216TIP3   OH227588   1.624   4.829   0.727
 9216TIP3    H127589   1.580   4.914   0.721
 9216TIP3    H227590   1.687   4.829   0.655
 9217TIP3   OH227591   0.898   2.668   2.501
 9217TIP3    H127592   0.977   2.715   2.527
 9217TIP3    H227593   0.884   2.693   2.410
 9218TIP3   OH227594   0.210   3.660   4.078
 9218TIP3    H127595   0.196   3.749   4.112
 9218TIP3    H227596   0.294   3.664   4.033
 9219TIP3   OH227597   6.083   2.639   4.074
 9219TIP3    H127598   6.132   2.560   4.054
 9219TIP3    H227599   6.087   2.691   3.993
 9220TIP3   OH227600   4.207   0.043   0.942
 9220TIP3    H127601   4.209   0.101   1.018
 9220TIP3    H227602   4.181  -0.042   0.977
 9221TIP3   OH227603   6.667   4.979   0.862
 9221TIP3    H127604   6.660   4.938   0.948
 9221TIP3    H227605   6.590   4.948   0.814
 9222TIP3   OH227606   7.596   5.029   2.842
 9222TIP3    H127607   7.651   5.095   2.883
 9222TIP3    H227608   7.658   4.971   2.798
 9223TIP3   OH227609   3.667   7.362   6.586
 9223TIP3    H127610   3.575   7.341   6.598
 9223TIP3    H227611   3.711   7.277   6.583
 9224TIP3   OH227612   7.826   6.043   0.933
 9224TIP3    H127613   7.733   6.030   0.952
 9224TIP3    H227614   7.828   6.118   0.874
 9225TIP3   OH227615   5.051   5.187   2.868
 9225TIP3    H127616   5.134   5.140   2.870
 9225TIP3    H227617   5.001   5.145   2.799
 9226TIP3   OH227618   7.202   0.966   2.931
 9226TIP3    H127619   7.145   0.906   2.883
 9226TIP3    H227620   7.271   0.988   2.869
 9227TIP3   OH227621   0.259   6.809   1.768
 9227TIP3    H127622   0.333   6.769   1.722
 9227TIP3    H227623   0.244   6.752   1.843
 9228TIP3   OH227624   1.345   3.665   0.681
 9228TIP3    H127625   1.334   3.570   0.677
 9228TIP3    H227626   1.436   3.679   0.704
 9229TIP3   OH227627   2.237   5.641   5.764
 9229TIP3    H127628   2.187   5.688   5.697
 9229TIP3    H227629   2.263   5.710   5.826
 9230TIP3   OH227630   6.218   7.035   2.594
 9230TIP3    H127631   6.159   6.969   2.630
 9230TIP3    H227632   6.207   7.111   2.651
 9231TIP3   OH227633   7.192   3.926   4.516
 9231TIP3    H127634   7.246   3.871   4.573
 9231TIP3    H227635   7.217   4.015   4.539
 9232TIP3   OH227636   7.819   1.444   5.566
 9232TIP3    H127637   7.801   1.418   5.656
 9232TIP3    H227638   7.741   1.491   5.538
 9233TIP3   OH227639   1.761   4.508   1.940
 9233TIP3    H127640   1.761   4.523   2.035
 9233TIP3    H227641   1.684   4.556   1.908
 9234TIP3   OH227642   7.103   4.917   3.907
 9234TIP3    H127643   7.112   4.915   3.812
 9234TIP3    H227644   7.159   4.989   3.936
 9235TIP3   OH227645   2.222   5.515   3.257
 9235TIP3    H127646   2.251   5.444   3.315
 9235TIP3    H227647   2.130   5.495   3.239
 9236TIP3   OH227648   3.389   1.313   6.175
 9236TIP3    H127649   3.373   1.219   6.179
 9236TIP3    H227650   3.317   1.348   6.122
 9237TIP3   OH227651   1.357   3.722   2.025
 9237TIP3    H127652   1.449   3.705   2.044
 9237TIP3    H227653   1.309   3.673   2.093
 9238TIP3   OH227654   7.460   6.386   4.805
 9238TIP3    H127655   7.394   6.345   4.749
 9238TIP3    H227656   7.499   6.312   4.853
 9239TIP3   OH227657   6.772   7.401   0.871
 9239TIP3    H127658   6.744   7.391   0.780
 9239TIP3    H227659   6.691   7.423   0.918
 9240TIP3   OH227660   5.187   5.451   4.667
 9240TIP3    H127661   5.150   5.526   4.713
 9240TIP3    H227662   5.273   5.481   4.637
 9241TIP3   OH227663   3.256   0.459   6.567
 9241TIP3    H127664   3.286   0.506   6.489
 9241TIP3    H227665   3.337   0.435   6.612
 9242TIP3   OH227666   1.955   5.059   0.172
 9242TIP3    H127667   1.947   5.127   0.105
 9242TIP3    H227668   1.906   4.985   0.137
 9243TIP3   OH227669   8.285   5.598   6.098
 9243TIP3    H127670   8.262   5.614   6.189
 9243TIP3    H227671   8.234   5.521   6.074
 9244TIP3   OH227672   3.013   1.724   3.007
 9244TIP3    H127673   3.079   1.731   3.076
 9244TIP3    H227674   2.998   1.814   2.979
 9245TIP3   OH227675   7.455   7.348   5.052
 9245TIP3    H127676   7.478   7.440   5.038
 9245TIP3    H227677   7.363   7.342   5.026
 9246TIP3   OH227678   3.367   0.266   6.292
 9246TIP3    H127679   3.281   0.245   6.327
 9246TIP3    H227680   3.349   0.315   6.212
 9247TIP3   OH227681   2.517   0.113   4.931
 9247TIP3    H127682   2.533   0.194   4.883
 9247TIP3    H227683   2.598   0.099   4.981
 9248TIP3   OH227684   4.829   0.779   1.097
 9248TIP3    H127685   4.797   0.867   1.117
 9248TIP3    H227686   4.898   0.792   1.033
 9249TIP3   OH227687   0.487   5.281   0.772
 9249TIP3    H127688   0.398   5.251   0.788
 9249TIP3    H227689   0.528   5.286   0.859
 9250TIP3   OH227690   4.160   3.274   6.527
 9250TIP3    H127691   4.090   3.226   6.483
 9250TIP3    H227692   4.233   3.273   6.465
 9251TIP3   OH227693   0.430   2.353   0.798
 9251TIP3    H127694   0.447   2.443   0.825
 9251TIP3    H227695   0.389   2.313   0.875
 9252TIP3   OH227696   5.698   5.613   3.789
 9252TIP3    H127697   5.670   5.565   3.867
 9252TIP3    H227698   5.662   5.701   3.801
 9253TIP3   OH227699   0.934   6.558   5.326
 9253TIP3    H127700   1.007   6.592   5.274
 9253TIP3    H227701   0.856   6.589   5.279
 9254TIP3   OH227702   8.193   2.485   4.715
 9254TIP3    H127703   8.263   2.537   4.755
 9254TIP3    H227704   8.180   2.525   4.629
 9255TIP3   OH227705   1.047   0.859   4.933
 9255TIP3    H127706   1.119   0.804   4.903
 9255TIP3    H227707   0.990   0.799   4.982
 9256TIP3   OH227708   1.103   3.322   3.565
 9256TIP3    H127709   1.184   3.270   3.561
 9256TIP3    H227710   1.070   3.321   3.475
 9257TIP3   OH227711   4.794   5.677   0.352
 9257TIP3    H127712   4.845   5.757   0.339
 9257TIP3    H227713   4.848   5.624   0.411
 9258TIP3   OH227714   1.257   1.514   5.893
 9258TIP3    H127715   1.242   1.426   5.927
 9258TIP3    H227716   1.342   1.540   5.930
 9259TIP3   OH227717   7.700   6.956   4.803
 9259TIP3    H127718   7.655   6.990   4.880
 9259TIP3    H227719   7.647   6.987   4.729
 9260TIP3   OH227720   4.713   0.544   5.901
 9260TIP3    H127721   4.729   0.573   5.811
 9260TIP3    H227722   4.625   0.575   5.921
 9261TIP3   OH227723   1.201   1.415   2.009
 9261TIP3    H127724   1.150   1.485   1.968
 9261TIP3    H227725   1.195   1.433   2.103
 9262TIP3   OH227726   4.682   1.386   0.681
 9262TIP3    H127727   4.629   1.458   0.715
 9262TIP3    H227728   4.744   1.428   0.621
 9263TIP3   OH227729   1.711   4.049   1.240
 9263TIP3    H127730   1.793   4.097   1.245
 9263TIP3    H227731   1.645   4.111   1.271
 9264TIP3   OH227732   4.166   3.865   4.788
 9264TIP3    H127733   4.103   3.894   4.722
 9264TIP3    H227734   4.207   3.945   4.819
 9265TIP3   OH227735   2.417   6.077   4.360
 9265TIP3    H127736   2.498   6.125   4.379
 9265TIP3    H227737   2.444   5.986   4.350
 9266TIP3   OH227738   6.894   2.317   2.378
 9266TIP3    H127739   6.843   2.388   2.416
 9266TIP3    H227740   6.948   2.360   2.311
 9267TIP3   OH227741   8.241   2.174   3.542
 9267TIP3    H127742   8.288   2.120   3.478
 9267TIP3    H227743   8.304   2.241   3.568
 9268TIP3   OH227744   8.273   5.192   0.105
 9268TIP3    H127745   8.289   5.104   0.070
 9268TIP3    H227746   8.359   5.234   0.102
 9269TIP3   OH227747   1.910   7.174   4.637
 9269TIP3    H127748   1.965   7.252   4.647
 9269TIP3    H227749   1.934   7.119   4.712
 9270TIP3   OH227750   0.630   3.045   6.717
 9270TIP3    H127751   0.692   2.978   6.744
 9270TIP3    H227752   0.553   3.031   6.772
 9271TIP3   OH227753   6.362   5.618   1.742
 9271TIP3    H127754   6.311   5.688   1.701
 9271TIP3    H227755   6.367   5.549   1.676
 9272TIP3   OH227756   1.674   6.413   4.040
 9272TIP3    H127757   1.666   6.508   4.037
 9272TIP3    H227758   1.589   6.380   4.014
 9273TIP3   OH227759   3.126   1.352   6.407
 9273TIP3    H127760   3.132   1.259   6.388
 9273TIP3    H227761   3.076   1.389   6.334
 9274TIP3   OH227762   6.305   5.353   2.340
 9274TIP3    H127763   6.326   5.434   2.386
 9274TIP3    H227764   6.314   5.375   2.247
 9275TIP3   OH227765   5.559   0.414   5.433
 9275TIP3    H127766   5.580   0.495   5.387
 9275TIP3    H227767   5.481   0.434   5.485
 9276TIP3   OH227768   1.334   4.443   1.728
 9276TIP3    H127769   1.430   4.442   1.723
 9276TIP3    H227770   1.312   4.535   1.742
 9277TIP3   OH227771   0.718   5.398   4.139
 9277TIP3    H127772   0.636   5.379   4.184
 9277TIP3    H227773   0.751   5.313   4.111
 9278TIP3   OH227774   0.278   7.119   1.341
 9278TIP3    H127775   0.224   7.054   1.386
 9278TIP3    H227776   0.307   7.074   1.261
 9279TIP3   OH227777   2.439   7.285   3.715
 9279TIP3    H127778   2.467   7.240   3.794
 9279TIP3    H227779   2.346   7.264   3.707
 9280TIP3   OH227780   5.863   0.467   3.397
 9280TIP3    H127781   5.896   0.450   3.486
 9280TIP3    H227782   5.914   0.543   3.367
 9281TIP3   OH227783   4.220   7.065   1.469
 9281TIP3    H127784   4.217   7.159   1.489
 9281TIP3    H227785   4.310   7.049   1.442
 9282TIP3   OH227786   5.937   4.143   6.792
 9282TIP3    H127787   5.967   4.231   6.767
 9282TIP3    H227788   5.864   4.159   6.851
 9283TIP3   OH227789   7.265   5.336   5.230
 9283TIP3    H127790   7.231   5.373   5.311
 9283TIP3    H227791   7.240   5.400   5.162
 9284TIP3   OH227792   3.868   7.016   2.854
 9284TIP3    H127793   3.776   7.006   2.832
 9284TIP3    H227794   3.868   7.054   2.942
 9285TIP3   OH227795   3.474   4.782   4.761
 9285TIP3    H127796   3.524   4.769   4.842
 9285TIP3    H227797   3.383   4.786   4.790
 9286TIP3   OH227798   6.100   1.541   1.627
 9286TIP3    H127799   6.060   1.600   1.563
 9286TIP3    H227800   6.074   1.453   1.598
 9287TIP3   OH227801   2.103   5.694   1.736
 9287TIP3    H127802   2.110   5.788   1.719
 9287TIP3    H227803   2.119   5.652   1.652
 9288TIP3   OH227804   6.194   1.141   1.605
 9288TIP3    H127805   6.176   1.076   1.672
 9288TIP3    H227806   6.285   1.124   1.579
 9289TIP3   OH227807   8.173   3.759   0.776
 9289TIP3    H127808   8.182   3.702   0.852
 9289TIP3    H227809   8.127   3.705   0.711
 9290TIP3   OH227810   1.342   6.801   0.987
 9290TIP3    H127811   1.278   6.752   0.934
 9290TIP3    H227812   1.292   6.831   1.063
 9291TIP3   OH227813   0.635   0.908   6.553
 9291TIP3    H127814   0.676   0.983   6.595
 9291TIP3    H227815   0.671   0.906   6.465
 9292TIP3   OH227816   4.030   1.169   1.625
 9292TIP3    H127817   3.960   1.144   1.565
 9292TIP3    H227818   4.023   1.107   1.697
 9293TIP3   OH227819   0.813   6.852   3.553
 9293TIP3    H127820   0.756   6.922   3.521
 9293TIP3    H227821   0.753   6.789   3.592
 9294TIP3   OH227822   6.058   6.978   1.886
 9294TIP3    H127823   6.068   6.883   1.898
 9294TIP3    H227824   6.143   7.007   1.854
 9295TIP3   OH227825   3.687   1.195   4.142
 9295TIP3    H127826   3.599   1.178   4.109
 9295TIP3    H227827   3.688   1.157   4.230
 9296TIP3   OH227828   4.850   7.214   0.460
 9296TIP3    H127829   4.827   7.305   0.479
 9296TIP3    H227830   4.921   7.193   0.520
 9297TIP3   OH227831   2.980   7.175   2.817
 9297TIP3    H127832   2.885   7.185   2.825
 9297TIP3    H227833   2.993   7.128   2.735
 9298TIP3   OH227834   6.231   7.870   3.242
 9298TIP3    H127835   6.234   7.854   3.337
 9298TIP3    H227836   6.177   7.799   3.208
 9299TIP3   OH227837   1.473   4.028   6.030
 9299TIP3    H127838   1.471   4.082   5.951
 9299TIP3    H227839   1.565   4.003   6.040
 9300TIP3   OH227840   3.248   2.087   1.669
 9300TIP3    H127841   3.204   2.144   1.606
 9300TIP3    H227842   3.182   2.022   1.692
 9301TIP3   OH227843   3.665   7.453   1.858
 9301TIP3    H127844   3.672   7.434   1.951
 9301TIP3    H227845   3.578   7.423   1.833
 9302TIP3   OH227846   6.139   3.595   2.059
 9302TIP3    H127847   6.232   3.593   2.035
 9302TIP3    H227848   6.137   3.561   2.148
 9303TIP3   OH227849   0.288   3.656   6.205
 9303TIP3    H127850   0.381   3.640   6.217
 9303TIP3    H227851   0.283   3.746   6.172
 9304TIP3   OH227852   1.268   7.906   5.202
 9304TIP3    H127853   1.322   7.832   5.173
 9304TIP3    H227854   1.291   7.977   5.142
 9305TIP3   OH227855   7.925   5.140   6.452
 9305TIP3    H127856   7.984   5.163   6.524
 9305TIP3    H227857   7.840   5.127   6.495
 9306TIP3   OH227858   2.375   0.676   5.553
 9306TIP3    H127859   2.303   0.691   5.492
 9306TIP3    H227860   2.350   0.724   5.632
 9307TIP3   OH227861   5.571   0.164   1.722
 9307TIP3    H127862   5.482   0.143   1.748
 9307TIP3    H227863   5.610   0.080   1.698
 9308TIP3   OH227864   0.943   4.270   4.868
 9308TIP3    H127865   0.880   4.332   4.829
 9308TIP3    H227866   1.025   4.287   4.822
 9309TIP3   OH227867   5.598   4.020   2.299
 9309TIP3    H127868   5.639   4.103   2.277
 9309TIP3    H227869   5.628   3.959   2.231
 9310TIP3   OH227870   3.448   5.949   4.163
 9310TIP3    H127871   3.472   5.862   4.196
 9310TIP3    H227872   3.380   5.931   4.098
 9311TIP3   OH227873   6.375   1.754   4.777
 9311TIP3    H127874   6.395   1.841   4.745
 9311TIP3    H227875   6.457   1.706   4.769
 9312TIP3   OH227876   3.200   5.717   4.796
 9312TIP3    H127877   3.106   5.697   4.800
 9312TIP3    H227878   3.212   5.785   4.862
 9313TIP3   OH227879   3.777   7.068   6.566
 9313TIP3    H127880   3.843   7.062   6.636
 9313TIP3    H227881   3.694   7.050   6.609
 9314TIP3   OH227882   6.303   4.698   0.104
 9314TIP3    H127883   6.335   4.739   0.184
 9314TIP3    H227884   6.221   4.743   0.084
 9315TIP3   OH227885   5.502   5.062   6.700
 9315TIP3    H127886   5.580   5.078   6.752
 9315TIP3    H227887   5.465   4.981   6.736
 9316TIP3   OH227888   2.756   6.747   2.246
 9316TIP3    H127889   2.795   6.667   2.210
 9316TIP3    H227890   2.807   6.765   2.324
 9317TIP3   OH227891   1.417   7.653   1.784
 9317TIP3    H127892   1.413   7.655   1.688
 9317TIP3    H227893   1.384   7.566   1.808
 9318TIP3   OH227894   7.282   3.158   6.420
 9318TIP3    H127895   7.257   3.101   6.347
 9318TIP3    H227896   7.256   3.110   6.498
 9319TIP3   OH227897   0.310   7.173   1.845
 9319TIP3    H127898   0.368   7.107   1.881
 9319TIP3    H227899   0.296   7.235   1.916
 9320TIP3   OH227900   7.801   1.844   3.457
 9320TIP3    H127901   7.737   1.875   3.521
 9320TIP3    H227902   7.881   1.893   3.478
 9321TIP3   OH227903   0.917   7.703   0.176
 9321TIP3    H127904   0.857   7.754   0.122
 9321TIP3    H227905   0.908   7.741   0.264
 9322TIP3   OH227906   1.344   2.987   5.010
 9322TIP3    H127907   1.392   2.907   5.030
 9322TIP3    H227908   1.371   3.011   4.922
 9323TIP3   OH227909   7.663   1.042   6.657
 9323TIP3    H127910   7.668   0.948   6.675
 9323TIP3    H227911   7.705   1.052   6.571
 9324TIP3   OH227912   6.295   3.045   6.490
 9324TIP3    H127913   6.200   3.059   6.500
 9324TIP3    H227914   6.327   3.037   6.580
 9325TIP3   OH227915   5.499   4.103   0.835
 9325TIP3    H127916   5.580   4.154   0.837
 9325TIP3    H227917   5.465   4.115   0.746
 9326TIP3   OH227918   2.747   2.226   0.080
 9326TIP3    H127919   2.658   2.248   0.054
 9326TIP3    H227920   2.766   2.144   0.034
 9327TIP3   OH227921   6.858   0.811   4.134
 9327TIP3    H127922   6.880   0.723   4.163
 9327TIP3    H227923   6.868   0.866   4.212
 9328TIP3   OH227924   0.475   4.983   0.929
 9328TIP3    H127925   0.389   4.979   0.971
 9328TIP3    H227926   0.533   4.937   0.990
 9329TIP3   OH227927   7.241   5.811   2.874
 9329TIP3    H127928   7.163   5.798   2.927
 9329TIP3    H227929   7.238   5.903   2.847
 9330TIP3   OH227930   6.777   6.890   5.508
 9330TIP3    H127931   6.863   6.873   5.469
 9330TIP3    H227932   6.790   6.969   5.561
 9331TIP3   OH227933   8.364   3.716   2.092
 9331TIP3    H127934   8.311   3.794   2.078
 9331TIP3    H227935   8.454   3.744   2.072
 9332TIP3   OH227936   4.820   3.471   1.327
 9332TIP3    H127937   4.755   3.469   1.398
 9332TIP3    H227938   4.773   3.510   1.253
 9333TIP3   OH227939   0.971   7.099   4.846
 9333TIP3    H127940   0.955   7.096   4.752
 9333TIP3    H227941   0.957   7.190   4.870
 9334TIP3   OH227942   1.341   0.436   3.099
 9334TIP3    H127943   1.327   0.499   3.170
 9334TIP3    H227944   1.275   0.369   3.113
 9335TIP3   OH227945   0.393   5.581   3.596
 9335TIP3    H127946   0.300   5.604   3.598
 9335TIP3    H227947   0.420   5.584   3.688
 9336TIP3   OH227948   3.829   6.470   2.122
 9336TIP3    H127949   3.786   6.417   2.054
 9336TIP3    H227950   3.868   6.405   2.181
 9337TIP3   OH227951   6.333   5.157   6.681
 9337TIP3    H127952   6.273   5.110   6.739
 9337TIP3    H227953   6.284   5.166   6.599
 9338TIP3   OH227954   2.631   1.181   2.694
 9338TIP3    H127955   2.627   1.216   2.783
 9338TIP3    H227956   2.540   1.158   2.674
 9339TIP3   OH227957   1.636   3.486   5.529
 9339TIP3    H127958   1.645   3.475   5.624
 9339TIP3    H227959   1.604   3.401   5.498
 9340TIP3   OH227960   0.620   5.010   4.344
 9340TIP3    H127961   0.689   4.945   4.356
 9340TIP3    H227962   0.553   4.965   4.292
 9341TIP3   OH227963   2.104   5.496   0.318
 9341TIP3    H127964   2.060   5.547   0.250
 9341TIP3    H227965   2.040   5.491   0.390
 9342TIP3   OH227966   0.160   5.297   6.396
 9342TIP3    H127967   0.256   5.290   6.394
 9342TIP3    H227968   0.131   5.212   6.429
 9343TIP3   OH227969   3.147   7.857   2.304
 9343TIP3    H127970   3.056   7.882   2.320
 9343TIP3    H227971   3.179   7.921   2.240
 9344TIP3   OH227972   5.365   4.750   6.458
 9344TIP3    H127973   5.332   4.837   6.479
 9344TIP3    H227974   5.353   4.700   6.539
 9345TIP3   OH227975   7.281   4.384   5.557
 9345TIP3    H127976   7.268   4.476   5.579
 9345TIP3    H227977   7.375   4.369   5.566
 9346TIP3   OH227978   4.883   6.510   5.424
 9346TIP3    H127979   4.950   6.526   5.357
 9346TIP3    H227980   4.800   6.517   5.377
 9347TIP3   OH227981   5.968   7.636   3.577
 9347TIP3    H127982   5.948   7.563   3.636
 9347TIP3    H227983   5.942   7.604   3.491
 9348TIP3   OH227984   5.382   7.859   3.811
 9348TIP3    H127985   5.353   7.775   3.777
 9348TIP3    H227986   5.459   7.838   3.864
 9349TIP3   OH227987   2.853   3.466   3.084
 9349TIP3    H127988   2.850   3.408   3.007
 9349TIP3    H227989   2.768   3.510   3.084
 9350TIP3   OH227990   5.020   0.250   6.606
 9350TIP3    H127991   5.042   0.248   6.699
 9350TIP3    H227992   4.938   0.299   6.601
 9351TIP3   OH227993   5.887   3.144   5.668
 9351TIP3    H127994   5.842   3.228   5.670
 9351TIP3    H227995   5.884   3.118   5.576
 9352TIP3   OH227996   0.804   1.591   3.413
 9352TIP3    H127997   0.749   1.668   3.401
 9352TIP3    H227998   0.828   1.594   3.506
 9353TIP3   OH227999   0.804   7.052   2.980
 9353TIP3    H128000   0.825   7.145   2.973
 9353TIP3    H228001   0.744   7.047   3.055
 9354TIP3   OH228002   4.482   7.360   5.167
 9354TIP3    H128003   4.467   7.270   5.138
 9354TIP3    H228004   4.573   7.361   5.197
 9355TIP3   OH228005   1.910   1.662   0.190
 9355TIP3    H128006   1.822   1.683   0.220
 9355TIP3    H228007   1.898   1.584   0.136
 9356TIP3   OH228008   8.071   6.072   6.298
 9356TIP3    H128009   8.010   6.083   6.225
 9356TIP3    H228010   8.146   6.025   6.261
 9357TIP3   OH228011   1.307   6.174   3.046
 9357TIP3    H128012   1.223   6.146   3.083
 9357TIP3    H228013   1.305   6.269   3.052
 9358TIP3   OH228014   8.137   1.327   4.851
 9358TIP3    H128015   8.101   1.273   4.921
 9358TIP3    H228016   8.218   1.283   4.826
 9359TIP3   OH228017   6.614   0.640   4.791
 9359TIP3    H128018   6.564   0.561   4.772
 9359TIP3    H228019   6.553   0.712   4.774
 9360TIP3   OH228020   4.759   6.044   3.402
 9360TIP3    H128021   4.702   6.098   3.347
 9360TIP3    H228022   4.700   6.003   3.465
 9361TIP3   OH228023   2.148   6.641   0.494
 9361TIP3    H128024   2.118   6.714   0.440
 9361TIP3    H228025   2.163   6.570   0.431
 9362TIP3   OH228026   2.877   3.280   2.889
 9362TIP3    H128027   2.852   3.270   2.797
 9362TIP3    H228028   2.860   3.195   2.928
 9363TIP3   OH228029   3.018   4.286   0.547
 9363TIP3    H128030   3.103   4.244   0.560
 9363TIP3    H228031   2.963   4.217   0.509
 9364TIP3   OH228032   5.186   3.895   0.718
 9364TIP3    H128033   5.115   3.876   0.779
 9364TIP3    H228034   5.266   3.874   0.766
 9365TIP3   OH228035   3.933   7.613   2.136
 9365TIP3    H128036   3.946   7.523   2.106
 9365TIP3    H228037   3.838   7.619   2.152
 9366TIP3   OH228038   2.092   0.616   3.161
 9366TIP3    H128039   2.079   0.589   3.252
 9366TIP3    H228040   2.060   0.706   3.157
 9367TIP3   OH228041   4.122   4.406   2.464
 9367TIP3    H128042   4.140   4.478   2.525
 9367TIP3    H228043   4.126   4.327   2.517
 9368TIP3   OH228044   0.684   4.402   4.124
 9368TIP3    H128045   0.709   4.410   4.216
 9368TIP3    H228046   0.759   4.357   4.083
 9369TIP3   OH228047   7.798   3.379   6.648
 9369TIP3    H128048   7.893   3.371   6.653
 9369TIP3    H228049   7.770   3.395   6.738
 9370TIP3   OH228050   1.677   3.063   4.391
 9370TIP3    H128051   1.617   2.989   4.402
 9370TIP3    H228052   1.739   3.055   4.463
 9371TIP3   OH228053   5.457   7.568   6.483
 9371TIP3    H128054   5.489   7.607   6.402
 9371TIP3    H228055   5.407   7.491   6.455
 9372TIP3   OH228056   7.213   7.330   4.859
 9372TIP3    H128057   7.258   7.245   4.858
 9372TIP3    H228058   7.242   7.374   4.780
 9373TIP3   OH228059   7.806   4.331   2.902
 9373TIP3    H128060   7.801   4.282   2.984
 9373TIP3    H228061   7.837   4.267   2.837
 9374TIP3   OH228062   5.080   3.692   0.921
 9374TIP3    H128063   5.048   3.689   1.011
 9374TIP3    H228064   5.169   3.657   0.926
 9375TIP3   OH228065   6.348   6.692   1.851
 9375TIP3    H128066   6.391   6.668   1.769
 9375TIP3    H228067   6.402   6.763   1.886
 9376TIP3   OH228068   1.782   1.529   4.709
 9376TIP3    H128069   1.778   1.458   4.646
 9376TIP3    H228070   1.871   1.563   4.702
 9377TIP3   OH228071   1.469   1.137   0.290
 9377TIP3    H128072   1.505   1.206   0.234
 9377TIP3    H228073   1.541   1.074   0.299
 9378TIP3   OH228074   5.438   0.082   4.656
 9378TIP3    H128075   5.480   0.110   4.738
 9378TIP3    H228076   5.432   0.161   4.603
 9379TIP3   OH228077   5.493   7.113   1.985
 9379TIP3    H128078   5.499   7.156   2.070
 9379TIP3    H228079   5.583   7.112   1.952
 9380TIP3   OH228080   5.382   7.090   3.327
 9380TIP3    H128081   5.373   7.025   3.397
 9380TIP3    H228082   5.404   7.171   3.372
 9381TIP3   OH228083   2.171   2.711   5.931
 9381TIP3    H128084   2.136   2.719   6.020
 9381TIP3    H228085   2.219   2.628   5.932
 9382TIP3   OH228086   1.815   7.044   5.142
 9382TIP3    H128087   1.899   7.079   5.172
 9382TIP3    H228088   1.784   7.107   5.077
 9383TIP3   OH228089   0.393   0.765   4.292
 9383TIP3    H128090   0.441   0.705   4.235
 9383TIP3    H228091   0.412   0.734   4.381
 9384TIP3   OH228092   0.067   6.291   6.435
 9384TIP3    H128093   0.110   6.373   6.410
 9384TIP3    H228094   0.040   6.252   6.352
 9385TIP3   OH228095   7.915   5.163   4.615
 9385TIP3    H128096   7.993   5.191   4.567
 9385TIP3    H228097   7.936   5.075   4.645
 9386TIP3   OH228098   4.926   3.677   2.320
 9386TIP3    H128099   4.833   3.660   2.305
 9386TIP3    H228100   4.951   3.614   2.388
 9387TIP3   OH228101   3.819   0.732   5.169
 9387TIP3    H128102   3.877   0.806   5.188
 9387TIP3    H228103   3.862   0.657   5.211
 9388TIP3   OH228104   3.475   0.435   2.081
 9388TIP3    H128105   3.562   0.460   2.050
 9388TIP3    H228106   3.479   0.340   2.088
 9389TIP3   OH228107   3.997   2.087   2.300
 9389TIP3    H128108   4.014   2.125   2.214
 9389TIP3    H228109   3.901   2.089   2.308
 9390TIP3   OH228110   8.055   7.497   2.229
 9390TIP3    H128111   8.058   7.531   2.140
 9390TIP3    H228112   7.997   7.421   2.224
 9391TIP3   OH228113   5.085   3.098   2.395
 9391TIP3    H128114   5.005   3.100   2.342
 9391TIP3    H228115   5.058   3.130   2.481
 9392TIP3   OH228116   4.727   3.249   4.378
 9392TIP3    H128117   4.709   3.156   4.391
 9392TIP3    H228118   4.700   3.290   4.460
 9393TIP3   OH228119   3.170   6.091   6.002
 9393TIP3    H128120   3.233   6.158   6.028
 9393TIP3    H228121   3.179   6.083   5.907
 9394TIP3   OH228122   3.645   0.165   0.067
 9394TIP3    H128123   3.671   0.189   0.157
 9394TIP3    H228124   3.580   0.096   0.079
 9395TIP3   OH228125   3.253   2.861   0.046
 9395TIP3    H128126   3.189   2.915  -0.001
 9395TIP3    H228127   3.200   2.798   0.095
 9396TIP3   OH228128   1.558   5.840   4.435
 9396TIP3    H128129   1.512   5.830   4.519
 9396TIP3    H228130   1.621   5.769   4.433
 9397TIP3   OH228131   6.777   5.470   3.597
 9397TIP3    H128132   6.835   5.425   3.535
 9397TIP3    H228133   6.744   5.546   3.549
 9398TIP3   OH228134   3.961   0.497   6.190
 9398TIP3    H128135   3.882   0.484   6.136
 9398TIP3    H228136   3.985   0.409   6.219
 9399TIP3   OH228137   6.620   1.245   4.930
 9399TIP3    H128138   6.711   1.260   4.956
 9399TIP3    H228139   6.581   1.201   5.005
 9400TIP3   OH228140   3.842   0.875   1.631
 9400TIP3    H128141   3.842   0.928   1.551
 9400TIP3    H228142   3.808   0.933   1.699
 9401TIP3   OH228143   1.581   1.329   0.110
 9401TIP3    H128144   1.638   1.351   0.184
 9401TIP3    H228145   1.640   1.325   0.035
 9402TIP3   OH228146   5.004   6.553   2.836
 9402TIP3    H128147   4.911   6.568   2.817
 9402TIP3    H228148   5.005   6.513   2.923
 9403TIP3   OH228149   2.715   0.786   2.497
 9403TIP3    H128150   2.768   0.759   2.572
 9403TIP3    H228151   2.709   0.708   2.443
 9404TIP3   OH228152   4.546   7.594   6.661
 9404TIP3    H128153   4.482   7.531   6.629
 9404TIP3    H228154   4.521   7.677   6.621
 9405TIP3   OH228155   1.479   5.184   5.515
 9405TIP3    H128156   1.496   5.092   5.535
 9405TIP3    H228157   1.385   5.189   5.500
 9406TIP3   OH228158   2.033   4.304   0.234
 9406TIP3    H128159   1.971   4.242   0.197
 9406TIP3    H228160   2.108   4.251   0.261
 9407TIP3   OH228161   1.131   0.448   6.258
 9407TIP3    H128162   1.211   0.482   6.216
 9407TIP3    H228163   1.147   0.460   6.351
 9408TIP3   OH228164   5.722   5.933   3.879
 9408TIP3    H128165   5.672   6.014   3.867
 9408TIP3    H228166   5.809   5.952   3.843
 9409TIP3   OH228167   5.523   1.459   3.191
 9409TIP3    H128168   5.512   1.423   3.103
 9409TIP3    H228169   5.464   1.535   3.194
 9410TIP3   OH228170   5.865   7.399   1.793
 9410TIP3    H128171   5.893   7.441   1.874
 9410TIP3    H228172   5.805   7.330   1.821
 9411TIP3   OH228173   4.795   6.795   4.548
 9411TIP3    H128174   4.720   6.760   4.499
 9411TIP3    H228175   4.757   6.867   4.600
 9412TIP3   OH228176   6.267   3.563   2.676
 9412TIP3    H128177   6.355   3.551   2.640
 9412TIP3    H228178   6.258   3.493   2.740
 9413TIP3   OH228179   4.434   7.427   4.585
 9413TIP3    H128180   4.406   7.416   4.495
 9413TIP3    H228181   4.365   7.386   4.637
 9414TIP3   OH228182   5.986   5.800   4.148
 9414TIP3    H128183   5.909   5.746   4.131
 9414TIP3    H228184   6.036   5.750   4.213
 9415TIP3   OH228185   4.338   0.944   1.136
 9415TIP3    H128186   4.332   0.900   1.221
 9415TIP3    H228187   4.342   0.873   1.073
 9416TIP3   OH228188   3.993   1.591   5.216
 9416TIP3    H128189   4.051   1.541   5.273
 9416TIP3    H228190   3.998   1.681   5.249
 9417TIP3   OH228191   1.305   2.380   2.794
 9417TIP3    H128192   1.355   2.460   2.778
 9417TIP3    H228193   1.291   2.380   2.889
 9418TIP3   OH228194   2.289   2.149   2.590
 9418TIP3    H128195   2.280   2.168   2.497
 9418TIP3    H228196   2.229   2.075   2.605
 9419TIP3   OH228197   4.769   3.650   2.743
 9419TIP3    H128198   4.762   3.615   2.832
 9419TIP3    H228199   4.727   3.584   2.688
 9420TIP3   OH228200   5.084   7.880   5.988
 9420TIP3    H128201   5.049   7.969   5.974
 9420TIP3    H228202   5.131   7.886   6.071
 9421TIP3   OH228203   0.699   1.205   1.907
 9421TIP3    H128204   0.730   1.198   1.998
 9421TIP3    H228205   0.762   1.155   1.856
 9422TIP3   OH228206   4.725   0.305   6.562
 9422TIP3    H128207   4.685   0.358   6.493
 9422TIP3    H228208   4.682   0.220   6.554
 9423TIP3   OH228209   6.466   5.536   5.731
 9423TIP3    H128210   6.466   5.584   5.649
 9423TIP3    H228211   6.556   5.507   5.743
 9424TIP3   OH228212   7.999   6.182   1.389
 9424TIP3    H128213   8.048   6.258   1.421
 9424TIP3    H228214   7.981   6.202   1.297
 9425TIP3   OH228215   2.906   5.450   0.754
 9425TIP3    H128216   2.893   5.386   0.684
 9425TIP3    H228217   2.987   5.423   0.796
 9426TIP3   OH228218   1.998   0.965   5.754
 9426TIP3    H128219   1.949   0.917   5.821
 9426TIP3    H228220   1.958   1.052   5.754
 9427TIP3   OH228221   0.307   5.281   3.279
 9427TIP3    H128222   0.393   5.315   3.303
 9427TIP3    H228223   0.256   5.359   3.254
 9428TIP3   OH228224   7.366   5.120   3.446
 9428TIP3    H128225   7.413   5.203   3.436
 9428TIP3    H228226   7.419   5.069   3.507
 9429TIP3   OH228227   2.611   4.020   6.277
 9429TIP3    H128228   2.600   3.931   6.312
 9429TIP3    H228229   2.581   4.077   6.348
 9430TIP3   OH228230   5.129   1.835   0.278
 9430TIP3    H128231   5.062   1.816   0.213
 9430TIP3    H228232   5.206   1.788   0.247
 9431TIP3   OH228233   6.512   6.346   4.374
 9431TIP3    H128234   6.544   6.257   4.383
 9431TIP3    H228235   6.513   6.381   4.463
 9432TIP3   OH228236   2.680   2.309   5.122
 9432TIP3    H128237   2.655   2.289   5.212
 9432TIP3    H228238   2.747   2.245   5.100
 9433TIP3   OH228239   2.356   6.337   6.466
 9433TIP3    H128240   2.272   6.293   6.479
 9433TIP3    H228241   2.338   6.429   6.483
 9434TIP3   OH228242   6.643   5.694   2.738
 9434TIP3    H128243   6.675   5.775   2.776
 9434TIP3    H228244   6.549   5.707   2.729
 9435TIP3   OH228245   7.919   1.889   6.051
 9435TIP3    H128246   7.906   1.878   5.957
 9435TIP3    H228247   7.984   1.959   6.058
 9436TIP3   OH228248   6.150   2.154   4.322
 9436TIP3    H128249   6.055   2.164   4.326
 9436TIP3    H228250   6.183   2.244   4.318
 9437TIP3   OH228251   4.935   3.354   0.237
 9437TIP3    H128252   4.965   3.366   0.327
 9437TIP3    H228253   5.010   3.375   0.183
 9438TIP3   OH228254   5.452   3.298   6.192
 9438TIP3    H128255   5.365   3.336   6.182
 9438TIP3    H228256   5.444   3.241   6.269
 9439TIP3   OH228257   4.897   7.866   3.406
 9439TIP3    H128258   4.854   7.862   3.320
 9439TIP3    H228259   4.929   7.956   3.412
 9440TIP3   OH228260   0.875   5.701   5.801
 9440TIP3    H128261   0.789   5.705   5.844
 9440TIP3    H228262   0.893   5.607   5.793
 9441TIP3   OH228263   0.262   5.658   2.988
 9441TIP3    H128264   0.174   5.638   3.018
 9441TIP3    H228265   0.270   5.614   2.904
 9442TIP3   OH228266   7.349   6.238   0.969
 9442TIP3    H128267   7.328   6.316   0.918
 9442TIP3    H228268   7.283   6.236   1.038
 9443TIP3   OH228269   3.082   2.440   4.126
 9443TIP3    H128270   3.060   2.532   4.120
 9443TIP3    H228271   3.159   2.429   4.070
 9444TIP3   OH228272   4.802   7.777   1.256
 9444TIP3    H128273   4.745   7.811   1.188
 9444TIP3    H228274   4.796   7.682   1.246
 9445TIP3   OH228275   6.804   0.605   3.145
 9445TIP3    H128276   6.807   0.685   3.197
 9445TIP3    H228277   6.893   0.595   3.111
 9446TIP3   OH228278   1.242   1.513   2.271
 9446TIP3    H128279   1.310   1.553   2.326
 9446TIP3    H228280   1.160   1.534   2.315
 9447TIP3   OH228281   5.877   7.146   4.110
 9447TIP3    H128282   5.816   7.084   4.151
 9447TIP3    H228283   5.865   7.131   4.016
 9448TIP3   OH228284   3.660   4.352   1.207
 9448TIP3    H128285   3.627   4.366   1.119
 9448TIP3    H228286   3.588   4.379   1.264
 9449TIP3   OH228287   3.867   6.050   5.151
 9449TIP3    H128288   3.847   5.963   5.117
 9449TIP3    H228289   3.963   6.055   5.150
 9450TIP3   OH228290   0.320   3.367   4.111
 9450TIP3    H128291   0.271   3.449   4.104
 9450TIP3    H228292   0.272   3.306   4.055
 9451TIP3   OH228293   1.971   3.575   0.822
 9451TIP3    H128294   1.945   3.538   0.906
 9451TIP3    H228295   1.890   3.606   0.783
 9452TIP3   OH228296   0.531   0.552   2.465
 9452TIP3    H128297   0.519   0.554   2.370
 9452TIP3    H228298   0.449   0.517   2.500
 9453TIP3   OH228299   4.181   6.874   3.464
 9453TIP3    H128300   4.091   6.882   3.495
 9453TIP3    H228301   4.216   6.798   3.512
 9454TIP3   OH228302   5.657   0.198   6.743
 9454TIP3    H128303   5.720   0.269   6.750
 9454TIP3    H228304   5.709   0.118   6.755
 9455TIP3   OH228305   0.292   4.848   5.352
 9455TIP3    H128306   0.368   4.825   5.406
 9455TIP3    H228307   0.240   4.906   5.408
 9456TIP3   OH228308   3.522   1.793   3.915
 9456TIP3    H128309   3.507   1.719   3.975
 9456TIP3    H228310   3.553   1.864   3.971
 9457TIP3   OH228311   0.107   6.569   0.572
 9457TIP3    H128312   0.114   6.516   0.651
 9457TIP3    H228313   0.197   6.595   0.553
 9458TIP3   OH228314   7.592   1.347   1.341
 9458TIP3    H128315   7.562   1.427   1.384
 9458TIP3    H228316   7.638   1.298   1.410
 9459TIP3   OH228317   7.656   2.897   6.468
 9459TIP3    H128318   7.641   2.945   6.549
 9459TIP3    H228319   7.570   2.891   6.427
 9460TIP3   OH228320   0.720   4.382   2.723
 9460TIP3    H128321   0.704   4.428   2.806
 9460TIP3    H228322   0.676   4.298   2.734
 9461TIP3   OH228323   0.747   6.851   6.380
 9461TIP3    H128324   0.727   6.935   6.337
 9461TIP3    H228325   0.822   6.871   6.437
 9462TIP3   OH228326   3.150   6.571   3.642
 9462TIP3    H128327   3.217   6.507   3.621
 9462TIP3    H228328   3.068   6.521   3.644
 9463TIP3   OH228329   1.412   0.011   2.360
 9463TIP3    H128330   1.484  -0.052   2.347
 9463TIP3    H228331   1.391   0.041   2.272
 9464TIP3   OH228332   0.977   7.839   2.243
 9464TIP3    H128333   0.890   7.878   2.259
 9464TIP3    H228334   1.034   7.880   2.308
 9465TIP3   OH228335   4.371   7.217   1.728
 9465TIP3    H128336   4.295   7.188   1.778
 9465TIP3    H228337   4.334   7.260   1.651
 9466TIP3   OH228338   0.927   3.719   2.665
 9466TIP3    H128339   0.958   3.644   2.614
 9466TIP3    H228340   0.864   3.763   2.608
 9467TIP3   OH228341   3.727   4.042   2.124
 9467TIP3    H128342   3.700   4.034   2.215
 9467TIP3    H228343   3.752   4.134   2.114
 9468TIP3   OH228344   2.880   7.364   1.131
 9468TIP3    H128345   2.967   7.368   1.093
 9468TIP3    H228346   2.862   7.454   1.159
 9469TIP3   OH228347   6.281   1.335   2.995
 9469TIP3    H128348   6.371   1.307   2.978
 9469TIP3    H228349   6.227   1.280   2.939
 9470TIP3   OH228350   3.052   2.756   0.288
 9470TIP3    H128351   3.034   2.823   0.353
 9470TIP3    H228352   3.066   2.676   0.338
 9471TIP3   OH228353   1.690   3.217   0.489
 9471TIP3    H128354   1.768   3.254   0.531
 9471TIP3    H228355   1.719   3.132   0.456
 9472TIP3   OH228356   4.939   6.011   6.099
 9472TIP3    H128357   4.888   6.033   6.177
 9472TIP3    H228358   5.018   5.969   6.132
 9473TIP3   OH228359   6.929   5.756   6.297
 9473TIP3    H128360   6.983   5.833   6.281
 9473TIP3    H228361   6.870   5.752   6.222
 9474TIP3   OH228362   3.523   3.001   2.266
 9474TIP3    H128363   3.453   3.065   2.254
 9474TIP3    H228364   3.584   3.044   2.325
 9475TIP3   OH228365   3.999   2.716   1.201
 9475TIP3    H128366   4.023   2.797   1.246
 9475TIP3    H228367   3.927   2.741   1.143
 9476TIP3   OH228368   6.746   0.655   0.325
 9476TIP3    H128369   6.694   0.594   0.273
 9476TIP3    H228370   6.817   0.681   0.266
 9477TIP3   OH228371   5.416   7.538   6.203
 9477TIP3    H128372   5.412   7.613   6.143
 9477TIP3    H228373   5.335   7.490   6.186
 9478TIP3   OH228374   3.003   3.449   0.367
 9478TIP3    H128375   3.091   3.417   0.347
 9478TIP3    H228376   3.002   3.539   0.335
 9479TIP3   OH228377   0.284   5.894   0.976
 9479TIP3    H128378   0.276   5.924   1.066
 9479TIP3    H228379   0.283   5.974   0.924
 9480TIP3   OH228380   0.221   4.917   5.941
 9480TIP3    H128381   0.296   4.932   5.999
 9480TIP3    H228382   0.149   4.898   6.001
 9481TIP3   OH228383   0.885   4.860   0.522
 9481TIP3    H128384   0.920   4.946   0.545
 9481TIP3    H228385   0.790   4.873   0.521
 9482TIP3   OH228386   1.729   3.768   3.786
 9482TIP3    H128387   1.738   3.721   3.868
 9482TIP3    H228388   1.820   3.789   3.760
 9483TIP3   OH228389   1.106   4.196   3.271
 9483TIP3    H128390   1.191   4.209   3.230
 9483TIP3    H228391   1.076   4.111   3.239
 9484TIP3   OH228392   1.532   3.359   6.428
 9484TIP3    H128393   1.555   3.438   6.476
 9484TIP3    H228394   1.544   3.288   6.492
 9485TIP3   OH228395   3.992   0.080   6.045
 9485TIP3    H128396   4.072   0.119   6.011
 9485TIP3    H228397   4.018   0.036   6.125
 9486TIP3   OH228398   4.921   2.503   4.838
 9486TIP3    H128399   4.975   2.574   4.874
 9486TIP3    H228400   4.931   2.432   4.902
 9487TIP3   OH228401   3.903   2.273   2.502
 9487TIP3    H128402   3.982   2.277   2.448
 9487TIP3    H228403   3.844   2.338   2.464
 9488TIP3   OH228404   1.827   0.625   6.402
 9488TIP3    H128405   1.902   0.646   6.457
 9488TIP3    H228406   1.826   0.529   6.399
 9489TIP3   OH228407   5.267   0.056   3.747
 9489TIP3    H128408   5.292  -0.024   3.700
 9489TIP3    H228409   5.302   0.127   3.694
 9490TIP3   OH228410   7.755   4.212   6.568
 9490TIP3    H128411   7.707   4.295   6.573
 9490TIP3    H228412   7.844   4.234   6.594
 9491TIP3   OH228413   2.496   5.378   0.780
 9491TIP3    H128414   2.483   5.373   0.686
 9491TIP3    H228415   2.579   5.332   0.795
 9492TIP3   OH228416   1.524   0.311   1.274
 9492TIP3    H128417   1.579   0.371   1.323
 9492TIP3    H228418   1.577   0.232   1.263
 9493TIP3   OH228419   5.677   7.114   4.902
 9493TIP3    H128420   5.675   7.118   4.998
 9493TIP3    H228421   5.682   7.021   4.882
 9494TIP3   OH228422   4.662   4.347   4.346
 9494TIP3    H128423   4.748   4.308   4.362
 9494TIP3    H228424   4.614   4.334   4.428
 9495TIP3   OH228425   1.299   3.183   1.073
 9495TIP3    H128426   1.244   3.108   1.047
 9495TIP3    H228427   1.353   3.149   1.144
 9496TIP3   OH228428   4.251   2.916   5.512
 9496TIP3    H128429   4.252   2.835   5.460
 9496TIP3    H228430   4.253   2.887   5.603
 9497TIP3   OH228431   5.159   6.542   4.520
 9497TIP3    H128432   5.229   6.484   4.549
 9497TIP3    H228433   5.163   6.616   4.580
 9498TIP3   OH228434   1.564   3.080   0.145
 9498TIP3    H128435   1.543   2.998   0.190
 9498TIP3    H228436   1.655   3.071   0.119
 9499TIP3   OH228437   1.285   3.180   2.646
 9499TIP3    H128438   1.270   3.223   2.562
 9499TIP3    H228439   1.338   3.243   2.695
 9500TIP3   OH228440   3.447   2.620   5.664
 9500TIP3    H128441   3.496   2.666   5.596
 9500TIP3    H228442   3.509   2.610   5.737
 9501TIP3   OH228443   2.133   6.119   1.966
 9501TIP3    H128444   2.109   6.075   2.047
 9501TIP3    H228445   2.225   6.141   1.976
 9502TIP3   OH228446   3.466   5.341   6.199
 9502TIP3    H128447   3.562   5.349   6.195
 9502TIP3    H228448   3.447   5.260   6.152
 9503TIP3   OH228449   1.351   2.060   2.255
 9503TIP3    H128450   1.384   2.112   2.329
 9503TIP3    H228451   1.427   2.049   2.198
 9504TIP3   OH228452   1.235   3.908   4.920
 9504TIP3    H128453   1.210   3.974   4.985
 9504TIP3    H228454   1.293   3.849   4.968
 9505TIP3   OH228455   0.341   2.263   3.950
 9505TIP3    H128456   0.292   2.248   3.869
 9505TIP3    H228457   0.402   2.189   3.954
 9506TIP3   OH228458   3.558   3.111   0.515
 9506TIP3    H128459   3.502   3.045   0.474
 9506TIP3    H228460   3.559   3.088   0.608
 9507TIP3   OH228461   1.673   6.054   3.946
 9507TIP3    H128462   1.639   5.965   3.953
 9507TIP3    H228463   1.598   6.107   3.919
 9508TIP3   OH228464   6.852   0.720   1.672
 9508TIP3    H128465   6.875   0.628   1.684
 9508TIP3    H228466   6.877   0.739   1.582
 9509TIP3   OH228467   7.640   0.628   4.501
 9509TIP3    H128468   7.554   0.586   4.491
 9509TIP3    H228469   7.662   0.615   4.594
 9510TIP3   OH228470   3.215   0.435   3.414
 9510TIP3    H128471   3.280   0.378   3.372
 9510TIP3    H228472   3.134   0.418   3.367
 9511TIP3   OH228473   0.884   6.183   2.962
 9511TIP3    H128474   0.933   6.167   2.882
 9511TIP3    H228475   0.809   6.123   2.957
 9512TIP3   OH228476   3.976   3.338   2.861
 9512TIP3    H128477   3.912   3.386   2.914
 9512TIP3    H228478   4.045   3.313   2.924
 9513TIP3   OH228479   1.460   1.258   5.583
 9513TIP3    H128480   1.448   1.353   5.590
 9513TIP3    H228481   1.390   1.221   5.637
 9514TIP3   OH228482   4.930   6.318   1.340
 9514TIP3    H128483   4.976   6.392   1.380
 9514TIP3    H228484   4.893   6.270   1.413
 9515TIP3   OH228485   7.517   6.450   6.719
 9515TIP3    H128486   7.509   6.438   6.814
 9515TIP3    H228487   7.447   6.395   6.682
 9516TIP3   OH228488   6.637   4.123   2.900
 9516TIP3    H128489   6.560   4.074   2.872
 9516TIP3    H228490   6.695   4.123   2.824
 9517TIP3   OH228491   5.019   5.742   3.016
 9517TIP3    H128492   4.998   5.754   2.924
 9517TIP3    H228493   4.957   5.676   3.047
 9518TIP3   OH228494   5.676   1.055   5.837
 9518TIP3    H128495   5.722   0.992   5.780
 9518TIP3    H228496   5.588   1.019   5.845
 9519TIP3   OH228497   0.249   0.587   0.364
 9519TIP3    H128498   0.333   0.584   0.319
 9519TIP3    H228499   0.197   0.518   0.324
 9520TIP3   OH228500   2.126   3.829   3.137
 9520TIP3    H128501   2.082   3.843   3.054
 9520TIP3    H228502   2.059   3.790   3.194
 9521TIP3   OH228503   6.215   6.719   6.035
 9521TIP3    H128504   6.201   6.813   6.048
 9521TIP3    H228505   6.285   6.714   5.970
 9522TIP3   OH228506   4.457   2.334   5.159
 9522TIP3    H128507   4.379   2.303   5.204
 9522TIP3    H228508   4.424   2.379   5.081
 9523TIP3   OH228509   2.461   2.757   2.618
 9523TIP3    H128510   2.384   2.781   2.671
 9523TIP3    H228511   2.426   2.700   2.550
 9524TIP3   OH228512   7.272   1.015   1.291
 9524TIP3    H128513   7.189   0.975   1.264
 9524TIP3    H228514   7.271   1.010   1.386
 9525TIP3   OH228515   1.131   7.168   5.865
 9525TIP3    H128516   1.145   7.129   5.951
 9525TIP3    H228517   1.098   7.096   5.811
 9526TIP3   OH228518   2.201   5.586   2.274
 9526TIP3    H128519   2.270   5.543   2.223
 9526TIP3    H228520   2.248   5.628   2.347
 9527TIP3   OH228521   2.407   3.092   1.006
 9527TIP3    H128522   2.487   3.118   0.960
 9527TIP3    H228523   2.373   3.018   0.955
 9528TIP3   OH228524   2.200   1.236   3.325
 9528TIP3    H128525   2.277   1.278   3.287
 9528TIP3    H228526   2.203   1.146   3.291
 9529TIP3   OH228527   6.571   4.604   4.082
 9529TIP3    H128528   6.578   4.680   4.140
 9529TIP3    H228529   6.644   4.547   4.108
 9530TIP3   OH228530   8.251   5.403   1.739
 9530TIP3    H128531   8.285   5.463   1.805
 9530TIP3    H228532   8.286   5.317   1.765
 9531TIP3   OH228533   5.816   0.646   3.016
 9531TIP3    H128534   5.893   0.619   2.965
 9531TIP3    H228535   5.774   0.564   3.041
 9532TIP3   OH228536   2.257   0.091   5.097
 9532TIP3    H128537   2.350   0.088   5.078
 9532TIP3    H228538   2.245   0.172   5.147
 9533TIP3   OH228539   0.837   3.948   6.344
 9533TIP3    H128540   0.926   3.960   6.311
 9533TIP3    H228541   0.813   3.859   6.316
 9534TIP3   OH228542   3.770   0.208   4.234
 9534TIP3    H128543   3.839   0.206   4.299
 9534TIP3    H228544   3.698   0.254   4.276
 9535TIP3   OH228545   8.029   0.302   1.445
 9535TIP3    H128546   8.059   0.287   1.534
 9535TIP3    H228547   8.016   0.396   1.439
 9536TIP3   OH228548   8.096   6.947   4.318
 9536TIP3    H128549   8.138   6.868   4.283
 9536TIP3    H228550   8.029   6.969   4.253
 9537TIP3   OH228551   6.041   2.242   1.046
 9537TIP3    H128552   5.975   2.311   1.042
 9537TIP3    H228553   6.038   2.201   0.959
 9538TIP3   OH228554   3.922   5.626   0.202
 9538TIP3    H128555   3.878   5.637   0.286
 9538TIP3    H228556   3.979   5.702   0.195
 9539TIP3   OH228557   4.221   5.866   2.985
 9539TIP3    H128558   4.309   5.830   2.974
 9539TIP3    H228559   4.165   5.809   2.931
 9540TIP3   OH228560   1.863   7.666   2.491
 9540TIP3    H128561   1.828   7.748   2.457
 9540TIP3    H228562   1.838   7.600   2.426
 9541TIP3   OH228563   0.270   1.729   3.330
 9541TIP3    H128564   0.212   1.668   3.376
 9541TIP3    H228565   0.254   1.712   3.237
 9542TIP3   OH228566   6.340   3.094   4.212
 9542TIP3    H128567   6.378   3.027   4.156
 9542TIP3    H228568   6.405   3.110   4.280
 9543TIP3   OH228569   0.443   7.371   5.763
 9543TIP3    H128570   0.501   7.446   5.750
 9543TIP3    H228571   0.357   7.410   5.778
 9544TIP3   OH228572   0.182   7.585   3.355
 9544TIP3    H128573   0.174   7.558   3.446
 9544TIP3    H228574   0.092   7.586   3.322
 9545TIP3   OH228575   4.188   7.712   1.529
 9545TIP3    H128576   4.099   7.739   1.548
 9545TIP3    H228577   4.215   7.661   1.605
 9546TIP3   OH228578   3.136   0.798   2.277
 9546TIP3    H128579   3.181   0.716   2.298
 9546TIP3    H228580   3.160   0.816   2.186
 9547TIP3   OH228581   7.073   6.909   4.195
 9547TIP3    H128582   7.006   6.960   4.149
 9547TIP3    H228583   7.097   6.964   4.270
 9548TIP3   OH228584   2.628   7.485   5.731
 9548TIP3    H128585   2.603   7.449   5.645
 9548TIP3    H228586   2.689   7.556   5.711
 9549TIP3   OH228587   2.220   1.795   3.480
 9549TIP3    H128588   2.247   1.886   3.466
 9549TIP3    H228589   2.265   1.769   3.560
 9550TIP3   OH228590   0.710   6.033   6.490
 9550TIP3    H128591   0.645   6.104   6.488
 9550TIP3    H228592   0.733   6.024   6.582
 9551TIP3   OH228593   1.238   1.482   1.675
 9551TIP3    H128594   1.272   1.396   1.698
 9551TIP3    H228595   1.316   1.537   1.663
 9552TIP3   OH228596   0.601   0.110   1.135
 9552TIP3    H128597   0.606   0.200   1.102
 9552TIP3    H228598   0.510   0.084   1.120
 9553TIP3   OH228599   7.084   1.514   4.077
 9553TIP3    H128600   7.044   1.535   3.992
 9553TIP3    H228601   7.041   1.432   4.103
 9554TIP3   OH228602   6.360   3.051   1.423
 9554TIP3    H128603   6.412   3.083   1.349
 9554TIP3    H228604   6.306   3.126   1.447
 9555TIP3   OH228605   2.661   7.011   3.660
 9555TIP3    H128606   2.643   7.041   3.749
 9555TIP3    H228607   2.699   7.087   3.616
 9556TIP3   OH228608   6.641   6.564   0.178
 9556TIP3    H128609   6.617   6.648   0.137
 9556TIP3    H228610   6.735   6.557   0.163
 9557TIP3   OH228611   4.570   2.537   1.512
 9557TIP3    H128612   4.534   2.590   1.441
 9557TIP3    H228613   4.493   2.509   1.562
 9558TIP3   OH228614   2.887   5.513   4.482
 9558TIP3    H128615   2.912   5.488   4.570
 9558TIP3    H228616   2.811   5.570   4.493
 9559TIP3   OH228617   4.346   3.072   5.955
 9559TIP3    H128618   4.299   3.125   5.891
 9559TIP3    H228619   4.300   2.988   5.956
 9560TIP3   OH228620   8.128   3.776   3.995
 9560TIP3    H128621   8.072   3.772   4.072
 9560TIP3    H228622   8.164   3.865   3.996
 9561TIP3   OH228623   6.688   4.863   6.535
 9561TIP3    H128624   6.728   4.807   6.468
 9561TIP3    H228625   6.594   4.856   6.518
 9562TIP3   OH228626   2.764   2.137   6.425
 9562TIP3    H128627   2.707   2.211   6.445
 9562TIP3    H228628   2.822   2.130   6.501
 9563TIP3   OH228629   1.848   3.105   3.288
 9563TIP3    H128630   1.841   3.080   3.380
 9563TIP3    H228631   1.784   3.049   3.244
 9564TIP3   OH228632   0.482   0.887   3.691
 9564TIP3    H128633   0.423   0.853   3.758
 9564TIP3    H228634   0.555   0.926   3.740
 9565TIP3   OH228635   0.494   2.345   2.001
 9565TIP3    H128636   0.457   2.265   1.963
 9565TIP3    H228637   0.463   2.346   2.091
 9566TIP3   OH228638   3.937   3.304   4.083
 9566TIP3    H128639   3.963   3.248   4.156
 9566TIP3    H228640   3.993   3.382   4.092
 9567TIP3   OH228641   0.222   4.982   2.793
 9567TIP3    H128642   0.252   5.032   2.869
 9567TIP3    H228643   0.186   5.047   2.733
 9568TIP3   OH228644   5.960   6.663   0.821
 9568TIP3    H128645   6.013   6.618   0.887
 9568TIP3    H228646   5.984   6.755   0.830
 9569TIP3   OH228647   2.754   3.256   2.658
 9569TIP3    H128648   2.761   3.266   2.563
 9569TIP3    H228649   2.665   3.286   2.678
 9570TIP3   OH228650   6.952   4.113   3.069
 9570TIP3    H128651   6.939   4.203   3.100
 9570TIP3    H228652   6.911   4.058   3.136
 9571TIP3   OH228653   2.000   5.787   5.719
 9571TIP3    H128654   1.961   5.822   5.799
 9571TIP3    H228655   1.970   5.696   5.715
 9572TIP3   OH228656   3.710   4.404   4.080
 9572TIP3    H128657   3.627   4.358   4.068
 9572TIP3    H228658   3.747   4.412   3.992
 9573TIP3   OH228659   2.798   3.665   6.663
 9573TIP3    H128660   2.783   3.689   6.755
 9573TIP3    H228661   2.774   3.572   6.659
 9574TIP3   OH228662   1.592   2.299   4.226
 9574TIP3    H128663   1.591   2.204   4.238
 9574TIP3    H228664   1.543   2.333   4.302
 9575TIP3   OH228665   5.167   4.449   2.975
 9575TIP3    H128666   5.090   4.424   3.027
 9575TIP3    H228667   5.137   4.442   2.884
 9576TIP3   OH228668   7.600   5.149   3.892
 9576TIP3    H128669   7.569   5.232   3.929
 9576TIP3    H228670   7.689   5.168   3.863
 9577TIP3   OH228671   3.932   3.487   6.324
 9577TIP3    H128672   4.000   3.550   6.349
 9577TIP3    H228673   3.903   3.450   6.407
 9578TIP3   OH228674   1.461   5.853   4.688
 9578TIP3    H128675   1.483   5.899   4.769
 9578TIP3    H228676   1.472   5.760   4.708
 9579TIP3   OH228677   8.099   2.678   3.217
 9579TIP3    H128678   8.095   2.706   3.126
 9579TIP3    H228679   8.072   2.586   3.215
 9580TIP3   OH228680   1.587   5.218   3.217
 9580TIP3    H128681   1.578   5.127   3.190
 9580TIP3    H228682   1.497   5.253   3.213
 9581TIP3   OH228683   6.762   3.848   2.420
 9581TIP3    H128684   6.854   3.864   2.401
 9581TIP3    H228685   6.756   3.752   2.427
 9582TIP3   OH228686   2.751   4.902   6.176
 9582TIP3    H128687   2.784   4.992   6.177
 9582TIP3    H228688   2.786   4.863   6.256
 9583TIP3   OH228689   5.394   3.708   5.368
 9583TIP3    H128690   5.372   3.670   5.282
 9583TIP3    H228691   5.480   3.748   5.355
 9584TIP3   OH228692   0.568   7.202   4.135
 9584TIP3    H128693   0.639   7.149   4.170
 9584TIP3    H228694   0.523   7.143   4.073
 9585TIP3   OH228695   4.304   0.231   1.479
 9585TIP3    H128696   4.393   0.199   1.480
 9585TIP3    H228697   4.312   0.324   1.456
 9586TIP3   OH228698   1.405   1.862   5.864
 9586TIP3    H128699   1.457   1.924   5.915
 9586TIP3    H228700   1.470   1.813   5.813
 9587TIP3   OH228701   4.097   6.317   4.608
 9587TIP3    H128702   4.109   6.337   4.701
 9587TIP3    H228703   4.126   6.396   4.562
 9588TIP3   OH228704   5.851   2.314   3.776
 9588TIP3    H128705   5.909   2.389   3.789
 9588TIP3    H228706   5.791   2.317   3.850
 9589TIP3   OH228707   2.965   2.050   0.969
 9589TIP3    H128708   2.975   1.965   0.926
 9589TIP3    H228709   3.022   2.109   0.919
 9590TIP3   OH228710   3.525   1.004   2.053
 9590TIP3    H128711   3.620   1.009   2.041
 9590TIP3    H228712   3.492   0.971   1.969
 9591TIP3   OH228713   3.165   1.160   4.145
 9591TIP3    H128714   3.108   1.118   4.080
 9591TIP3    H228715   3.119   1.148   4.228
 9592TIP3   OH228716   8.101   1.403   0.106
 9592TIP3    H128717   8.021   1.423   0.154
 9592TIP3    H228718   8.131   1.320   0.142
 9593TIP3   OH228719   0.477   3.711   3.201
 9593TIP3    H128720   0.487   3.660   3.121
 9593TIP3    H228721   0.434   3.792   3.173
 9594TIP3   OH228722   1.983   3.530   3.948
 9594TIP3    H128723   2.005   3.446   3.909
 9594TIP3    H228724   2.053   3.589   3.922
 9595TIP3   OH228725   6.340   6.762   1.156
 9595TIP3    H128726   6.264   6.782   1.101
 9595TIP3    H228727   6.408   6.736   1.094
 9596TIP3   OH228728   7.633   3.823   0.835
 9596TIP3    H128729   7.547   3.798   0.801
 9596TIP3    H228730   7.625   3.814   0.930
 9597TIP3   OH228731   3.532   0.995   0.250
 9597TIP3    H128732   3.607   0.991   0.190
 9597TIP3    H228733   3.568   1.030   0.331
 9598TIP3   OH228734   2.314   2.808   1.544
 9598TIP3    H128735   2.378   2.874   1.570
 9598TIP3    H228736   2.367   2.732   1.518
 9599TIP3   OH228737   7.465   1.150   6.211
 9599TIP3    H128738   7.377   1.149   6.172
 9599TIP3    H228739   7.458   1.090   6.286
 9600TIP3   OH228740   7.460   1.009   3.184
 9600TIP3    H128741   7.383   1.054   3.150
 9600TIP3    H228742   7.453   1.017   3.279
 9601TIP3   OH228743   6.922   0.609   4.375
 9601TIP3    H128744   6.923   0.571   4.463
 9601TIP3    H228745   6.960   0.696   4.386
 9602TIP3   OH228746   4.372   6.483   0.687
 9602TIP3    H128747   4.429   6.456   0.760
 9602TIP3    H228748   4.407   6.568   0.660
 9603TIP3   OH228749   4.155   4.107   0.817
 9603TIP3    H128750   4.154   4.016   0.787
 9603TIP3    H228751   4.198   4.104   0.902
 9604TIP3   OH228752   8.353   3.795   4.864
 9604TIP3    H128753   8.446   3.781   4.879
 9604TIP3    H228754   8.343   3.890   4.862
 9605TIP3   OH228755   0.357   7.258   2.852
 9605TIP3    H128756   0.303   7.313   2.909
 9605TIP3    H228757   0.413   7.209   2.912
 9606TIP3   OH228758   7.388   0.419   3.480
 9606TIP3    H128759   7.347   0.350   3.532
 9606TIP3    H228760   7.315   0.463   3.436
 9607TIP3   OH228761   2.797   4.497   4.088
 9607TIP3    H128762   2.709   4.521   4.116
 9607TIP3    H228763   2.787   4.467   3.998
 9608TIP3   OH228764   7.380   4.605   5.761
 9608TIP3    H128765   7.383   4.656   5.680
 9608TIP3    H228766   7.455   4.637   5.812
 9609TIP3   OH228767   7.265   3.188   1.472
 9609TIP3    H128768   7.277   3.151   1.560
 9609TIP3    H228769   7.211   3.123   1.426
 9610TIP3   OH228770   1.515   4.644   4.841
 9610TIP3    H128771   1.448   4.628   4.907
 9610TIP3    H228772   1.589   4.680   4.890
 9611TIP3   OH228773   7.008   0.376   2.004
 9611TIP3    H128774   7.053   0.339   2.080
 9611TIP3    H228775   6.929   0.415   2.040
 9612TIP3   OH228776   8.041   6.199   4.848
 9612TIP3    H128777   8.125   6.244   4.836
 9612TIP3    H228778   8.012   6.179   4.759
 9613TIP3   OH228779   4.154   1.490   2.025
 9613TIP3    H128780   4.118   1.464   1.941
 9613TIP3    H228781   4.244   1.458   2.024
 9614TIP3   OH228782   5.127   1.542   3.410
 9614TIP3    H128783   5.197   1.589   3.364
 9614TIP3    H228784   5.112   1.593   3.489
 9615TIP3   OH228785   5.231   2.334   2.219
 9615TIP3    H128786   5.240   2.273   2.146
 9615TIP3    H228787   5.284   2.295   2.289
 9616TIP3   OH228788   0.760   4.482   1.069
 9616TIP3    H128789   0.810   4.551   1.113
 9616TIP3    H228790   0.815   4.456   0.995
 9617TIP3   OH228791   4.443   6.613   6.815
 9617TIP3    H128792   4.522   6.644   6.770
 9617TIP3    H228793   4.453   6.518   6.819
 9618TIP3   OH228794   7.097   6.231   1.068
 9618TIP3    H128795   7.078   6.163   1.003
 9618TIP3    H228796   7.024   6.226   1.130
 9619TIP3   OH228797   1.445   6.002   0.930
 9619TIP3    H128798   1.526   6.036   0.968
 9619TIP3    H228799   1.456   6.013   0.836
 9620TIP3   OH228800   0.444   2.213   5.300
 9620TIP3    H128801   0.363   2.164   5.312
 9620TIP3    H228802   0.500   2.156   5.248
 9621TIP3   OH228803   1.615   7.098   0.793
 9621TIP3    H128804   1.564   7.177   0.808
 9621TIP3    H228805   1.661   7.083   0.875
 9622TIP3   OH228806   4.014   7.064   4.025
 9622TIP3    H128807   4.010   6.975   3.991
 9622TIP3    H228808   3.923   7.085   4.046
 9623TIP3   OH228809   3.857   3.251   0.466
 9623TIP3    H128810   3.791   3.312   0.432
 9623TIP3    H228811   3.807   3.172   0.488
 9624TIP3   OH228812   2.412   4.750   2.412
 9624TIP3    H128813   2.394   4.659   2.436
 9624TIP3    H228814   2.333   4.797   2.436
 9625TIP3   OH228815   2.308   4.907   5.084
 9625TIP3    H128816   2.315   4.980   5.022
 9625TIP3    H228817   2.353   4.835   5.040
 9626TIP3   OH228818   8.101   1.657   1.219
 9626TIP3    H128819   8.110   1.749   1.195
 9626TIP3    H228820   8.006   1.643   1.222
 9627TIP3   OH228821   5.799   3.259   1.231
 9627TIP3    H128822   5.750   3.195   1.282
 9627TIP3    H228823   5.890   3.248   1.259
 9628TIP3   OH228824   0.413   5.535   0.462
 9628TIP3    H128825   0.411   5.498   0.374
 9628TIP3    H228826   0.434   5.628   0.449
 9629TIP3   OH228827   5.698   6.564   6.259
 9629TIP3    H128828   5.784   6.558   6.217
 9629TIP3    H228829   5.718   6.558   6.353
 9630TIP3   OH228830   0.802   4.311   1.533
 9630TIP3    H128831   0.727   4.355   1.494
 9630TIP3    H228832   0.814   4.232   1.481
 9631TIP3   OH228833   4.168   6.662   2.646
 9631TIP3    H128834   4.203   6.582   2.685
 9631TIP3    H228835   4.152   6.720   2.721
 9632TIP3   OH228836   3.229   0.799   2.582
 9632TIP3    H128837   3.307   0.782   2.530
 9632TIP3    H228838   3.198   0.884   2.552
 9633TIP3   OH228839   2.670   6.764   3.539
 9633TIP3    H128840   2.674   6.850   3.580
 9633TIP3    H228841   2.736   6.767   3.469
 9634TIP3   OH228842   4.979   4.964   2.111
 9634TIP3    H128843   5.025   4.986   2.030
 9634TIP3    H228844   4.972   4.869   2.110
 9635TIP3   OH228845   3.658   3.411   0.386
 9635TIP3    H128846   3.683   3.499   0.360
 9635TIP3    H228847   3.567   3.419   0.415
 9636TIP3   OH228848   3.816   5.774   4.709
 9636TIP3    H128849   3.733   5.791   4.664
 9636TIP3    H228850   3.857   5.860   4.718
 9637TIP3   OH228851   7.027   6.478   5.860
 9637TIP3    H128852   6.989   6.548   5.806
 9637TIP3    H228853   6.953   6.422   5.883
 9638TIP3   OH228854   2.792   5.630   3.939
 9638TIP3    H128855   2.856   5.694   3.971
 9638TIP3    H228856   2.712   5.680   3.925
 9639TIP3   OH228857   4.878   3.119   3.233
 9639TIP3    H128858   4.838   3.037   3.207
 9639TIP3    H228859   4.804   3.177   3.253
 9640TIP3   OH228860   7.756   2.461   3.523
 9640TIP3    H128861   7.797   2.538   3.483
 9640TIP3    H228862   7.826   2.396   3.526
 9641TIP3   OH228863   2.456   2.169   5.801
 9641TIP3    H128864   2.442   2.262   5.815
 9641TIP3    H228865   2.380   2.139   5.752
 9642TIP3   OH228866   2.988   0.888   1.054
 9642TIP3    H128867   2.949   0.837   1.125
 9642TIP3    H228868   2.984   0.979   1.084
 9643TIP3   OH228869   4.580   0.053   4.546
 9643TIP3    H128870   4.515   0.106   4.501
 9643TIP3    H228871   4.663   0.100   4.533
 9644TIP3   OH228872   4.724   0.507   2.163
 9644TIP3    H128873   4.733   0.412   2.175
 9644TIP3    H228874   4.629   0.521   2.158
 9645TIP3   OH228875   5.500   6.328   2.357
 9645TIP3    H128876   5.479   6.406   2.408
 9645TIP3    H228877   5.507   6.257   2.421
 9646TIP3   OH228878   2.851   4.341   6.096
 9646TIP3    H128879   2.808   4.426   6.081
 9646TIP3    H228880   2.786   4.276   6.069
 9647TIP3   OH228881   6.898   1.708   3.093
 9647TIP3    H128882   6.875   1.726   3.184
 9647TIP3    H228883   6.819   1.666   3.057
 9648TIP3   OH228884   7.716   7.355   2.412
 9648TIP3    H128885   7.670   7.361   2.496
 9648TIP3    H228886   7.766   7.274   2.418
 9649TIP3   OH228887   5.732   1.017   3.020
 9649TIP3    H128888   5.808   1.002   2.965
 9649TIP3    H228889   5.683   0.935   3.017
 9650TIP3   OH228890   0.013   2.214   3.927
 9650TIP3    H128891   0.010   2.305   3.956
 9650TIP3    H228892   0.056   2.167   3.998
 9651TIP3   OH228893   5.344   0.593   5.523
 9651TIP3    H128894   5.425   0.645   5.522
 9651TIP3    H228895   5.285   0.638   5.463
 9652TIP3   OH228896   0.378   2.109   4.991
 9652TIP3    H128897   0.378   2.077   4.901
 9652TIP3    H228898   0.393   2.203   4.983
 9653TIP3   OH228899   8.194   4.915   0.483
 9653TIP3    H128900   8.159   4.872   0.561
 9653TIP3    H228901   8.199   4.847   0.417
 9654TIP3   OH228902   1.272   5.852   5.936
 9654TIP3    H128903   1.242   5.893   6.017
 9654TIP3    H228904   1.353   5.807   5.959
 9655TIP3   OH228905   3.367   6.753   3.691
 9655TIP3    H128906   3.307   6.695   3.643
 9655TIP3    H228907   3.372   6.714   3.778
 9656TIP3   OH228908   3.722   7.591   5.213
 9656TIP3    H128909   3.812   7.572   5.241
 9656TIP3    H228910   3.688   7.507   5.183
 9657TIP3   OH228911   7.483   6.168   3.094
 9657TIP3    H128912   7.537   6.226   3.149
 9657TIP3    H228913   7.465   6.093   3.150
 9658TIP3   OH228914   1.830   3.847   0.274
 9658TIP3    H128915   1.800   3.782   0.211
 9658TIP3    H228916   1.830   3.930   0.226
 9659TIP3   OH228917   3.970   0.317   4.104
 9659TIP3    H128918   3.897   0.261   4.131
 9659TIP3    H228919   3.973   0.386   4.171
 9660TIP3   OH228920   0.681   0.973   6.282
 9660TIP3    H128921   0.621   0.949   6.211
 9660TIP3    H228922   0.731   1.047   6.247
 9661TIP3   OH228923   5.184   4.007   6.673
 9661TIP3    H128924   5.176   4.098   6.645
 9661TIP3    H228925   5.104   3.966   6.639
 9662TIP3   OH228926   0.078   0.883   2.513
 9662TIP3    H128927   0.111   0.815   2.454
 9662TIP3    H228928   0.076   0.963   2.460
 9663TIP3   OH228929   5.966   3.104   4.064
 9663TIP3    H128930   5.888   3.073   4.018
 9663TIP3    H228931   5.982   3.192   4.027
 9664TIP3   OH228932   2.183   1.402   6.193
 9664TIP3    H128933   2.167   1.317   6.152
 9664TIP3    H228934   2.144   1.465   6.132
 9665TIP3   OH228935   4.558   0.366   5.473
 9665TIP3    H128936   4.536   0.283   5.431
 9665TIP3    H228937   4.529   0.355   5.564
 9666TIP3   OH228938   0.714   7.407   4.133
 9666TIP3    H128939   0.642   7.344   4.137
 9666TIP3    H228940   0.750   7.396   4.046
 9667TIP3   OH228941   7.492   4.296   1.962
 9667TIP3    H128942   7.408   4.339   1.983
 9667TIP3    H228943   7.524   4.263   2.046
 9668TIP3   OH228944   2.131   5.159   2.243
 9668TIP3    H128945   2.206   5.105   2.266
 9668TIP3    H228946   2.082   5.167   2.325
 9669TIP3   OH228947   0.304   3.557   5.623
 9669TIP3    H128948   0.311   3.476   5.674
 9669TIP3    H228949   0.222   3.596   5.652
 9670TIP3   OH228950   7.009   5.027   2.703
 9670TIP3    H128951   7.056   4.945   2.694
 9670TIP3    H228952   6.941   5.010   2.768
 9671TIP3   OH228953   1.814   5.492   2.227
 9671TIP3    H128954   1.817   5.427   2.297
 9671TIP3    H228955   1.803   5.441   2.147
 9672TIP3   OH228956   0.054   0.662   6.552
 9672TIP3    H128957  -0.006   0.588   6.551
 9672TIP3    H228958   0.140   0.623   6.540
 9673TIP3   OH228959   5.481   0.349   2.850
 9673TIP3    H128960   5.440   0.416   2.796
 9673TIP3    H228961   5.428   0.346   2.929
 9674TIP3   OH228962   8.280   7.884   4.134
 9674TIP3    H128963   8.376   7.886   4.128
 9674TIP3    H228964   8.251   7.945   4.067
 9675TIP3   OH228965   6.443   2.593   5.351
 9675TIP3    H128966   6.467   2.513   5.399
 9675TIP3    H228967   6.415   2.654   5.419
 9676TIP3   OH228968   4.347   3.015   2.940
 9676TIP3    H128969   4.371   3.024   3.032
 9676TIP3    H228970   4.431   3.007   2.895
 9677TIP3   OH228971   7.537   5.885   0.440
 9677TIP3    H128972   7.574   5.920   0.359
 9677TIP3    H228973   7.534   5.791   0.427
 9678TIP3   OH228974   7.667   0.939   1.639
 9678TIP3    H128975   7.683   0.966   1.730
 9678TIP3    H228976   7.676   0.844   1.640
 9679TIP3   OH228977   0.715   2.276   4.931
 9679TIP3    H128978   0.761   2.313   5.006
 9679TIP3    H228979   0.783   2.263   4.865
 9680TIP3   OH228980   2.909   7.191   0.607
 9680TIP3    H128981   2.851   7.200   0.531
 9680TIP3    H228982   2.997   7.197   0.571
 9681TIP3   OH228983   0.113   2.198   2.590
 9681TIP3    H128984   0.209   2.205   2.592
 9681TIP3    H228985   0.093   2.127   2.650
 9682TIP3   OH228986   1.367   4.209   4.472
 9682TIP3    H128987   1.368   4.302   4.492
 9682TIP3    H228988   1.313   4.170   4.541
 9683TIP3   OH228989   3.704   0.201   5.204
 9683TIP3    H128990   3.610   0.214   5.189
 9683TIP3    H228991   3.739   0.289   5.218
 9684TIP3   OH228992   5.404   2.456   0.093
 9684TIP3    H128993   5.497   2.434   0.094
 9684TIP3    H228994   5.374   2.425   0.007
 9685TIP3   OH228995   2.632   4.297   4.700
 9685TIP3    H128996   2.690   4.359   4.657
 9685TIP3    H228997   2.689   4.224   4.724
 9686TIP3   OH228998   8.223   4.391   6.162
 9686TIP3    H128999   8.203   4.413   6.071
 9686TIP3    H229000   8.193   4.300   6.171
 9687TIP3   OH229001   3.327   7.186   0.254
 9687TIP3    H129002   3.420   7.163   0.249
 9687TIP3    H229003   3.285   7.132   0.187
 9688TIP3   OH229004   3.843   7.211   0.591
 9688TIP3    H129005   3.825   7.304   0.596
 9688TIP3    H229006   3.873   7.197   0.501
 9689TIP3   OH229007   1.964   7.372   2.518
 9689TIP3    H129008   1.899   7.310   2.485
 9689TIP3    H229009   2.012   7.401   2.441
 9690TIP3   OH229010   3.015   6.483   0.461
 9690TIP3    H129011   2.977   6.398   0.484
 9690TIP3    H229012   3.099   6.485   0.507
 9691TIP3   OH229013   3.647   5.509   1.261
 9691TIP3    H129014   3.560   5.525   1.298
 9691TIP3    H229015   3.707   5.553   1.321
 9692TIP3   OH229016   0.283   1.523   1.369
 9692TIP3    H129017   0.331   1.472   1.434
 9692TIP3    H229018   0.263   1.605   1.413
 9693TIP3   OH229019   4.452   3.262   2.564
 9693TIP3    H129020   4.408   3.181   2.591
 9693TIP3    H229021   4.381   3.322   2.542
 9694TIP3   OH229022   4.598   0.485   6.412
 9694TIP3    H129023   4.604   0.572   6.453
 9694TIP3    H229024   4.616   0.502   6.319
 9695TIP3   OH229025   7.722   0.565   2.648
 9695TIP3    H129026   7.756   0.526   2.729
 9695TIP3    H229027   7.722   0.659   2.664
 9696TIP3   OH229028   3.829   3.661   0.344
 9696TIP3    H129029   3.860   3.696   0.428
 9696TIP3    H229030   3.797   3.737   0.296
 9697TIP3   OH229031   7.773   2.607   1.693
 9697TIP3    H129032   7.688   2.642   1.665
 9697TIP3    H229033   7.816   2.682   1.735
 9698TIP3   OH229034   5.508   0.694   2.271
 9698TIP3    H129035   5.500   0.600   2.257
 9698TIP3    H229036   5.489   0.733   2.185
 9699TIP3   OH229037   6.281   5.845   6.404
 9699TIP3    H129038   6.329   5.805   6.331
 9699TIP3    H229039   6.230   5.915   6.363
 9700TIP3   OH229040   1.671   2.179   2.354
 9700TIP3    H129041   1.680   2.235   2.277
 9700TIP3    H229042   1.598   2.217   2.403
 9701TIP3   OH229043   2.097   2.262   6.287
 9701TIP3    H129044   2.174   2.232   6.334
 9701TIP3    H229045   2.068   2.341   6.334
 9702TIP3   OH229046   3.254   4.061   3.999
 9702TIP3    H129047   3.204   4.078   3.919
 9702TIP3    H229048   3.187   4.058   4.068
 9703TIP3   OH229049   7.726   7.509   4.997
 9703TIP3    H129050   7.814   7.497   5.034
 9703TIP3    H229051   7.701   7.598   5.022
 9704TIP3   OH229052   5.886   6.911   6.107
 9704TIP3    H129053   5.853   6.893   6.195
 9704TIP3    H229054   5.845   6.845   6.052
 9705TIP3   OH229055   4.189   4.690   0.090
 9705TIP3    H129056   4.207   4.670   0.182
 9705TIP3    H229057   4.133   4.618   0.061
 9706TIP3   OH229058   2.844   6.434   2.505
 9706TIP3    H129059   2.795   6.376   2.564
 9706TIP3    H229060   2.791   6.513   2.501
 9707TIP3   OH229061   0.307   6.089   4.890
 9707TIP3    H129062   0.375   6.100   4.824
 9707TIP3    H229063   0.301   5.994   4.903
 9708TIP3   OH229064   4.891   2.841   5.192
 9708TIP3    H129065   4.841   2.794   5.259
 9708TIP3    H229066   4.980   2.807   5.200
 9709TIP3   OH229067   2.616   2.482   2.492
 9709TIP3    H129068   2.610   2.483   2.587
 9709TIP3    H229069   2.526   2.499   2.462
 9710TIP3   OH229070   6.524   3.395   3.688
 9710TIP3    H129071   6.511   3.479   3.731
 9710TIP3    H229072   6.606   3.404   3.641
 9711TIP3   OH229073   5.283   1.979   4.617
 9711TIP3    H129074   5.339   1.999   4.542
 9711TIP3    H229075   5.237   2.060   4.636
 9712TIP3   OH229076   6.649   7.600   5.930
 9712TIP3    H129077   6.584   7.600   6.001
 9712TIP3    H229078   6.718   7.541   5.960
 9713TIP3   OH229079   0.369   4.295   0.000
 9713TIP3    H129080   0.298   4.345  -0.041
 9713TIP3    H229081   0.359   4.311   0.094
 9714TIP3   OH229082   2.931   0.533   1.352
 9714TIP3    H129083   2.888   0.487   1.424
 9714TIP3    H229084   2.892   0.621   1.352
 9715TIP3   OH229085   0.844   4.465   4.731
 9715TIP3    H129086   0.811   4.481   4.642
 9715TIP3    H229087   0.897   4.542   4.751
 9716TIP3   OH229088   1.903   4.246   1.991
 9716TIP3    H129089   1.840   4.312   1.961
 9716TIP3    H229090   1.969   4.296   2.040
 9717TIP3   OH229091   1.820   5.390   3.193
 9717TIP3    H129092   1.870   5.311   3.171
 9717TIP3    H229093   1.731   5.358   3.209
 9718TIP3   OH229094   2.182   3.590   3.399
 9718TIP3    H129095   2.126   3.667   3.406
 9718TIP3    H229096   2.126   3.517   3.425
 9719TIP3   OH229097   2.852   2.061   1.463
 9719TIP3    H129098   2.768   2.044   1.505
 9719TIP3    H229099   2.831   2.065   1.369
 9720TIP3   OH229100   3.130   1.359   1.008
 9720TIP3    H129101   3.106   1.275   0.968
 9720TIP3    H229102   3.195   1.396   0.948
 9721TIP3   OH229103   6.282   3.134   6.231
 9721TIP3    H129104   6.251   3.224   6.239
 9721TIP3    H229105   6.286   3.101   6.321
 9722TIP3   OH229106   4.064   2.874   5.269
 9722TIP3    H129107   4.153   2.840   5.270
 9722TIP3    H229108   4.072   2.960   5.227
 9723TIP3   OH229109   7.446   1.426   2.603
 9723TIP3    H129110   7.499   1.461   2.675
 9723TIP3    H229111   7.356   1.449   2.626
 9724TIP3   OH229112   8.022   4.583   3.109
 9724TIP3    H129113   7.986   4.542   3.031
 9724TIP3    H229114   8.034   4.511   3.170
 9725TIP3   OH229115   0.058   1.106   5.581
 9725TIP3    H129116   0.088   1.039   5.520
 9725TIP3    H229117   0.007   1.057   5.646
 9726TIP3   OH229118   2.537   6.116   0.389
 9726TIP3    H129119   2.538   6.073   0.304
 9726TIP3    H229120   2.582   6.055   0.448
 9727TIP3   OH229121   3.451   6.816   1.307
 9727TIP3    H129122   3.412   6.903   1.321
 9727TIP3    H229123   3.417   6.762   1.378
 9728TIP3   OH229124   5.257   6.441   6.162
 9728TIP3    H129125   5.192   6.374   6.182
 9728TIP3    H229126   5.341   6.398   6.175
 9729TIP3   OH229127   5.831   1.055   4.877
 9729TIP3    H129128   5.763   1.109   4.836
 9729TIP3    H229129   5.844   0.982   4.817
 9730TIP3   OH229130   0.338   4.268   6.660
 9730TIP3    H129131   0.245   4.264   6.639
 9730TIP3    H229132   0.381   4.230   6.583
 9731TIP3   OH229133   0.576   5.932   4.475
 9731TIP3    H129134   0.570   5.875   4.552
 9731TIP3    H229135   0.644   5.996   4.499
 9732TIP3   OH229136   0.634   5.252   3.290
 9732TIP3    H129137   0.691   5.185   3.327
 9732TIP3    H229138   0.599   5.298   3.366
 9733TIP3   OH229139   5.773   5.047   3.376
 9733TIP3    H129140   5.859   5.014   3.404
 9733TIP3    H229141   5.790   5.085   3.289
 9734TIP3   OH229142   0.268   6.205   2.730
 9734TIP3    H129143   0.234   6.277   2.678
 9734TIP3    H229144   0.280   6.243   2.817
 9735TIP3   OH229145   5.096   4.728   2.450
 9735TIP3    H129146   5.104   4.808   2.397
 9735TIP3    H229147   5.142   4.749   2.531
 9736TIP3   OH229148   3.320   7.891   1.224
 9736TIP3    H129149   3.302   7.985   1.219
 9736TIP3    H229150   3.271   7.853   1.151
 9737TIP3   OH229151   1.463   4.439   4.564
 9737TIP3    H129152   1.551   4.474   4.551
 9737TIP3    H229153   1.424   4.494   4.631
 9738TIP3   OH229154   5.930   7.460   2.050
 9738TIP3    H129155   5.959   7.453   2.141
 9738TIP3    H229156   5.959   7.546   2.021
 9739TIP3   OH229157   2.905   4.628   5.087
 9739TIP3    H129158   2.876   4.574   5.014
 9739TIP3    H229159   2.830   4.683   5.109
 9740TIP3   OH229160   1.294   1.420   4.511
 9740TIP3    H129161   1.298   1.374   4.595
 9740TIP3    H229162   1.286   1.350   4.446
 9741TIP3   OH229163   2.455   6.410   2.020
 9741TIP3    H129164   2.413   6.457   1.947
 9741TIP3    H229165   2.468   6.477   2.087
 9742TIP3   OH229166   0.736   0.239   1.347
 9742TIP3    H129167   0.778   0.325   1.344
 9742TIP3    H229168   0.719   0.217   1.256
 9743TIP3   OH229169   7.547   6.500   1.481
 9743TIP3    H129170   7.524   6.421   1.530
 9743TIP3    H229171   7.626   6.532   1.523
 9744TIP3   OH229172   0.786   4.914   5.492
 9744TIP3    H129173   0.800   5.009   5.500
 9744TIP3    H229174   0.866   4.881   5.452
 9745TIP3   OH229175   6.398   2.020   3.553
 9745TIP3    H129176   6.383   1.938   3.600
 9745TIP3    H229177   6.347   2.085   3.602
 9746TIP3   OH229178   1.514   1.106   3.366
 9746TIP3    H129179   1.477   1.044   3.429
 9746TIP3    H229180   1.605   1.116   3.393
 9747TIP3   OH229181   7.862   7.552   1.827
 9747TIP3    H129182   7.822   7.471   1.858
 9747TIP3    H229183   7.956   7.532   1.820
 9748TIP3   OH229184   0.727   5.160   6.479
 9748TIP3    H129185   0.776   5.081   6.502
 9748TIP3    H229186   0.667   5.174   6.552
 9749TIP3   OH229187   6.687   1.865   2.835
 9749TIP3    H129188   6.765   1.904   2.875
 9749TIP3    H229189   6.662   1.928   2.768
 9750TIP3   OH229190   4.737   1.539   4.461
 9750TIP3    H129191   4.794   1.483   4.409
 9750TIP3    H229192   4.658   1.486   4.474
 9751TIP3   OH229193   1.048   5.822   6.551
 9751TIP3    H129194   1.056   5.853   6.641
 9751TIP3    H229195   1.006   5.893   6.504
 9752TIP3   OH229196   1.175   4.621   2.629
 9752TIP3    H129197   1.110   4.644   2.563
 9752TIP3    H229198   1.126   4.570   2.693
 9753TIP3   OH229199   0.533   1.777   3.610
 9753TIP3    H129200   0.499   1.688   3.622
 9753TIP3    H229201   0.470   1.819   3.551
 9754TIP3   OH229202   3.978   5.457   2.806
 9754TIP3    H129203   4.066   5.423   2.793
 9754TIP3    H229204   3.921   5.383   2.786
 9755TIP3   OH229205   1.600   7.169   1.052
 9755TIP3    H129206   1.559   7.250   1.080
 9755TIP3    H229207   1.553   7.100   1.099
 9756TIP3   OH229208   0.526   5.378   5.220
 9756TIP3    H129209   0.599   5.429   5.185
 9756TIP3    H229210   0.557   5.346   5.304
 9757TIP3   OH229211   2.977   1.447   6.215
 9757TIP3    H129212   2.959   1.540   6.225
 9757TIP3    H229213   2.898   1.412   6.172
 9758TIP3   OH229214   0.590   1.758   1.055
 9758TIP3    H129215   0.527   1.685   1.055
 9758TIP3    H229216   0.648   1.740   1.128
 9759TIP3   OH229217   8.136   5.149   6.776
 9759TIP3    H129218   8.096   5.146   6.863
 9759TIP3    H229219   8.091   5.082   6.726
 9760TIP3   OH229220   2.679   1.707   5.309
 9760TIP3    H129221   2.594   1.727   5.349
 9760TIP3    H229222   2.669   1.732   5.217
 9761TIP3   OH229223   5.857   2.999   2.775
 9761TIP3    H129224   5.781   2.950   2.747
 9761TIP3    H229225   5.840   3.089   2.746
 9762TIP3   OH229226   0.206   5.498   0.651
 9762TIP3    H129227   0.276   5.524   0.591
 9762TIP3    H229228   0.233   5.412   0.683
 9763TIP3   OH229229   2.557   7.538   5.097
 9763TIP3    H129230   2.515   7.486   5.029
 9763TIP3    H229231   2.611   7.476   5.146
 9764TIP3   OH229232   8.138   3.885   2.099
 9764TIP3    H129233   8.054   3.892   2.145
 9764TIP3    H229234   8.185   3.965   2.125
 9765TIP3   OH229235   2.004   2.305   0.048
 9765TIP3    H129236   2.013   2.213   0.024
 9765TIP3    H229237   2.093   2.332   0.069
 9766TIP3   OH229238   0.112   2.768   5.773
 9766TIP3    H129239   0.183   2.703   5.770
 9766TIP3    H229240   0.093   2.785   5.681
 9767TIP3   OH229241   2.736   6.040   4.312
 9767TIP3    H129242   2.790   5.969   4.279
 9767TIP3    H229243   2.770   6.056   4.401
 9768TIP3   OH229244   7.277   1.688   4.962
 9768TIP3    H129245   7.327   1.645   4.893
 9768TIP3    H229246   7.303   1.780   4.955
 9769TIP3   OH229247   2.964   5.296   6.695
 9769TIP3    H129248   3.012   5.219   6.665
 9769TIP3    H229249   3.011   5.370   6.655
 9770TIP3   OH229250   6.594   4.002   4.030
 9770TIP3    H129251   6.585   3.943   4.104
 9770TIP3    H229252   6.513   3.993   3.981
 9771TIP3   OH229253   4.128   4.819   1.288
 9771TIP3    H129254   4.119   4.742   1.231
 9771TIP3    H229255   4.171   4.786   1.367
 9772TIP3   OH229256   2.492   6.767   4.575
 9772TIP3    H129257   2.422   6.764   4.640
 9772TIP3    H229258   2.514   6.675   4.560
 9773TIP3   OH229259   1.151   1.988   6.793
 9773TIP3    H129260   1.177   1.961   6.882
 9773TIP3    H229261   1.182   1.917   6.737
 9774TIP3   OH229262   5.390   7.378   5.566
 9774TIP3    H129263   5.392   7.364   5.661
 9774TIP3    H229264   5.390   7.473   5.556
 9775TIP3   OH229265   6.480   7.229   2.250
 9775TIP3    H129266   6.391   7.246   2.219
 9775TIP3    H229267   6.489   7.134   2.243
 9776TIP3   OH229268   6.668   3.094   0.860
 9776TIP3    H129269   6.618   3.142   0.794
 9776TIP3    H229270   6.602   3.054   0.916
 9777TIP3   OH229271   6.663   7.884   4.899
 9777TIP3    H129272   6.642   7.805   4.849
 9777TIP3    H229273   6.735   7.925   4.850
 9778TIP3   OH229274   5.131   1.027   3.459
 9778TIP3    H129275   5.154   0.966   3.529
 9778TIP3    H229276   5.158   1.113   3.493
 9779TIP3   OH229277   1.725   4.898   2.763
 9779TIP3    H129278   1.690   4.978   2.723
 9779TIP3    H229279   1.743   4.923   2.854
 9780TIP3   OH229280   1.152   1.761   5.459
 9780TIP3    H129281   1.150   1.828   5.528
 9780TIP3    H229282   1.207   1.692   5.494
 9781TIP3   OH229283   0.058   0.540   4.538
 9781TIP3    H129284   0.060   0.636   4.534
 9781TIP3    H229285   0.112   0.518   4.614
 9782TIP3   OH229286   7.527   1.746   4.390
 9782TIP3    H129287   7.478   1.813   4.342
 9782TIP3    H229288   7.586   1.708   4.325
 9783TIP3   OH229289   3.010   6.411   4.949
 9783TIP3    H129290   2.927   6.396   4.905
 9783TIP3    H229291   3.050   6.483   4.900
 9784TIP3   OH229292   7.793   6.547   3.850
 9784TIP3    H129293   7.792   6.641   3.831
 9784TIP3    H229294   7.807   6.506   3.765
 9785TIP3   OH229295   0.480   5.558   2.338
 9785TIP3    H129296   0.466   5.467   2.365
 9785TIP3    H229297   0.415   5.608   2.387
 9786TIP3   OH229298   6.146   3.413   2.323
 9786TIP3    H129299   6.215   3.347   2.334
 9786TIP3    H229300   6.085   3.395   2.395
 9787TIP3   OH229301   6.299   7.778   2.522
 9787TIP3    H129302   6.289   7.865   2.484
 9787TIP3    H229303   6.392   7.772   2.546
 9788TIP3   OH229304   0.015   6.231   4.467
 9788TIP3    H129305   0.042   6.197   4.552
 9788TIP3    H229306   0.097   6.243   4.419
 9789TIP3   OH229307   2.277   0.911   6.900
 9789TIP3    H129308   2.354   0.967   6.890
 9789TIP3    H229309   2.287   0.844   6.833
 9790TIP3   OH229310   5.989   2.155   5.937
 9790TIP3    H129311   5.979   2.105   5.856
 9790TIP3    H229312   5.981   2.246   5.910
 9791TIP3   OH229313   3.967   2.715   0.210
 9791TIP3    H129314   3.943   2.736   0.120
 9791TIP3    H229315   4.059   2.741   0.217
 9792TIP3   OH229316   3.799   3.610   1.807
 9792TIP3    H129317   3.751   3.536   1.843
 9792TIP3    H229318   3.763   3.686   1.852
 9793TIP3   OH229319   8.291   4.051   0.294
 9793TIP3    H129320   8.250   4.137   0.304
 9793TIP3    H229321   8.378   4.062   0.333
 9794TIP3   OH229322   7.064   6.790   1.504
 9794TIP3    H129323   7.105   6.848   1.440
 9794TIP3    H229324   7.027   6.849   1.569
 9795TIP3   OH229325   6.759   1.273   2.250
 9795TIP3    H129326   6.740   1.359   2.290
 9795TIP3    H229327   6.742   1.286   2.157
 9796TIP3   OH229328   4.591   1.106   5.368
 9796TIP3    H129329   4.546   1.174   5.418
 9796TIP3    H229330   4.680   1.140   5.355
 9797TIP3   OH229331   8.103   7.119   4.021
 9797TIP3    H129332   8.018   7.094   4.058
 9797TIP3    H229333   8.084   7.136   3.929
 9798TIP3   OH229334   6.025   3.141   1.328
 9798TIP3    H129335   5.972   3.081   1.381
 9798TIP3    H229336   6.035   3.096   1.244
 9799TIP3   OH229337   8.265   1.150   3.194
 9799TIP3    H129338   8.349   1.117   3.224
 9799TIP3    H229339   8.224   1.186   3.272
 9800TIP3   OH229340   0.049   1.520   6.203
 9800TIP3    H129341   0.115   1.523   6.134
 9800TIP3    H229342  -0.027   1.567   6.167
 9801TIP3   OH229343   4.235   0.576   3.226
 9801TIP3    H129344   4.172   0.516   3.267
 9801TIP3    H229345   4.307   0.519   3.197
 9802TIP3   OH229346   2.057   4.305   0.649
 9802TIP3    H129347   2.078   4.309   0.742
 9802TIP3    H229348   2.110   4.375   0.610
 9803TIP3   OH229349   2.842   4.139   4.779
 9803TIP3    H129350   2.822   4.077   4.849
 9803TIP3    H229351   2.934   4.162   4.793
 9804TIP3   OH229352   7.389   1.572   6.466
 9804TIP3    H129353   7.458   1.537   6.410
 9804TIP3    H229354   7.413   1.545   6.554
 9805TIP3   OH229355   7.966   4.676   6.845
 9805TIP3    H129356   7.936   4.752   6.797
 9805TIP3    H229357   7.985   4.610   6.778
 9806TIP3   OH229358   2.196   7.032   2.202
 9806TIP3    H129359   2.163   7.058   2.116
 9806TIP3    H229360   2.274   6.980   2.182
 9807TIP3   OH229361   8.260   2.482   0.727
 9807TIP3    H129362   8.224   2.462   0.813
 9807TIP3    H229363   8.354   2.468   0.736
 9808TIP3   OH229364   5.504   0.780   5.254
 9808TIP3    H129365   5.472   0.715   5.192
 9808TIP3    H229366   5.522   0.730   5.334
 9809TIP3   OH229367   0.467   1.685   4.081
 9809TIP3    H129368   0.465   1.682   4.176
 9809TIP3    H229369   0.525   1.758   4.060
 9810TIP3   OH229370   5.325   1.523   0.600
 9810TIP3    H129371   5.281   1.602   0.630
 9810TIP3    H229372   5.285   1.504   0.515
 9811TIP3   OH229373   4.669   3.919   4.780
 9811TIP3    H129374   4.620   3.863   4.719
 9811TIP3    H229375   4.684   4.000   4.732
 9812TIP3   OH229376   5.928   6.440   0.052
 9812TIP3    H129377   5.841   6.452   0.015
 9812TIP3    H229378   5.978   6.516   0.023
 9813TIP3   OH229379   3.488   3.629   0.443
 9813TIP3    H129380   3.430   3.570   0.490
 9813TIP3    H229381   3.552   3.658   0.509
 9814TIP3   OH229382   3.144   0.543   5.353
 9814TIP3    H129383   3.078   0.474   5.360
 9814TIP3    H229384   3.094   0.621   5.327
 9815TIP3   OH229385   0.163   0.142   0.402
 9815TIP3    H129386   0.130   0.078   0.339
 9815TIP3    H229387   0.108   0.219   0.389
 9816TIP3   OH229388   1.003   0.154   4.042
 9816TIP3    H129389   1.037   0.231   3.997
 9816TIP3    H229390   0.926   0.186   4.090
 9817TIP3   OH229391   3.886   5.936   1.857
 9817TIP3    H129392   3.953   5.994   1.822
 9817TIP3    H229393   3.925   5.848   1.853
 9818TIP3   OH229394   6.960   2.884   3.113
 9818TIP3    H129395   6.877   2.916   3.078
 9818TIP3    H229396   7.026   2.931   3.061
 9819TIP3   OH229397   4.383   5.718   5.264
 9819TIP3    H129398   4.353   5.662   5.192
 9819TIP3    H229399   4.409   5.656   5.332
 9820TIP3   OH229400   8.045   0.508   5.638
 9820TIP3    H129401   8.071   0.425   5.599
 9820TIP3    H229402   7.957   0.493   5.671
 9821TIP3   OH229403   5.415   5.438   2.575
 9821TIP3    H129404   5.398   5.357   2.624
 9821TIP3    H229405   5.468   5.491   2.635
 9822TIP3   OH229406   3.797   1.140   2.443
 9822TIP3    H129407   3.860   1.123   2.512
 9822TIP3    H229408   3.712   1.141   2.487
 9823TIP3   OH229409   6.216   1.561   2.750
 9823TIP3    H129410   6.178   1.479   2.720
 9823TIP3    H229411   6.172   1.579   2.833
 9824TIP3   OH229412   0.554   2.689   6.460
 9824TIP3    H129413   0.610   2.733   6.396
 9824TIP3    H229414   0.616   2.642   6.516
 9825TIP3   OH229415   1.090   7.615   5.852
 9825TIP3    H129416   1.182   7.640   5.863
 9825TIP3    H229417   1.070   7.565   5.931
 9826TIP3   OH229418   3.162   0.103   3.512
 9826TIP3    H129419   3.176   0.088   3.605
 9826TIP3    H229420   3.068   0.091   3.499
 9827TIP3   OH229421   3.404   0.794   0.982
 9827TIP3    H129422   3.320   0.747   0.981
 9827TIP3    H229423   3.468   0.728   1.009
 9828TIP3   OH229424   6.087   6.684  -0.015
 9828TIP3    H129425   6.174   6.674  -0.054
 9828TIP3    H229426   6.103   6.726   0.069
 9829TIP3   OH229427   6.744   6.272   0.359
 9829TIP3    H129428   6.675   6.298   0.298
 9829TIP3    H229429   6.708   6.195   0.404
 9830TIP3   OH229430   2.697   5.115   0.341
 9830TIP3    H129431   2.730   5.028   0.317
 9830TIP3    H229432   2.625   5.131   0.280
 9831TIP3   OH229433   7.196   0.329   1.687
 9831TIP3    H129434   7.210   0.343   1.781
 9831TIP3    H229435   7.210   0.414   1.647
 9832TIP3   OH229436   6.883   2.655   6.567
 9832TIP3    H129437   6.918   2.712   6.634
 9832TIP3    H229438   6.852   2.714   6.498
 9833TIP3   OH229439   1.204   2.199   1.529
 9833TIP3    H129440   1.249   2.260   1.587
 9833TIP3    H229441   1.233   2.112   1.557
 9834TIP3   OH229442   1.811   7.272   5.716
 9834TIP3    H129443   1.743   7.337   5.734
 9834TIP3    H229444   1.764   7.197   5.680
 9835TIP3   OH229445   1.524   7.772   1.309
 9835TIP3    H129446   1.605   7.726   1.329
 9835TIP3    H229447   1.484   7.722   1.239
 9836TIP3   OH229448   0.589   6.345   0.247
 9836TIP3    H129449   0.499   6.354   0.215
 9836TIP3    H229450   0.602   6.251   0.256
 9837TIP3   OH229451   6.210   5.325   0.532
 9837TIP3    H129452   6.235   5.256   0.470
 9837TIP3    H229453   6.266   5.399   0.510
 9838TIP3   OH229454   7.132   0.736   1.148
 9838TIP3    H129455   7.131   0.816   1.095
 9838TIP3    H229456   7.146   0.666   1.085
 9839TIP3   OH229457   7.829   1.035   1.076
 9839TIP3    H129458   7.791   1.051   0.990
 9839TIP3    H229459   7.918   1.067   1.069
 9840TIP3   OH229460   0.270   1.653   0.563
 9840TIP3    H129461   0.319   1.596   0.623
 9840TIP3    H229462   0.225   1.593   0.504
 9841TIP3   OH229463   3.625   3.255   2.927
 9841TIP3    H129464   3.679   3.182   2.955
 9841TIP3    H229465   3.545   3.248   2.979
 9842TIP3   OH229466   2.051   5.689   4.521
 9842TIP3    H129467   2.054   5.664   4.428
 9842TIP3    H229468   2.121   5.754   4.530
 9843TIP3   OH229469   0.866   3.226   6.633
 9843TIP3    H129470   0.837   3.145   6.674
 9843TIP3    H229471   0.960   3.230   6.653
 9844TIP3   OH229472   8.196   3.287   3.285
 9844TIP3    H129473   8.259   3.219   3.307
 9844TIP3    H229474   8.232   3.327   3.206
 9845TIP3   OH229475   7.506   4.898   0.177
 9845TIP3    H129476   7.421   4.938   0.196
 9845TIP3    H229477   7.519   4.914   0.083
 9846TIP3   OH229478   1.144   6.672   6.337
 9846TIP3    H129479   1.105   6.594   6.375
 9846TIP3    H229480   1.119   6.669   6.244
 9847TIP3   OH229481   3.773   3.297   2.660
 9847TIP3    H129482   3.856   3.317   2.703
 9847TIP3    H229483   3.707   3.306   2.728
 9848TIP3   OH229484   0.096   6.229   4.737
 9848TIP3    H129485   0.099   6.325   4.738
 9848TIP3    H229486   0.156   6.202   4.807
 9849TIP3   OH229487   2.931   1.672   5.951
 9849TIP3    H129488   2.897   1.735   6.014
 9849TIP3    H229489   3.026   1.670   5.968
 9850TIP3   OH229490   1.242   3.678   2.900
 9850TIP3    H129491   1.198   3.762   2.905
 9850TIP3    H229492   1.297   3.683   2.822
 9851TIP3   OH229493   8.160   3.312   5.780
 9851TIP3    H129494   8.112   3.281   5.857
 9851TIP3    H229495   8.093   3.354   5.725
 9852TIP3   OH229496   4.629   1.270   3.405
 9852TIP3    H129497   4.592   1.289   3.319
 9852TIP3    H229498   4.718   1.240   3.386
 9853TIP3   OH229499   6.448   4.977   4.006
 9853TIP3    H129500   6.427   4.936   4.090
 9853TIP3    H229501   6.427   5.070   4.019
 9854TIP3   OH229502   3.550   2.902   3.434
 9854TIP3    H129503   3.629   2.890   3.486
 9854TIP3    H229504   3.575   2.879   3.345
 9855TIP3   OH229505   4.182   4.344   1.656
 9855TIP3    H129506   4.116   4.383   1.598
 9855TIP3    H229507   4.138   4.268   1.694
 9856TIP3   OH229508   0.837   5.851   0.089
 9856TIP3    H129509   0.845   5.915   0.018
 9856TIP3    H229510   0.920   5.803   0.087
 9857TIP3   OH229511   1.716   6.423   1.605
 9857TIP3    H129512   1.658   6.437   1.679
 9857TIP3    H229513   1.801   6.402   1.644
 9858TIP3   OH229514   0.478   6.100   4.268
 9858TIP3    H129515   0.544   6.049   4.316
 9858TIP3    H229516   0.424   6.034   4.224
 9859TIP3   OH229517   7.997   0.934   1.744
 9859TIP3    H129518   7.998   0.839   1.732
 9859TIP3    H229519   8.024   0.969   1.658
 9860TIP3   OH229520   1.837   6.640   1.832
 9860TIP3    H129521   1.869   6.626   1.921
 9860TIP3    H229522   1.913   6.622   1.777
 9861TIP3   OH229523   1.781   1.885   0.970
 9861TIP3    H129524   1.802   1.968   1.012
 9861TIP3    H229525   1.765   1.907   0.879
 9862TIP3   OH229526   3.244   2.399   1.505
 9862TIP3    H129527   3.176   2.466   1.499
 9862TIP3    H229528   3.205   2.322   1.463
 9863TIP3   OH229529   3.152   7.798   5.249
 9863TIP3    H129530   3.159   7.742   5.326
 9863TIP3    H229531   3.076   7.764   5.201
 9864TIP3   OH229532   4.643   0.268   5.126
 9864TIP3    H129533   4.575   0.246   5.190
 9864TIP3    H229534   4.602   0.251   5.041
 9865TIP3   OH229535   0.450   6.972   3.673
 9865TIP3    H129536   0.521   6.964   3.737
 9865TIP3    H229537   0.406   6.887   3.677
 9866TIP3   OH229538   3.320   0.688   3.447
 9866TIP3    H129539   3.271   0.612   3.478
 9866TIP3    H229540   3.285   0.705   3.360
 9867TIP3   OH229541   6.421   1.969   5.297
 9867TIP3    H129542   6.427   2.003   5.387
 9867TIP3    H229543   6.504   1.994   5.256
 9868TIP3   OH229544   2.306   0.947   4.993
 9868TIP3    H129545   2.384   0.977   4.946
 9868TIP3    H229546   2.254   1.026   5.006
 9869TIP3   OH229547   2.391   7.909   2.335
 9869TIP3    H129548   2.304   7.870   2.337
 9869TIP3    H229549   2.445   7.850   2.388
 9870TIP3   OH229550   7.104   3.463   4.592
 9870TIP3    H129551   7.106   3.536   4.654
 9870TIP3    H229552   7.060   3.498   4.515
 9871TIP3   OH229553   5.022   3.194   4.541
 9871TIP3    H129554   5.078   3.259   4.499
 9871TIP3    H229555   4.940   3.240   4.559
 9872TIP3   OH229556   2.274   6.573   2.774
 9872TIP3    H129557   2.259   6.583   2.680
 9872TIP3    H229558   2.265   6.479   2.789
 9873TIP3   OH229559   6.452   1.271   0.843
 9873TIP3    H129560   6.479   1.259   0.752
 9873TIP3    H229561   6.518   1.225   0.894
 9874TIP3   OH229562   7.124   2.964   6.256
 9874TIP3    H129563   7.088   2.898   6.315
 9874TIP3    H229564   7.114   2.925   6.169
 9875TIP3   OH229565   5.526   4.937   3.347
 9875TIP3    H129566   5.618   4.961   3.344
 9875TIP3    H229567   5.526   4.841   3.351
 9876TIP3   OH229568   3.910   6.414   4.346
 9876TIP3    H129569   3.912   6.404   4.441
 9876TIP3    H229570   3.833   6.365   4.318
 9877TIP3   OH229571   2.914   2.329   1.306
 9877TIP3    H129572   2.976   2.269   1.346
 9877TIP3    H229573   2.849   2.347   1.374
 9878TIP3   OH229574   4.431   5.420   2.754
 9878TIP3    H129575   4.352   5.366   2.760
 9878TIP3    H229576   4.502   5.357   2.748
 9879TIP3   OH229577   3.090   5.047   0.965
 9879TIP3    H129578   3.054   5.088   1.044
 9879TIP3    H229579   3.176   5.086   0.954
 9880TIP3   OH229580   5.027   0.697   4.695
 9880TIP3    H129581   5.087   0.659   4.630
 9880TIP3    H229582   5.044   0.646   4.774
 9881TIP3   OH229583   2.864   0.175   0.681
 9881TIP3    H129584   2.883   0.237   0.611
 9881TIP3    H229585   2.838   0.095   0.637
 9882TIP3   OH229586   8.277   1.468   3.238
 9882TIP3    H129587   8.245   1.439   3.153
 9882TIP3    H229588   8.366   1.435   3.243
 9883TIP3   OH229589   2.161   6.608   3.515
 9883TIP3    H129590   2.131   6.652   3.435
 9883TIP3    H229591   2.245   6.649   3.535
 9884TIP3   OH229592   6.276   5.618   5.959
 9884TIP3    H129593   6.322   5.591   5.880
 9884TIP3    H229594   6.204   5.673   5.928
 9885TIP3   OH229595   7.457   2.198   4.440
 9885TIP3    H129596   7.495   2.224   4.523
 9885TIP3    H229597   7.511   2.241   4.374
 9886TIP3   OH229598   4.540   3.485   0.603
 9886TIP3    H129599   4.600   3.433   0.549
 9886TIP3    H229600   4.468   3.508   0.544
 9887TIP3   OH229601   4.947   2.009   5.460
 9887TIP3    H129602   4.927   2.023   5.553
 9887TIP3    H229603   4.871   2.044   5.414
 9888TIP3   OH229604   4.416   7.138   3.100
 9888TIP3    H129605   4.326   7.107   3.105
 9888TIP3    H229606   4.438   7.135   3.007
 9889TIP3   OH229607   6.296   6.129   6.019
 9889TIP3    H129608   6.373   6.132   5.962
 9889TIP3    H229609   6.330   6.155   6.105
 9890TIP3   OH229610   1.268   3.593   4.737
 9890TIP3    H129611   1.196   3.655   4.722
 9890TIP3    H229612   1.344   3.648   4.755
 9891TIP3   OH229613   6.159   0.840   1.766
 9891TIP3    H129614   6.246   0.820   1.802
 9891TIP3    H229615   6.111   0.878   1.839
 9892TIP3   OH229616   3.744   3.725   4.783
 9892TIP3    H129617   3.745   3.653   4.720
 9892TIP3    H229618   3.754   3.804   4.730
 9893TIP3   OH229619   2.713   4.711   2.175
 9893TIP3    H129620   2.705   4.616   2.171
 9893TIP3    H229621   2.688   4.742   2.088
 9894TIP3   OH229622   2.463   7.025   2.963
 9894TIP3    H129623   2.377   7.068   2.963
 9894TIP3    H229624   2.477   7.000   3.054
 9895TIP3   OH229625   5.575   5.530   5.082
 9895TIP3    H129626   5.589   5.472   5.157
 9895TIP3    H229627   5.493   5.500   5.044
 9896TIP3   OH229628   0.635   5.445   3.889
 9896TIP3    H129629   0.573   5.507   3.928
 9896TIP3    H229630   0.661   5.388   3.961
 9897TIP3   OH229631   3.665   5.919   5.325
 9897TIP3    H129632   3.739   5.970   5.292
 9897TIP3    H229633   3.691   5.828   5.312
 9898TIP3   OH229634   0.741   7.008   4.217
 9898TIP3    H129635   0.710   6.920   4.196
 9898TIP3    H229636   0.833   7.008   4.192
 9899TIP3   OH229637   5.596   1.472   0.658
 9899TIP3    H129638   5.628   1.504   0.574
 9899TIP3    H229639   5.501   1.481   0.652
 9900TIP3   OH229640   2.628   6.187   5.141
 9900TIP3    H129641   2.551   6.214   5.091
 9900TIP3    H229642   2.593   6.165   5.228
 9901TIP3   OH229643   3.818   5.418   2.434
 9901TIP3    H129644   3.859   5.500   2.407
 9901TIP3    H229645   3.845   5.354   2.368
 9902TIP3   OH229646   7.752   6.732   5.204
 9902TIP3    H129647   7.767   6.758   5.294
 9902TIP3    H229648   7.765   6.812   5.153
 9903TIP3   OH229649   1.047   3.099   4.939
 9903TIP3    H129650   1.068   3.112   5.031
 9903TIP3    H229651   1.094   3.170   4.894
 9904TIP3   OH229652   3.129   2.460   0.918
 9904TIP3    H129653   3.086   2.482   1.000
 9904TIP3    H229654   3.179   2.538   0.895
 9905TIP3   OH229655   2.849   0.925   5.433
 9905TIP3    H129656   2.772   0.870   5.445
 9905TIP3    H229657   2.862   0.927   5.338
 9906TIP3   OH229658   2.153   4.779   6.330
 9906TIP3    H129659   2.213   4.753   6.400
 9906TIP3    H229660   2.190   4.860   6.295
 9907TIP3   OH229661   3.452   1.325   6.465
 9907TIP3    H129662   3.452   1.344   6.372
 9907TIP3    H229663   3.407   1.241   6.473
 9908TIP3   OH229664   7.383   2.477   0.161
 9908TIP3    H129665   7.406   2.535   0.233
 9908TIP3    H229666   7.456   2.486   0.099
 9909TIP3   OH229667   0.251   2.762   0.907
 9909TIP3    H129668   0.228   2.677   0.943
 9909TIP3    H229669   0.241   2.823   0.980
 9910TIP3   OH229670   4.325   6.046   1.436
 9910TIP3    H129671   4.297   5.961   1.469
 9910TIP3    H229672   4.248   6.082   1.392
 9911TIP3   OH229673   3.652   0.653   5.601
 9911TIP3    H129674   3.566   0.660   5.560
 9911TIP3    H229675   3.645   0.576   5.657
 9912TIP3   OH229676   4.131   6.838   4.662
 9912TIP3    H129677   4.085   6.849   4.746
 9912TIP3    H229678   4.208   6.894   4.669
 9913TIP3   OH229679   5.470   0.588   4.057
 9913TIP3    H129680   5.502   0.528   3.990
 9913TIP3    H229681   5.400   0.637   4.014
 9914TIP3   OH229682   7.104   2.330   6.363
 9914TIP3    H129683   7.015   2.356   6.389
 9914TIP3    H229684   7.134   2.399   6.304
 9915TIP3   OH229685   4.875   1.670   1.603
 9915TIP3    H129686   4.828   1.753   1.607
 9915TIP3    H229687   4.886   1.644   1.695
 9916TIP3   OH229688   0.305   7.635   5.303
 9916TIP3    H129689   0.334   7.599   5.387
 9916TIP3    H229690   0.289   7.559   5.248
 9917TIP3   OH229691   4.644   1.305   1.172
 9917TIP3    H129692   4.602   1.273   1.092
 9917TIP3    H229693   4.617   1.396   1.179
 9918TIP3   OH229694   2.220   7.076   4.489
 9918TIP3    H129695   2.214   7.110   4.400
 9918TIP3    H229696   2.138   7.028   4.501
 9919TIP3   OH229697   2.331   4.016   2.745
 9919TIP3    H129698   2.352   4.081   2.812
 9919TIP3    H229699   2.268   4.061   2.688
 9920TIP3   OH229700   3.526   0.948   5.331
 9920TIP3    H129701   3.538   1.035   5.292
 9920TIP3    H229702   3.561   0.956   5.419
 9921TIP3   OH229703   2.150   0.878   5.531
 9921TIP3    H129704   2.111   0.901   5.616
 9921TIP3    H229705   2.241   0.907   5.537
 9922TIP3   OH229706   6.943   3.745   4.506
 9922TIP3    H129707   7.020   3.791   4.540
 9922TIP3    H229708   6.869   3.800   4.532
 9923TIP3   OH229709   5.118   1.914   1.217
 9923TIP3    H129710   5.119   1.847   1.148
 9923TIP3    H229711   5.177   1.880   1.284
 9924TIP3   OH229712   6.985   6.278   5.425
 9924TIP3    H129713   7.005   6.185   5.430
 9924TIP3    H229714   6.939   6.297   5.506
 9925TIP3   OH229715   0.961   0.126   5.761
 9925TIP3    H129716   0.918   0.208   5.787
 9925TIP3    H229717   0.890   0.072   5.727
 9926TIP3   OH229718   4.425   1.361   3.814
 9926TIP3    H129719   4.464   1.416   3.882
 9926TIP3    H229720   4.342   1.404   3.793
 9927TIP3   OH229721   4.139   0.202   5.010
 9927TIP3    H129722   4.209   0.249   5.057
 9927TIP3    H229723   4.176   0.185   4.924
 9928TIP3   OH229724   1.588   3.189   5.635
 9928TIP3    H129725   1.628   3.238   5.707
 9928TIP3    H229726   1.658   3.131   5.604
 9929TIP3   OH229727   2.773   1.455   3.890
 9929TIP3    H129728   2.762   1.384   3.953
 9929TIP3    H229729   2.774   1.411   3.805
 9930TIP3   OH229730   5.964   1.499   4.590
 9930TIP3    H129731   6.008   1.550   4.658
 9930TIP3    H229732   5.871   1.506   4.611
 9931TIP3   OH229733   4.015   7.778   1.745
 9931TIP3    H129734   4.064   7.785   1.827
 9931TIP3    H229735   3.959   7.856   1.744
 9932TIP3   OH229736   7.706   0.546   4.755
 9932TIP3    H129737   7.638   0.503   4.806
 9932TIP3    H229738   7.779   0.558   4.816
 9933TIP3   OH229739   3.380   0.451   4.901
 9933TIP3    H129740   3.289   0.421   4.902
 9933TIP3    H229741   3.419   0.409   4.825
 9934TIP3   OH229742   6.144   2.364   3.829
 9934TIP3    H129743   6.232   2.376   3.792
 9934TIP3    H229744   6.100   2.306   3.766
 9935TIP3   OH229745   1.411   5.412   0.570
 9935TIP3    H129746   1.470   5.390   0.642
 9935TIP3    H229747   1.323   5.405   0.607
 9936TIP3   OH229748   0.202   3.802   3.508
 9936TIP3    H129749   0.183   3.738   3.577
 9936TIP3    H229750   0.142   3.781   3.437
 9937TIP3   OH229751   6.097   5.378   4.464
 9937TIP3    H129752   6.055   5.359   4.548
 9937TIP3    H229753   6.045   5.449   4.427
 9938TIP3   OH229754   2.168   5.068   6.289
 9938TIP3    H129755   2.114   5.070   6.368
 9938TIP3    H229756   2.213   5.152   6.287
 9939TIP3   OH229757   0.442   0.610   4.051
 9939TIP3    H129758   0.532   0.581   4.066
 9939TIP3    H229759   0.398   0.534   4.014
 9940TIP3   OH229760   4.068   5.500   6.415
 9940TIP3    H129761   4.074   5.550   6.497
 9940TIP3    H229762   4.155   5.462   6.404
 9941TIP3   OH229763   6.938   5.799   2.810
 9941TIP3    H129764   6.963   5.781   2.900
 9941TIP3    H229765   6.962   5.720   2.762
 9942TIP3   OH229766   3.632   0.683   1.937
 9942TIP3    H129767   3.683   0.744   1.990
 9942TIP3    H229768   3.695   0.618   1.908
 9943TIP3   OH229769   3.095   7.762   0.479
 9943TIP3    H129770   3.079   7.702   0.407
 9943TIP3    H229771   3.189   7.779   0.476
 9944TIP3   OH229772   7.509   0.702   5.099
 9944TIP3    H129773   7.574   0.765   5.069
 9944TIP3    H229774   7.451   0.688   5.024
 9945TIP3   OH229775   0.565   4.007   6.790
 9945TIP3    H129776   0.656   4.024   6.816
 9945TIP3    H229777   0.572   3.976   6.700
 9946TIP3   OH229778   2.830   2.696   3.638
 9946TIP3    H129779   2.897   2.663   3.698
 9946TIP3    H229780   2.874   2.701   3.553
 9947TIP3   OH229781   2.707   5.415   2.295
 9947TIP3    H129782   2.704   5.381   2.385
 9947TIP3    H229783   2.760   5.352   2.247
 9948TIP3   OH229784   4.881   1.348   2.151
 9948TIP3    H129785   4.881   1.440   2.122
 9948TIP3    H229786   4.859   1.353   2.244
 9949TIP3   OH229787   3.590   5.931   5.979
 9949TIP3    H129788   3.518   5.885   5.936
 9949TIP3    H229789   3.666   5.912   5.925
 9950TIP3   OH229790   3.743   5.974   1.229
 9950TIP3    H129791   3.817   6.024   1.193
 9950TIP3    H229792   3.767   5.960   1.321
 9951TIP3   OH229793   5.172   1.489   1.277
 9951TIP3    H129794   5.119   1.454   1.348
 9951TIP3    H229795   5.257   1.447   1.288
 9952TIP3   OH229796   4.778   7.291   0.860
 9952TIP3    H129797   4.851   7.235   0.887
 9952TIP3    H229798   4.819   7.373   0.833
 9953TIP3   OH229799   1.957   1.945   4.007
 9953TIP3    H129800   1.986   1.900   3.928
 9953TIP3    H229801   2.026   1.927   4.071
 9954TIP3   OH229802   6.702   4.819   3.038
 9954TIP3    H129803   6.726   4.881   2.969
 9954TIP3    H229804   6.710   4.870   3.119
 9955TIP3   OH229805   7.786   4.062   3.546
 9955TIP3    H129806   7.842   3.998   3.502
 9955TIP3    H229807   7.770   4.024   3.632
 9956TIP3   OH229808   2.772   3.212   3.636
 9956TIP3    H129809   2.858   3.214   3.595
 9956TIP3    H229810   2.719   3.158   3.577
 9957TIP3   OH229811   8.008   2.226   3.805
 9957TIP3    H129812   8.076   2.158   3.816
 9957TIP3    H229813   7.978   2.244   3.894
 9958TIP3   OH229814   7.009   5.917   1.196
 9958TIP3    H129815   6.945   5.878   1.254
 9958TIP3    H229816   7.069   5.965   1.254
 9959TIP3   OH229817   5.146   4.139   2.891
 9959TIP3    H129818   5.142   4.059   2.839
 9959TIP3    H229819   5.225   4.183   2.861
 9960TIP3   OH229820   0.833   1.679   5.745
 9960TIP3    H129821   0.813   1.664   5.838
 9960TIP3    H229822   0.868   1.768   5.743
 9961TIP3   OH229823   5.942   0.956   0.166
 9961TIP3    H129824   5.863   0.930   0.214
 9961TIP3    H229825   5.926   1.047   0.140
 9962TIP3   OH229826   7.602   5.591   0.666
 9962TIP3    H129827   7.605   5.647   0.589
 9962TIP3    H229828   7.565   5.646   0.735
 9963TIP3   OH229829   2.843   2.866   5.586
 9963TIP3    H129830   2.871   2.955   5.608
 9963TIP3    H229831   2.747   2.870   5.588
 9964TIP3   OH229832   5.013   1.011   3.197
 9964TIP3    H129833   5.023   0.921   3.165
 9964TIP3    H229834   5.060   1.012   3.281
 9965TIP3   OH229835   7.009   5.550   4.280
 9965TIP3    H129836   7.016   5.475   4.339
 9965TIP3    H229837   7.053   5.621   4.328
 9966TIP3   OH229838   8.231   4.083   6.775
 9966TIP3    H129839   8.279   4.083   6.858
 9966TIP3    H229840   8.146   4.122   6.796
 9967TIP3   OH229841   4.870   5.392   0.112
 9967TIP3    H129842   4.831   5.437   0.187
 9967TIP3    H229843   4.796   5.359   0.061
 9968TIP3   OH229844   1.150   5.309   4.046
 9968TIP3    H129845   1.192   5.291   3.962
 9968TIP3    H229846   1.081   5.243   4.053
 9969TIP3   OH229847   3.757   5.684   6.806
 9969TIP3    H129848   3.818   5.635   6.751
 9969TIP3    H229849   3.689   5.621   6.829
 9970TIP3   OH229850   3.641   7.285   5.135
 9970TIP3    H129851   3.648   7.294   5.040
 9970TIP3    H229852   3.573   7.218   5.147
 9971TIP3   OH229853   5.802   1.325   1.814
 9971TIP3    H129854   5.730   1.270   1.783
 9971TIP3    H229855   5.802   1.314   1.909
 9972TIP3   OH229856   3.780   2.881   2.503
 9972TIP3    H129857   3.824   2.886   2.418
 9972TIP3    H229858   3.727   2.961   2.507
 9973TIP3   OH229859   6.629   0.873   1.751
 9973TIP3    H129860   6.666   0.962   1.757
 9973TIP3    H229861   6.705   0.816   1.761
 9974TIP3   OH229862   8.009   4.360   5.155
 9974TIP3    H129863   7.917   4.334   5.156
 9974TIP3    H229864   8.056   4.282   5.127
 9975TIP3   OH229865   1.099   3.475   5.281
 9975TIP3    H129866   1.082   3.568   5.268
 9975TIP3    H229867   1.095   3.462   5.376
 9976TIP3   OH229868   4.271   2.837   6.233
 9976TIP3    H129869   4.271   2.777   6.159
 9976TIP3    H229870   4.323   2.792   6.300
 9977TIP3   OH229871   5.833   5.309   6.238
 9977TIP3    H129872   5.870   5.331   6.324
 9977TIP3    H229873   5.840   5.390   6.188
 9978TIP3   OH229874   8.078   5.526   2.446
 9978TIP3    H129875   7.994   5.499   2.410
 9978TIP3    H229876   8.109   5.449   2.494
 9979TIP3   OH229877   7.138   3.506   2.002
 9979TIP3    H129878   7.186   3.497   1.920
 9979TIP3    H229879   7.051   3.536   1.977
 9980TIP3   OH229880   1.697   7.044   1.783
 9980TIP3    H129881   1.669   6.954   1.766
 9980TIP3    H229882   1.787   7.049   1.751
 9981TIP3   OH229883   7.223   4.534   6.584
 9981TIP3    H129884   7.257   4.559   6.498
 9981TIP3    H229885   7.129   4.523   6.570
 9982TIP3   OH229886   6.910   6.165   1.986
 9982TIP3    H129887   7.003   6.187   1.979
 9982TIP3    H229888   6.881   6.206   2.067
 9983TIP3   OH229889   3.943   0.804   1.133
 9983TIP3    H129890   3.977   0.750   1.205
 9983TIP3    H229891   3.963   0.894   1.159
 9984TIP3   OH229892   4.532   6.128   0.550
 9984TIP3    H129893   4.555   6.219   0.569
 9984TIP3    H229894   4.475   6.134   0.473
 9985TIP3   OH229895   7.784   4.258   0.057
 9985TIP3    H129896   7.764   4.258   0.150
 9985TIP3    H229897   7.807   4.349   0.037
 9986TIP3   OH229898   6.692   0.965   1.382
 9986TIP3    H129899   6.621   0.997   1.326
 9986TIP3    H229900   6.652   0.898   1.437
 9987TIP3   OH229901   4.961   6.564   0.553
 9987TIP3    H129902   4.961   6.523   0.467
 9987TIP3    H229903   5.019   6.639   0.544
 9988TIP3   OH229904   3.743   3.858   5.968
 9988TIP3    H129905   3.806   3.794   6.001
 9988TIP3    H229906   3.664   3.842   6.019
 9989TIP3   OH229907   3.184   6.498   5.193
 9989TIP3    H129908   3.124   6.488   5.119
 9989TIP3    H229909   3.154   6.578   5.237
 9990TIP3   OH229910   5.948   0.646   1.503
 9990TIP3    H129911   6.032   0.608   1.528
 9990TIP3    H229912   5.971   0.721   1.447
 9991TIP3   OH229913   5.574   2.565   5.573
 9991TIP3    H129914   5.480   2.548   5.564
 9991TIP3    H229915   5.579   2.653   5.610
 9992TIP3   OH229916   7.851   6.785   4.945
 9992TIP3    H129917   7.785   6.724   4.977
 9992TIP3    H229918   7.802   6.847   4.890
 9993TIP3   OH229919   7.747   5.267   0.082
 9993TIP3    H129920   7.831   5.222   0.070
 9993TIP3    H229921   7.760   5.354   0.046
 9994TIP3   OH229922   2.444   2.914   1.225
 9994TIP3    H129923   2.480   2.955   1.147
 9994TIP3    H229924   2.448   2.983   1.293
 9995TIP3   OH229925   7.540   3.295   6.776
 9995TIP3    H129926   7.592   3.371   6.803
 9995TIP3    H229927   7.503   3.320   6.691
 9996TIP3   OH229928   7.589   0.493   2.408
 9996TIP3    H129929   7.533   0.418   2.430
 9996TIP3    H229930   7.636   0.512   2.489
 9997TIP3   OH229931   5.816   2.884   6.052
 9997TIP3    H129932   5.760   2.831   6.107
 9997TIP3    H229933   5.763   2.905   5.975
 9998TIP3   OH229934   3.339   4.507   2.769
 9998TIP3    H129935   3.402   4.493   2.840
 9998TIP3    H229936   3.386   4.480   2.690
 9999TIP3   OH229937   0.862   5.543   2.451
 9999TIP3    H129938   0.815   5.574   2.529
 9999TIP3    H229939   0.943   5.505   2.486
10000TIP3   OH229940   6.636   5.883   5.155
10000TIP3    H129941   6.670   5.911   5.239
10000TIP3    H229942   6.582   5.806   5.175
10001TIP3   OH229943   4.758   4.245   2.162
10001TIP3    H129944   4.824   4.242   2.230
10001TIP3    H229945   4.726   4.155   2.156
10002TIP3   OH229946   0.972   0.729   6.084
10002TIP3    H129947   0.999   0.665   6.150
10002TIP3    H229948   0.878   0.741   6.099
10003TIP3   OH229949   4.891   1.267   1.311
10003TIP3    H129950   4.820   1.267   1.247
10003TIP3    H229951   4.862   1.329   1.379
10004TIP3   OH229952   1.827   3.062   5.343
10004TIP3    H129953   1.918   3.063   5.313
10004TIP3    H229954   1.832   3.050   5.437
10005TIP3   OH229955   3.597   2.020   4.120
10005TIP3    H129956   3.600   1.980   4.207
10005TIP3    H229957   3.605   2.114   4.136
10006TIP3   OH229958   3.076   1.958   4.085
10006TIP3    H129959   3.048   1.997   4.002
10006TIP3    H229960   3.037   2.014   4.152
10007TIP3   OH229961   4.351   4.664   5.673
10007TIP3    H129962   4.321   4.585   5.628
10007TIP3    H229963   4.275   4.691   5.726
10008TIP3   OH229964   8.314   6.183   0.872
10008TIP3    H129965   8.224   6.158   0.894
10008TIP3    H229966   8.341   6.119   0.806
10009TIP3   OH229967   1.932   3.524   3.600
10009TIP3    H129968   1.971   3.442   3.571
10009TIP3    H229969   1.839   3.515   3.579
10010TIP3   OH229970   2.605   1.429   0.753
10010TIP3    H129971   2.521   1.457   0.789
10010TIP3    H229972   2.657   1.403   0.830
10011TIP3   OH229973   4.401   6.533   2.837
10011TIP3    H129974   4.430   6.616   2.800
10011TIP3    H229975   4.449   6.466   2.788
10012TIP3   OH229976   5.457   1.933   4.382
10012TIP3    H129977   5.542   1.891   4.370
10012TIP3    H229978   5.478   2.025   4.398
10013TIP3   OH229979   2.509   5.708   1.176
10013TIP3    H129980   2.499   5.699   1.271
10013TIP3    H229981   2.464   5.633   1.139
10014TIP3   OH229982   3.163   7.446   0.594
10014TIP3    H129983   3.133   7.492   0.515
10014TIP3    H229984   3.162   7.354   0.570
10015TIP3   OH229985   1.141   7.747   4.394
10015TIP3    H129986   1.053   7.767   4.426
10015TIP3    H229987   1.129   7.674   4.334
10016TIP3   OH229988   3.735   2.845   0.353
10016TIP3    H129989   3.714   2.892   0.272
10016TIP3    H229990   3.807   2.787   0.330
10017TIP3   OH229991   2.341   7.223   6.351
10017TIP3    H129992   2.374   7.280   6.421
10017TIP3    H229993   2.251   7.203   6.378
10018TIP3   OH229994   6.882   4.779   2.299
10018TIP3    H129995   6.945   4.846   2.271
10018TIP3    H229996   6.898   4.770   2.393
10019TIP3   OH229997   8.331   3.825   5.450
10019TIP3    H129998   8.361   3.740   5.482
10019TIP3    H229999   8.236   3.816   5.442
10020TIP3   OH230000   2.229   5.376   0.079
10020TIP3    H130001   2.195   5.448   0.133
10020TIP3    H230002   2.247   5.417  -0.006
10021TIP3   OH230003   2.841   7.051   1.621
10021TIP3    H130004   2.898   7.124   1.644
10021TIP3    H230005   2.753   7.082   1.643
10022TIP3   OH230006   5.505   1.039   2.378
10022TIP3    H130007   5.511   0.956   2.426
10022TIP3    H230008   5.553   1.023   2.297
10023TIP3   OH230009   6.785   0.396   4.089
10023TIP3    H130010   6.753   0.361   4.005
10023TIP3    H230011   6.712   0.446   4.124
10024TIP3   OH230012   5.289   4.397   4.437
10024TIP3    H130013   5.348   4.455   4.388
10024TIP3    H230014   5.269   4.326   4.376
10025TIP3   OH230015   4.512   2.494   5.377
10025TIP3    H130016   4.499   2.457   5.290
10025TIP3    H230017   4.555   2.424   5.427
10026TIP3   OH230018   4.408   0.321   4.928
10026TIP3    H130019   4.400   0.417   4.924
10026TIP3    H230020   4.372   0.290   4.845
10027TIP3   OH230021   0.378   3.553   0.106
10027TIP3    H130022   0.392   3.459   0.096
10027TIP3    H230023   0.296   3.570   0.059
10028TIP3   OH230024   6.417   3.610   3.883
10028TIP3    H130025   6.481   3.657   3.829
10028TIP3    H230026   6.334   3.653   3.864
10029TIP3   OH230027   6.573   3.436   0.488
10029TIP3    H130028   6.599   3.384   0.412
10029TIP3    H230029   6.655   3.476   0.518
10030TIP3   OH230030   3.557   6.337   5.660
10030TIP3    H130031   3.477   6.285   5.656
10030TIP3    H230032   3.628   6.273   5.662
10031TIP3   OH230033   2.500   3.901   6.896
10031TIP3    H130034   2.566   3.876   6.831
10031TIP3    H230035   2.420   3.916   6.845
10032TIP3   OH230036   6.351   2.049   1.002
10032TIP3    H130037   6.301   2.095   1.069
10032TIP3    H230038   6.438   2.036   1.041
10033TIP3   OH230039   8.018   3.900   1.406
10033TIP3    H130040   8.067   3.886   1.324
10033TIP3    H230041   8.000   3.812   1.438
10034TIP3   OH230042   7.523   2.705   2.991
10034TIP3    H130043   7.570   2.660   2.921
10034TIP3    H230044   7.565   2.791   2.998
10035TIP3   OH230045   3.733   2.785   3.236
10035TIP3    H130046   3.671   2.713   3.248
10035TIP3    H230047   3.772   2.770   3.150
10036TIP3   OH230048   7.201   0.748   0.413
10036TIP3    H130049   7.212   0.715   0.324
10036TIP3    H230050   7.130   0.695   0.450
10037TIP3   OH230051   7.570   1.807   4.665
10037TIP3    H130052   7.517   1.881   4.692
10037TIP3    H230053   7.545   1.790   4.574
10038TIP3   OH230054   1.848   2.441   0.680
10038TIP3    H130055   1.793   2.363   0.691
10038TIP3    H230056   1.822   2.498   0.752
10039TIP3   OH230057   0.481   6.297   1.137
10039TIP3    H130058   0.439   6.218   1.171
10039TIP3    H230059   0.560   6.307   1.190
10040TIP3   OH230060   7.094   1.774   3.388
10040TIP3    H130061   7.184   1.806   3.387
10040TIP3    H230062   7.041   1.854   3.380
10041TIP3   OH230063   5.870   2.740   0.529
10041TIP3    H130064   5.785   2.773   0.557
10041TIP3    H230065   5.864   2.645   0.539
10042TIP3   OH230066   3.703   6.493   4.676
10042TIP3    H130067   3.651   6.565   4.639
10042TIP3    H230068   3.652   6.415   4.658
10043TIP3   OH230069   7.445   7.595   3.042
10043TIP3    H130070   7.483   7.652   3.109
10043TIP3    H230071   7.427   7.654   2.968
10044TIP3   OH230072   2.641   2.089   4.508
10044TIP3    H130073   2.632   2.046   4.593
10044TIP3    H230074   2.601   2.028   4.446
10045TIP3   OH230075   5.344   1.855   1.360
10045TIP3    H130076   5.388   1.931   1.398
10045TIP3    H230077   5.403   1.781   1.378
10046TIP3   OH230078   0.559   3.304   4.780
10046TIP3    H130079   0.556   3.378   4.841
10046TIP3    H230080   0.473   3.303   4.739
10047TIP3   OH230081   6.427   5.819   0.249
10047TIP3    H130082   6.356   5.858   0.199
10047TIP3    H230083   6.407   5.841   0.340
10048TIP3   OH230084   1.381   4.626   6.467
10048TIP3    H130085   1.475   4.623   6.451
10048TIP3    H230086   1.369   4.583   6.552
10049TIP3   OH230087   3.415   3.338   0.572
10049TIP3    H130088   3.465   3.274   0.521
10049TIP3    H230089   3.479   3.372   0.635
10050TIP3   OH230090   4.540   0.248   6.206
10050TIP3    H130091   4.611   0.207   6.254
10050TIP3    H230092   4.524   0.190   6.131
10051TIP3   OH230093   4.396   6.512   4.949
10051TIP3    H130094   4.319   6.498   5.003
10051TIP3    H230095   4.453   6.438   4.968
10052TIP3   OH230096   8.010   7.171   3.758
10052TIP3    H130097   7.989   7.255   3.717
10052TIP3    H230098   8.070   7.129   3.698
10053TIP3   OH230099   2.782   3.579   2.720
10053TIP3    H130100   2.708   3.629   2.755
10053TIP3    H230101   2.769   3.491   2.754
10054TIP3   OH230102   1.728   3.507   1.694
10054TIP3    H130103   1.820   3.513   1.719
10054TIP3    H230104   1.708   3.592   1.656
10055TIP3   OH230105   4.381   6.195   0.333
10055TIP3    H130106   4.377   6.290   0.330
10055TIP3    H230107   4.359   6.167   0.244
10056TIP3   OH230108   6.192   2.095   5.217
10056TIP3    H130109   6.161   2.078   5.128
10056TIP3    H230110   6.282   2.063   5.218
10057TIP3   OH230111   7.336   5.496   3.667
10057TIP3    H130112   7.422   5.460   3.690
10057TIP3    H230113   7.311   5.548   3.743
10058TIP3   OH230114   2.793   5.609   0.941
10058TIP3    H130115   2.858   5.676   0.958
10058TIP3    H230116   2.828   5.560   0.866
10059TIP3   OH230117   5.515   3.487   6.519
10059TIP3    H130118   5.538   3.523   6.433
10059TIP3    H230119   5.568   3.538   6.580
10060TIP3   OH230120   4.821   3.063   2.281
10060TIP3    H130121   4.778   3.138   2.321
10060TIP3    H230122   4.751   2.998   2.270
10061TIP3   OH230123   3.573   5.703   4.288
10061TIP3    H130124   3.669   5.700   4.287
10061TIP3    H230125   3.546   5.612   4.296
10062TIP3   OH230126   3.547   1.415   1.997
10062TIP3    H130127   3.544   1.324   1.968
10062TIP3    H230128   3.575   1.410   2.089
10063TIP3   OH230129   2.060   4.163   3.839
10063TIP3    H130130   1.998   4.153   3.912
10063TIP3    H230131   2.135   4.208   3.879
10064TIP3   OH230132   0.703   7.084   6.200
10064TIP3    H130133   0.631   7.044   6.153
10064TIP3    H230134   0.669   7.169   6.230
10065TIP3   OH230135   0.336   4.100   0.766
10065TIP3    H130136   0.368   4.180   0.808
10065TIP3    H230137   0.254   4.125   0.725
10066TIP3   OH230138   6.456   5.420   5.409
10066TIP3    H130139   6.470   5.501   5.460
10066TIP3    H230140   6.505   5.354   5.457
10067TIP3   OH230141   5.953   1.767   2.343
10067TIP3    H130142   6.015   1.787   2.273
10067TIP3    H230143   6.004   1.720   2.408
10068TIP3   OH230144   1.840   3.991   5.404
10068TIP3    H130145   1.851   4.066   5.462
10068TIP3    H230146   1.897   3.923   5.440
10069TIP3   OH230147   1.642   1.852   5.470
10069TIP3    H130148   1.672   1.763   5.490
10069TIP3    H230149   1.720   1.907   5.479
10070TIP3   OH230150   5.185   7.718   0.232
10070TIP3    H130151   5.249   7.741   0.165
10070TIP3    H230152   5.237   7.684   0.304
10071TIP3   OH230153   3.958   2.516   6.023
10071TIP3    H130154   3.900   2.477   5.958
10071TIP3    H230155   4.007   2.583   5.975
10072TIP3   OH230156   7.290   5.622   1.053
10072TIP3    H130157   7.363   5.682   1.069
10072TIP3    H230158   7.268   5.634   0.961
10073TIP3   OH230159   5.795   6.931   6.397
10073TIP3    H130160   5.720   6.877   6.419
10073TIP3    H230161   5.861   6.910   6.463
10074TIP3   OH230162   4.079   6.913   1.910
10074TIP3    H130163   4.124   6.849   1.965
10074TIP3    H230164   3.987   6.887   1.913
10075TIP3   OH230165   3.021   6.177   3.224
10075TIP3    H130166   2.964   6.251   3.204
10075TIP3    H230167   2.963   6.110   3.260
10076TIP3   OH230168   5.561   5.184   1.864
10076TIP3    H130169   5.538   5.107   1.916
10076TIP3    H230170   5.565   5.151   1.774
10077TIP3   OH230171   3.754   2.193   4.274
10077TIP3    H130172   3.724   2.274   4.233
10077TIP3    H230173   3.837   2.173   4.230
10078TIP3   OH230174   6.873   7.771   4.297
10078TIP3    H130175   6.824   7.720   4.361
10078TIP3    H230176   6.826   7.854   4.291
10079TIP3   OH230177   0.531   3.181   1.298
10079TIP3    H130178   0.556   3.223   1.380
10079TIP3    H230179   0.493   3.251   1.246
10080TIP3   OH230180   0.695   0.460   3.935
10080TIP3    H130181   0.686   0.394   3.866
10080TIP3    H230182   0.725   0.539   3.890
10081TIP3   OH230183   6.491   3.789   0.954
10081TIP3    H130184   6.538   3.845   0.893
10081TIP3    H230185   6.524   3.813   1.040
10082TIP3   OH230186   6.698   3.509   3.476
10082TIP3    H130187   6.648   3.529   3.397
10082TIP3    H230188   6.777   3.465   3.445
10083TIP3   OH230189   0.802   6.329   6.265
10083TIP3    H130190   0.751   6.410   6.261
10083TIP3    H230191   0.886   6.356   6.303
10084TIP3   OH230192   1.803   3.120   0.882
10084TIP3    H130193   1.737   3.182   0.850
10084TIP3    H230194   1.781   3.037   0.839
10085TIP3   OH230195   5.469   5.470   2.271
10085TIP3    H130196   5.551   5.423   2.286
10085TIP3    H230197   5.431   5.481   2.358
10086TIP3   OH230198   7.034   3.244   1.278
10086TIP3    H130199   6.976   3.200   1.340
10086TIP3    H230200   7.010   3.336   1.284
10087TIP3   OH230201   8.132   1.413   1.350
10087TIP3    H130202   8.061   1.422   1.414
10087TIP3    H230203   8.111   1.477   1.282
10088TIP3   OH230204   0.542   4.771   6.538
10088TIP3    H130205   0.497   4.687   6.542
10088TIP3    H230206   0.626   4.751   6.495
10089TIP3   OH230207   6.348   5.258   3.853
10089TIP3    H130208   6.429   5.268   3.804
10089TIP3    H230209   6.376   5.254   3.945
10090TIP3   OH230210   0.726   4.857   3.985
10090TIP3    H130211   0.662   4.885   3.919
10090TIP3    H230212   0.793   4.811   3.935
10091TIP3   OH230213   5.357   3.330   6.669
10091TIP3    H130214   5.434   3.369   6.627
10091TIP3    H230215   5.327   3.264   6.606
10092TIP3   OH230216   3.388   4.639   6.645
10092TIP3    H130217   3.411   4.609   6.733
10092TIP3    H230218   3.307   4.689   6.658
10093TIP3   OH230219   5.819   5.178   0.318
10093TIP3    H130220   5.884   5.161   0.250
10093TIP3    H230221   5.870   5.208   0.393
10094TIP3   OH230222   3.882   0.437   4.968
10094TIP3    H130223   3.956   0.453   5.026
10094TIP3    H230224   3.806   0.433   5.026
10095TIP3   OH230225   3.852   1.042   5.744
10095TIP3    H130226   3.892   0.955   5.754
10095TIP3    H230227   3.904   1.085   5.676
10096TIP3   OH230228   0.579   5.382   3.534
10096TIP3    H130229   0.609   5.357   3.622
10096TIP3    H230230   0.522   5.458   3.549
10097TIP3   OH230231   0.423   6.129   6.593
10097TIP3    H130232   0.412   6.042   6.554
10097TIP3    H230233   0.394   6.190   6.526
10098TIP3   OH230234   1.671   3.173   4.132
10098TIP3    H130235   1.657   3.131   4.217
10098TIP3    H230236   1.638   3.262   4.144
10099TIP3   OH230237   0.910   6.393   4.076
10099TIP3    H130238   0.836   6.378   4.018
10099TIP3    H230239   0.982   6.345   4.036
10100TIP3   OH230240   4.655   3.567   1.865
10100TIP3    H130241   4.686   3.657   1.857
10100TIP3    H230242   4.706   3.531   1.938
10101TIP3   OH230243   6.661   1.696   6.766
10101TIP3    H130244   6.675   1.626   6.829
10101TIP3    H230245   6.678   1.776   6.816
10102TIP3   OH230246   3.473   2.784   1.164
10102TIP3    H130247   3.447   2.700   1.126
10102TIP3    H230248   3.459   2.772   1.258
10103TIP3   OH230249   1.920   0.303   4.925
10103TIP3    H130250   1.883   0.215   4.915
10103TIP3    H230251   2.013   0.292   4.903
10104TIP3   OH230252   8.367   5.117   0.413
10104TIP3    H130253   8.308   5.176   0.366
10104TIP3    H230254   8.313   5.039   0.431
10105TIP3   OH230255   3.616   7.894   1.289
10105TIP3    H130256   3.533   7.928   1.255
10105TIP3    H230257   3.601   7.800   1.298
10106TIP3   OH230258   4.993   0.035   3.938
10106TIP3    H130259   5.085   0.042   3.913
10106TIP3    H230260   4.989   0.078   4.024
10107TIP3   OH230261   1.638   4.131   5.799
10107TIP3    H130262   1.651   4.186   5.722
10107TIP3    H230263   1.647   4.041   5.767
10108TIP3   OH230264   3.517   5.492   5.744
10108TIP3    H130265   3.509   5.504   5.838
10108TIP3    H230266   3.428   5.469   5.715
10109TIP3   OH230267   6.892   0.088   3.418
10109TIP3    H130268   6.849   0.094   3.333
10109TIP3    H230269   6.980   0.057   3.398
10110TIP3   OH230270   2.387   1.982   2.162
10110TIP3    H130271   2.346   2.055   2.209
10110TIP3    H230272   2.433   1.933   2.230
10111TIP3   OH230273   7.037   5.665   5.260
10111TIP3    H130274   7.077   5.646   5.345
10111TIP3    H230275   6.952   5.622   5.262
10112TIP3   OH230276   4.007   2.508   1.903
10112TIP3    H130277   3.936   2.492   1.841
10112TIP3    H230278   3.976   2.580   1.957
10113TIP3   OH230279   0.684   6.422   5.071
10113TIP3    H130280   0.725   6.446   4.987
10113TIP3    H230281   0.663   6.505   5.112
10114TIP3   OH230282   7.943   3.634   3.801
10114TIP3    H130283   8.007   3.593   3.742
10114TIP3    H230284   7.996   3.679   3.867
10115TIP3   OH230285   5.177   4.273   3.878
10115TIP3    H130286   5.194   4.204   3.813
10115TIP3    H230287   5.197   4.355   3.833
10116TIP3   OH230288   7.229   1.886   0.055
10116TIP3    H130289   7.260   1.893   0.145
10116TIP3    H230290   7.299   1.840   0.009
10117TIP3   OH230291   8.336   3.472   2.360
10117TIP3    H130292   8.331   3.393   2.413
10117TIP3    H230293   8.275   3.457   2.288
10118TIP3   OH230294   5.262   0.525   3.632
10118TIP3    H130295   5.305   0.580   3.567
10118TIP3    H230296   5.290   0.559   3.716
10119TIP3   OH230297   6.122   3.678   0.618
10119TIP3    H130298   6.175   3.758   0.623
10119TIP3    H230299   6.185   3.609   0.599
10120TIP3   OH230300   1.303   6.297   1.850
10120TIP3    H130301   1.397   6.292   1.830
10120TIP3    H230302   1.293   6.244   1.929
10121TIP3   OH230303   4.480   2.761   4.144
10121TIP3    H130304   4.478   2.807   4.228
10121TIP3    H230305   4.573   2.747   4.127
10122TIP3   OH230306   4.404   7.250   2.176
10122TIP3    H130307   4.447   7.295   2.103
10122TIP3    H230308   4.320   7.293   2.185
10123TIP3   OH230309   8.159   4.338   4.031
10123TIP3    H130310   8.239   4.293   4.006
10123TIP3    H230311   8.088   4.285   3.994
10124TIP3   OH230312   1.885   2.220   4.229
10124TIP3    H130313   1.827   2.274   4.175
10124TIP3    H230314   1.854   2.131   4.214
10125TIP3   OH230315   0.579   7.034   0.178
10125TIP3    H130316   0.503   6.999   0.132
10125TIP3    H230317   0.587   6.980   0.256
10126TIP3   OH230318   5.407   6.214   5.353
10126TIP3    H130319   5.428   6.301   5.318
10126TIP3    H230320   5.489   6.183   5.391
10127TIP3   OH230321   8.303   3.021   3.186
10127TIP3    H130322   8.291   3.017   3.091
10127TIP3    H230323   8.214   3.026   3.221
10128TIP3   OH230324   1.359   7.212   5.714
10128TIP3    H130325   1.401   7.297   5.728
10128TIP3    H230326   1.274   7.221   5.756
10129TIP3   OH230327   2.325   6.940   3.301
10129TIP3    H130328   2.370   6.957   3.384
10129TIP3    H230329   2.245   6.894   3.327
10130TIP3   OH230330   1.840   6.139   6.379
10130TIP3    H130331   1.787   6.202   6.426
10130TIP3    H230332   1.926   6.182   6.371
10131TIP3   OH230333   2.373   4.319   6.615
10131TIP3    H130334   2.419   4.295   6.696
10131TIP3    H230335   2.281   4.300   6.633
10132TIP3   OH230336   4.962   2.607   3.555
10132TIP3    H130337   4.900   2.556   3.607
10132TIP3    H230338   5.034   2.546   3.536
10133TIP3   OH230339   0.936   4.331   2.093
10133TIP3    H130340   0.951   4.358   2.184
10133TIP3    H230341   0.901   4.242   2.100
10134TIP3   OH230342   7.079   7.450   0.764
10134TIP3    H130343   7.022   7.513   0.810
10134TIP3    H230344   7.025   7.418   0.692
10135TIP3   OH230345   5.455   5.340   6.757
10135TIP3    H130346   5.520   5.380   6.816
10135TIP3    H230347   5.492   5.254   6.737
10136TIP3   OH230348   6.488   1.099   3.284
10136TIP3    H130349   6.543   1.045   3.340
10136TIP3    H230350   6.499   1.188   3.317
10137TIP3   OH230351   2.985   4.841   5.485
10137TIP3    H130352   2.922   4.869   5.419
10137TIP3    H230353   2.935   4.839   5.567
10138TIP3   OH230354   0.638   4.073   2.181
10138TIP3    H130355   0.680   4.007   2.126
10138TIP3    H230356   0.701   4.089   2.251
10139TIP3   OH230357   0.833   3.230   4.871
10139TIP3    H130358   0.913   3.183   4.897
10139TIP3    H230359   0.807   3.277   4.950
10140TIP3   OH230360   0.817   3.201   1.197
10140TIP3    H130361   0.780   3.186   1.284
10140TIP3    H230362   0.909   3.179   1.207
10141TIP3   OH230363   7.652   6.817   2.585
10141TIP3    H130364   7.692   6.740   2.626
10141TIP3    H230365   7.694   6.824   2.499
10142TIP3   OH230366   0.196   6.805   6.316
10142TIP3    H130367   0.202   6.891   6.274
10142TIP3    H230368   0.270   6.803   6.377
10143TIP3   OH230369   4.776   4.409   6.443
10143TIP3    H130370   4.856   4.456   6.464
10143TIP3    H230371   4.706   4.461   6.483
10144TIP3   OH230372   0.834   1.655   6.043
10144TIP3    H130373   0.759   1.691   6.090
10144TIP3    H230374   0.902   1.722   6.054
10145TIP3   OH230375   2.549   0.467   6.134
10145TIP3    H130376   2.544   0.522   6.212
10145TIP3    H230377   2.593   0.387   6.163
10146TIP3   OH230378   5.760   1.591   2.490
10146TIP3    H130379   5.812   1.662   2.453
10146TIP3    H230380   5.752   1.527   2.419
10147TIP3   OH230381   3.539   6.511   6.151
10147TIP3    H130382   3.557   6.586   6.094
10147TIP3    H230383   3.626   6.483   6.182
10148TIP3   OH230384   5.556   0.484   6.557
10148TIP3    H130385   5.550   0.427   6.481
10148TIP3    H230386   5.473   0.533   6.557
10149TIP3   OH230387   8.012   3.312   2.128
10149TIP3    H130388   8.049   3.227   2.103
10149TIP3    H230389   8.084   3.374   2.116
10150TIP3   OH230390   3.140   1.034   4.780
10150TIP3    H130391   3.127   0.953   4.830
10150TIP3    H230392   3.231   1.029   4.751
10151TIP3   OH230393   2.473   5.975   1.108
10151TIP3    H130394   2.500   5.883   1.116
10151TIP3    H230395   2.380   5.974   1.127
10152TIP3   OH230396   0.409   6.217   3.812
10152TIP3    H130397   0.403   6.205   3.717
10152TIP3    H230398   0.438   6.133   3.845
10153TIP3   OH230399   1.076   7.637   4.936
10153TIP3    H130400   1.055   7.666   4.847
10153TIP3    H230401   1.168   7.609   4.931
10154TIP3   OH230402   8.019   4.972   1.559
10154TIP3    H130403   7.929   4.992   1.584
10154TIP3    H230404   8.034   4.884   1.594
10155TIP3   OH230405   0.889   4.241   5.541
10155TIP3    H130406   0.947   4.168   5.522
10155TIP3    H230407   0.809   4.200   5.574
10156TIP3   OH230408   7.426   4.588   1.792
10156TIP3    H130409   7.482   4.585   1.870
10156TIP3    H230410   7.341   4.556   1.823
10157TIP3   OH230411   5.433   4.104   0.565
10157TIP3    H130412   5.384   4.058   0.498
10157TIP3    H230413   5.408   4.196   0.555
10158TIP3   OH230414   0.422   0.464   2.186
10158TIP3    H130415   0.330   0.444   2.202
10158TIP3    H230416   0.421   0.548   2.140
10159TIP3   OH230417   2.031   5.191   3.292
10159TIP3    H130418   2.024   5.228   3.204
10159TIP3    H230419   2.122   5.206   3.317
10160TIP3   OH230420   4.071   2.552   2.532
10160TIP3    H130421   3.997   2.584   2.584
10160TIP3    H230422   4.131   2.514   2.596
10161TIP3   OH230423   7.747   2.294   5.272
10161TIP3    H130424   7.833   2.293   5.314
10161TIP3    H230425   7.719   2.385   5.277
10162TIP3   OH230426   4.506   6.691   4.688
10162TIP3    H130427   4.462   6.711   4.771
10162TIP3    H230428   4.475   6.759   4.628
10163TIP3   OH230429   7.139   5.345   1.602
10163TIP3    H130430   7.071   5.281   1.584
10163TIP3    H230431   7.163   5.381   1.516
10164TIP3   OH230432   3.615   7.363   4.331
10164TIP3    H130433   3.540   7.414   4.300
10164TIP3    H230434   3.591   7.272   4.317
10165TIP3   OH230435   7.011   3.160   4.426
10165TIP3    H130436   7.044   3.080   4.466
10165TIP3    H230437   7.090   3.204   4.394
10166TIP3   OH230438   0.558   1.970   4.093
10166TIP3    H130439   0.634   1.995   4.040
10166TIP3    H230440   0.542   2.046   4.150
10167TIP3   OH230441   0.584   4.358   2.117
10167TIP3    H130442   0.613   4.365   2.026
10167TIP3    H230443   0.590   4.265   2.138
10168TIP3   OH230444   5.337   2.304   2.992
10168TIP3    H130445   5.377   2.299   2.905
10168TIP3    H230446   5.243   2.295   2.976
10169TIP3   OH230447   8.311   0.144   4.280
10169TIP3    H130448   8.399   0.146   4.243
10169TIP3    H230449   8.263   0.084   4.224
10170TIP3   OH230450   1.341   7.444   1.934
10170TIP3    H130451   1.385   7.359   1.938
10170TIP3    H230452   1.254   7.425   1.899
10171TIP3   OH230453   0.240   0.713   2.331
10171TIP3    H130454   0.307   0.779   2.345
10171TIP3    H230455   0.211   0.728   2.240
10172TIP3   OH230456   3.403   3.777   2.917
10172TIP3    H130457   3.370   3.687   2.920
10172TIP3    H230458   3.325   3.832   2.928
10173TIP3   OH230459   3.153   0.666   0.976
10173TIP3    H130460   3.103   0.741   1.006
10173TIP3    H230461   3.103   0.590   1.008
10174TIP3   OH230462   6.646   6.275   3.562
10174TIP3    H130463   6.639   6.232   3.477
10174TIP3    H230464   6.617   6.365   3.546
10175TIP3   OH230465   1.147   2.503   0.659
10175TIP3    H130466   1.193   2.567   0.714
10175TIP3    H230467   1.125   2.432   0.719
10176TIP3   OH230468   7.861   5.731   4.203
10176TIP3    H130469   7.802   5.707   4.132
10176TIP3    H230470   7.851   5.826   4.212
10177TIP3   OH230471   4.797   5.526   6.589
10177TIP3    H130472   4.780   5.449   6.643
10177TIP3    H230473   4.773   5.500   6.500
10178TIP3   OH230474   5.322   1.618   6.038
10178TIP3    H130475   5.384   1.668   6.091
10178TIP3    H230476   5.304   1.540   6.090
10179TIP3   OH230477   4.879   0.480   2.689
10179TIP3    H130478   4.960   0.530   2.673
10179TIP3    H230479   4.828   0.491   2.609
10180TIP3   OH230480   1.517   5.442   2.984
10180TIP3    H130481   1.470   5.359   2.981
10180TIP3    H230482   1.528   5.460   3.077
10181TIP3   OH230483   2.081   7.459   0.002
10181TIP3    H130484   2.107   7.547  -0.026
10181TIP3    H230485   2.144   7.436   0.070
10182TIP3   OH230486   6.776   6.494   1.396
10182TIP3    H130487   6.828   6.447   1.462
10182TIP3    H230488   6.838   6.556   1.357
10183TIP3   OH230489   5.344   0.286   4.512
10183TIP3    H130490   5.366   0.347   4.442
10183TIP3    H230491   5.256   0.256   4.491
10184TIP3   OH230492   1.968   0.230   0.606
10184TIP3    H130493   1.992   0.160   0.546
10184TIP3    H230494   1.898   0.193   0.660
10185TIP3   OH230495   5.363   0.631   1.165
10185TIP3    H130496   5.406   0.647   1.081
10185TIP3    H230497   5.432   0.592   1.220
10186TIP3   OH230498   8.304   7.784   4.963
10186TIP3    H130499   8.242   7.779   5.035
10186TIP3    H230500   8.253   7.761   4.885
10187TIP3   OH230501   7.704   4.043   2.540
10187TIP3    H130502   7.667   4.003   2.461
10187TIP3    H230503   7.662   3.996   2.613
10188TIP3   OH230504   5.677   1.927   5.037
10188TIP3    H130505   5.695   1.925   5.131
10188TIP3    H230506   5.610   1.994   5.027
10189TIP3   OH230507   6.083   0.735   3.675
10189TIP3    H130508   6.004   0.787   3.692
10189TIP3    H230509   6.155   0.799   3.681
10190TIP3   OH230510   2.635   5.406   5.378
10190TIP3    H130511   2.654   5.472   5.311
10190TIP3    H230512   2.555   5.438   5.421
10191TIP3   OH230513   6.414   7.632   0.838
10191TIP3    H130514   6.383   7.664   0.753
10191TIP3    H230515   6.484   7.693   0.862
10192TIP3   OH230516   4.041   2.762   2.119
10192TIP3    H130517   4.090   2.739   2.199
10192TIP3    H230518   4.085   2.840   2.086
10193TIP3   OH230519   7.816   0.297   3.716
10193TIP3    H130520   7.721   0.283   3.710
10193TIP3    H230521   7.850   0.212   3.745
10194TIP3   OH230522   3.911   5.275   4.600
10194TIP3    H130523   3.958   5.316   4.528
10194TIP3    H230524   3.819   5.294   4.583
10195TIP3   OH230525   8.104   4.789   1.320
10195TIP3    H130526   8.035   4.737   1.280
10195TIP3    H230527   8.074   4.879   1.315
10196TIP3   OH230528   6.487   5.406   6.609
10196TIP3    H130529   6.455   5.335   6.664
10196TIP3    H230530   6.420   5.474   6.615
10197TIP3   OH230531   8.070   3.352   5.059
10197TIP3    H130532   8.148   3.298   5.051
10197TIP3    H230533   8.020   3.313   5.131
10198TIP3   OH230534   2.661   1.900   2.082
10198TIP3    H130535   2.630   1.923   2.170
10198TIP3    H230536   2.610   1.957   2.023
10199TIP3   OH230537   4.299   0.440   2.950
10199TIP3    H130538   4.260   0.523   2.922
10199TIP3    H230539   4.382   0.466   2.991
10200TIP3   OH230540   4.466   0.981   5.108
10200TIP3    H130541   4.454   1.049   5.042
10200TIP3    H230542   4.560   0.984   5.129
10201TIP3   OH230543   2.547   3.509   0.742
10201TIP3    H130544   2.545   3.602   0.719
10201TIP3    H230545   2.457   3.489   0.769
10202TIP3   OH230546   3.531   3.611   1.633
10202TIP3    H130547   3.583   3.647   1.705
10202TIP3    H230548   3.477   3.684   1.603
10203TIP3   OH230549   1.281   7.608   3.701
10203TIP3    H130550   1.279   7.702   3.683
10203TIP3    H230551   1.334   7.571   3.630
10204TIP3   OH230552   5.254   2.219   0.966
10204TIP3    H130553   5.328   2.161   0.951
10204TIP3    H230554   5.259   2.284   0.895
10205TIP3   OH230555   5.287   4.764   5.327
10205TIP3    H130556   5.317   4.689   5.276
10205TIP3    H230557   5.200   4.740   5.357
10206TIP3   OH230558   5.625   4.936   5.181
10206TIP3    H130559   5.631   4.998   5.254
10206TIP3    H230560   5.643   4.850   5.220
10207TIP3   OH230561   7.033   5.035   1.790
10207TIP3    H130562   7.119   5.002   1.817
10207TIP3    H230563   7.046   5.062   1.699
10208TIP3   OH230564   2.584   6.113   5.397
10208TIP3    H130565   2.516   6.047   5.388
10208TIP3    H230566   2.568   6.153   5.483
10209TIP3   OH230567   0.526   1.049   0.997
10209TIP3    H130568   0.580   1.013   1.068
10209TIP3    H230569   0.472   1.115   1.039
10210TIP3   OH230570   0.698   0.972   4.687
10210TIP3    H130571   0.604   0.955   4.691
10210TIP3    H230572   0.729   0.922   4.611
10211TIP3   OH230573   6.793   6.735   3.927
10211TIP3    H130574   6.767   6.723   3.836
10211TIP3    H230575   6.885   6.708   3.929
10212TIP3   OH230576   2.021   5.381   1.995
10212TIP3    H130577   2.057   5.452   2.048
10212TIP3    H230578   2.061   5.302   2.030
10213TIP3   OH230579   3.086   3.563   4.374
10213TIP3    H130580   3.125   3.633   4.322
10213TIP3    H230581   3.157   3.501   4.389
10214TIP3   OH230582   5.569   2.381   3.335
10214TIP3    H130583   5.478   2.354   3.345
10214TIP3    H230584   5.600   2.398   3.424
10215TIP3   OH230585   4.594   3.046   1.900
10215TIP3    H130586   4.563   2.974   1.845
10215TIP3    H230587   4.642   3.003   1.971
10216TIP3   OH230588   2.948   4.389   3.623
10216TIP3    H130589   2.918   4.303   3.594
10216TIP3    H230590   3.040   4.392   3.599
10217TIP3   OH230591   0.915   0.664   5.073
10217TIP3    H130592   0.853   0.726   5.035
10217TIP3    H230593   0.899   0.669   5.167
10218TIP3   OH230594   8.078   6.408   2.628
10218TIP3    H130595   8.046   6.319   2.642
10218TIP3    H230596   8.093   6.442   2.717
10219TIP3   OH230597   6.051   1.774   6.005
10219TIP3    H130598   5.957   1.756   6.001
10219TIP3    H230599   6.092   1.695   5.969
10220TIP3   OH230600   8.211   2.330   6.699
10220TIP3    H130601   8.121   2.308   6.677
10220TIP3    H230602   8.251   2.352   6.615
10221TIP3   OH230603   1.450   7.912   3.626
10221TIP3    H130604   1.420   7.895   3.715
10221TIP3    H230605   1.545   7.911   3.632
10222TIP3   OH230606   8.155   3.355   0.361
10222TIP3    H130607   8.183   3.334   0.449
10222TIP3    H230608   8.063   3.380   0.370
10223TIP3   OH230609   5.253   3.065   2.807
10223TIP3    H130610   5.167   3.040   2.841
10223TIP3    H230611   5.253   3.161   2.810
10224TIP3   OH230612   5.721   7.037   3.537
10224TIP3    H130613   5.762   7.104   3.482
10224TIP3    H230614   5.706   6.963   3.478
10225TIP3   OH230615   2.466   3.017   2.723
10225TIP3    H130616   2.399   2.981   2.782
10225TIP3    H230617   2.478   2.949   2.657
10226TIP3   OH230618   6.025   4.379   0.556
10226TIP3    H130619   6.085   4.438   0.510
10226TIP3    H230620   5.983   4.329   0.486
10227TIP3   OH230621   2.244   1.009   5.946
10227TIP3    H130622   2.153   1.038   5.941
10227TIP3    H230623   2.272   1.033   6.034
10228TIP3   OH230624   1.366   0.579   1.516
10228TIP3    H130625   1.350   0.632   1.593
10228TIP3    H230626   1.343   0.490   1.543
10229TIP3   OH230627   6.291   6.751   6.329
10229TIP3    H130628   6.238   6.737   6.251
10229TIP3    H230629   6.381   6.756   6.297
10230TIP3   OH230630   7.623   3.688   3.993
10230TIP3    H130631   7.710   3.667   4.027
10230TIP3    H230632   7.567   3.618   4.027
10231TIP3   OH230633   3.427   5.072   6.502
10231TIP3    H130634   3.372   5.051   6.578
10231TIP3    H230635   3.479   4.993   6.488
10232TIP3   OH230636   2.047   0.184   2.179
10232TIP3    H130637   1.958   0.167   2.209
10232TIP3    H230638   2.041   0.181   2.084
10233TIP3   OH230639   2.167   1.731   5.428
10233TIP3    H130640   2.144   1.640   5.408
10233TIP3    H230641   2.159   1.777   5.344
10234TIP3   OH230642   6.079   6.608   3.974
10234TIP3    H130643   6.122   6.536   3.928
10234TIP3    H230644   6.113   6.687   3.932
10235TIP3   OH230645   0.425   4.951   6.160
10235TIP3    H130646   0.374   4.978   6.236
10235TIP3    H230647   0.492   5.018   6.151
10236TIP3   OH230648   6.068   4.140   0.741
10236TIP3    H130649   5.988   4.175   0.780
10236TIP3    H230650   6.087   4.198   0.667
10237TIP3   OH230651   5.301   5.037   5.205
10237TIP3    H130652   5.326   4.945   5.217
10237TIP3    H230653   5.215   5.033   5.163
10238TIP3   OH230654   5.240   7.476   4.932
10238TIP3    H130655   5.283   7.427   5.002
10238TIP3    H230656   5.294   7.460   4.855
10239TIP3   OH230657   5.765   0.128   3.751
10239TIP3    H130658   5.797   0.130   3.841
10239TIP3    H230659   5.844   0.140   3.698
10240TIP3   OH230660   0.111   6.947   1.457
10240TIP3    H130661   0.175   6.875   1.456
10240TIP3    H230662   0.072   6.942   1.544
10241TIP3   OH230663   2.591   3.308   1.865
10241TIP3    H130664   2.674   3.267   1.844
10241TIP3    H230665   2.536   3.238   1.899
10242TIP3   OH230666   1.459   6.987   1.206
10242TIP3    H130667   1.389   6.921   1.211
10242TIP3    H230668   1.434   7.053   1.271
10243TIP3   OH230669   6.395   4.517   4.321
10243TIP3    H130670   6.448   4.597   4.311
10243TIP3    H230671   6.306   4.549   4.335
10244TIP3   OH230672   1.410   0.782   2.172
10244TIP3    H130673   1.500   0.756   2.191
10244TIP3    H230674   1.415   0.830   2.090
10245TIP3   OH230675   6.597   5.819   4.876
10245TIP3    H130676   6.604   5.798   4.968
10245TIP3    H230677   6.517   5.872   4.870
10246TIP3   OH230678   2.024   3.552   5.232
10246TIP3    H130679   1.994   3.532   5.321
10246TIP3    H230680   2.025   3.467   5.188
10247TIP3   OH230681   6.520   1.113   2.277
10247TIP3    H130682   6.546   1.078   2.192
10247TIP3    H230683   6.583   1.184   2.293
10248TIP3   OH230684   7.881   0.143   4.405
10248TIP3    H130685   7.893   0.150   4.311
10248TIP3    H230686   7.788   0.158   4.419
10249TIP3   OH230687   1.300   6.202   2.122
10249TIP3    H130688   1.237   6.189   2.193
10249TIP3    H230689   1.384   6.209   2.166
10250TIP3   OH230690   5.691   4.318   5.911
10250TIP3    H130691   5.696   4.414   5.907
10250TIP3    H230692   5.763   4.293   5.969
10251TIP3   OH230693   4.675   3.138   1.541
10251TIP3    H130694   4.662   3.054   1.584
10251TIP3    H230695   4.663   3.203   1.610
10252TIP3   OH230696   5.244   0.652   2.374
10252TIP3    H130697   5.196   0.684   2.298
10252TIP3    H230698   5.329   0.695   2.369
10253TIP3   OH230699   0.722   3.649   5.748
10253TIP3    H130700   0.720   3.742   5.727
10253TIP3    H230701   0.733   3.605   5.663
10254TIP3   OH230702   3.641   6.773   2.737
10254TIP3    H130703   3.570   6.732   2.786
10254TIP3    H230704   3.635   6.866   2.759
10255TIP3   OH230705   5.559   5.758   4.025
10255TIP3    H130706   5.575   5.729   4.115
10255TIP3    H230707   5.633   5.815   4.005
10256TIP3   OH230708   4.840   0.472   3.070
10256TIP3    H130709   4.826   0.514   3.154
10256TIP3    H230710   4.807   0.534   3.006
10257TIP3   OH230711   1.644   6.498   2.744
10257TIP3    H130712   1.644   6.402   2.749
10257TIP3    H230713   1.578   6.517   2.677
10258TIP3   OH230714   4.197   0.538   2.622
10258TIP3    H130715   4.249   0.474   2.573
10258TIP3    H230716   4.141   0.579   2.556
10259TIP3   OH230717   4.517   0.381   5.751
10259TIP3    H130718   4.451   0.450   5.744
10259TIP3    H230719   4.571   0.406   5.826
10260TIP3   OH230720   1.869   6.629   3.276
10260TIP3    H130721   1.853   6.568   3.348
10260TIP3    H230722   1.840   6.581   3.198
10261TIP3   OH230723   1.062   4.813   1.307
10261TIP3    H130724   1.027   4.780   1.223
10261TIP3    H230725   1.001   4.882   1.332
10262TIP3   OH230726   4.075   5.298   6.742
10262TIP3    H130727   4.086   5.243   6.664
10262TIP3    H230728   4.050   5.237   6.811
10263TIP3   OH230729   1.557   4.712   0.981
10263TIP3    H130730   1.604   4.756   0.911
10263TIP3    H230731   1.492   4.776   1.010
10264TIP3   OH230732   5.596   3.278   5.927
10264TIP3    H130733   5.562   3.267   6.015
10264TIP3    H230734   5.691   3.274   5.937
10265TIP3   OH230735   5.302   7.563   6.812
10265TIP3    H130736   5.316   7.564   6.906
10265TIP3    H230737   5.207   7.568   6.800
10266TIP3   OH230738   0.686   6.996   0.580
10266TIP3    H130739   0.649   6.935   0.516
10266TIP3    H230740   0.611   7.027   0.630
10267TIP3   OH230741   7.045   1.159   5.800
10267TIP3    H130742   7.132   1.186   5.829
10267TIP3    H230743   6.985   1.214   5.851
10268TIP3   OH230744   4.317   1.418   2.482
10268TIP3    H130745   4.226   1.410   2.511
10268TIP3    H230746   4.331   1.512   2.475
10269TIP3   OH230747   0.595   6.653   5.185
10269TIP3    H130748   0.504   6.668   5.157
10269TIP3    H230749   0.632   6.741   5.191
10270TIP3   OH230750   2.803   2.413   3.105
10270TIP3    H130751   2.894   2.409   3.134
10270TIP3    H230752   2.764   2.331   3.136
10271TIP3   OH230753   1.629   5.541   6.389
10271TIP3    H130754   1.704   5.597   6.370
10271TIP3    H230755   1.624   5.481   6.315
10272TIP3   OH230756   8.320   0.984   6.084
10272TIP3    H130757   8.379   1.022   6.149
10272TIP3    H230758   8.257   1.054   6.066
10273TIP3   OH230759   2.027   6.187   3.585
10273TIP3    H130760   2.021   6.220   3.495
10273TIP3    H230761   2.018   6.265   3.640
10274TIP3   OH230762   4.896   2.545   6.314
10274TIP3    H130763   4.912   2.463   6.267
10274TIP3    H230764   4.859   2.604   6.249
10275TIP3   OH230765   3.588   0.336   1.778
10275TIP3    H130766   3.630   0.331   1.692
10275TIP3    H230767   3.655   0.374   1.835
10276TIP3   OH230768   6.911   3.676   2.220
10276TIP3    H130769   6.819   3.673   2.246
10276TIP3    H230770   6.935   3.584   2.206
10277TIP3   OH230771   2.702   5.300   1.360
10277TIP3    H130772   2.611   5.292   1.330
10277TIP3    H230773   2.752   5.312   1.279
10278TIP3   OH230774   1.147   5.621   1.707
10278TIP3    H130775   1.230   5.586   1.739
10278TIP3    H230776   1.171   5.699   1.657
10279TIP3   OH230777   0.319   0.108   2.726
10279TIP3    H130778   0.341   0.053   2.801
10279TIP3    H230779   0.226   0.091   2.710
10280TIP3   OH230780   5.038   5.565   1.518
10280TIP3    H130781   5.118   5.609   1.488
10280TIP3    H230782   5.069   5.490   1.569
10281TIP3   OH230783   0.251   1.484   5.981
10281TIP3    H130784   0.254   1.521   5.893
10281TIP3    H230785   0.311   1.409   5.978
10282TIP3   OH230786   7.203   7.244   1.200
10282TIP3    H130787   7.245   7.263   1.116
10282TIP3    H230788   7.271   7.259   1.265
10283TIP3   OH230789   1.570   3.540   1.913
10283TIP3    H130790   1.519   3.462   1.895
10283TIP3    H230791   1.650   3.529   1.862
10284TIP3   OH230792   1.702   0.389   2.752
10284TIP3    H130793   1.748   0.470   2.730
10284TIP3    H230794   1.683   0.397   2.845
10285TIP3   OH230795   1.267   6.922   3.689
10285TIP3    H130796   1.349   6.966   3.709
10285TIP3    H230797   1.252   6.941   3.596
10286TIP3   OH230798   7.503   3.860   6.824
10286TIP3    H130799   7.472   3.944   6.790
10286TIP3    H230800   7.430   3.800   6.810
10287TIP3   OH230801   7.882   6.014   6.059
10287TIP3    H130802   7.805   5.967   6.093
10287TIP3    H230803   7.934   5.946   6.016
10288TIP3   OH230804   4.487   3.308   5.951
10288TIP3    H130805   4.520   3.248   5.885
10288TIP3    H230806   4.422   3.257   6.000
10289TIP3   OH230807   7.052   2.770   2.814
10289TIP3    H130808   7.007   2.733   2.890
10289TIP3    H230809   7.068   2.695   2.757
10290TIP3   OH230810   5.025   3.466   2.448
10290TIP3    H130811   5.108   3.443   2.405
10290TIP3    H230812   5.014   3.400   2.516
10291TIP3   OH230813   4.022   5.295   6.136
10291TIP3    H130814   3.989   5.245   6.210
10291TIP3    H230815   3.944   5.324   6.089
10292TIP3   OH230816   6.460   7.414   3.538
10292TIP3    H130817   6.411   7.352   3.592
10292TIP3    H230818   6.393   7.467   3.495
10293TIP3   OH230819   4.830   3.004   3.812
10293TIP3    H130820   4.899   2.944   3.783
10293TIP3    H230821   4.858   3.034   3.898
10294TIP3   OH230822   2.382   3.939   3.142
10294TIP3    H130823   2.295   3.898   3.147
10294TIP3    H230824   2.443   3.868   3.162
10295TIP3   OH230825   7.788   4.568   1.012
10295TIP3    H130826   7.696   4.572   1.037
10295TIP3    H230827   7.835   4.600   1.089
10296TIP3   OH230828   3.850   2.887   5.756
10296TIP3    H130829   3.762   2.912   5.784
10296TIP3    H230830   3.884   2.965   5.713
10297TIP3   OH230831   4.326   3.252   4.099
10297TIP3    H130832   4.312   3.168   4.056
10297TIP3    H230833   4.286   3.242   4.185
10298TIP3   OH230834   3.227   7.842   1.902
10298TIP3    H130835   3.291   7.855   1.971
10298TIP3    H230836   3.267   7.881   1.824
10299TIP3   OH230837   1.974   7.488   3.860
10299TIP3    H130838   2.047   7.453   3.809
10299TIP3    H230839   2.009   7.568   3.899
10300TIP3   OH230840   1.040   7.644   2.533
10300TIP3    H130841   1.006   7.733   2.539
10300TIP3    H230842   1.104   7.637   2.603
10301TIP3   OH230843   5.524   7.284   2.953
10301TIP3    H130844   5.565   7.236   3.025
10301TIP3    H230845   5.597   7.325   2.907
10302TIP3   OH230846   5.552   1.687   2.657
10302TIP3    H130847   5.610   1.720   2.726
10302TIP3    H230848   5.611   1.656   2.589
10303TIP3   OH230849   1.083   0.230   2.413
10303TIP3    H130850   1.003   0.260   2.455
10303TIP3    H230851   1.139   0.200   2.484
10304TIP3   OH230852   3.181   3.739   4.150
10304TIP3    H130853   3.176   3.648   4.121
10304TIP3    H230854   3.259   3.774   4.108
10305TIP3   OH230855   0.522   4.426   1.145
10305TIP3    H130856   0.610   4.454   1.119
10305TIP3    H230857   0.536   4.363   1.215
10306TIP3   OH230858   1.779   5.248   1.994
10306TIP3    H130859   1.692   5.249   2.033
10306TIP3    H230860   1.829   5.186   2.047
10307TIP3   OH230861   1.401   6.971   4.047
10307TIP3    H130862   1.418   6.910   3.975
10307TIP3    H230863   1.402   7.058   4.005
10308TIP3   OH230864   1.535   3.543   4.400
10308TIP3    H130865   1.585   3.470   4.437
10308TIP3    H230866   1.445   3.527   4.427
10309TIP3   OH230867   7.588   6.187   0.687
10309TIP3    H130868   7.572   6.114   0.627
10309TIP3    H230869   7.510   6.190   0.742
10310TIP3   OH230870   0.479   3.939   2.384
10310TIP3    H130871   0.393   3.982   2.388
10310TIP3    H230872   0.523   3.979   2.309
10311TIP3   OH230873   7.732   6.313   6.203
10311TIP3    H130874   7.740   6.282   6.113
10311TIP3    H230875   7.654   6.269   6.237
10312TIP3   OH230876   5.591   5.818   1.353
10312TIP3    H130877   5.602   5.851   1.264
10312TIP3    H230878   5.496   5.810   1.364
10313TIP3   OH230879   2.740   7.168   3.192
10313TIP3    H130880   2.826   7.187   3.231
10313TIP3    H230881   2.728   7.074   3.206
10314TIP3   OH230882   4.843   2.436   5.437
10314TIP3    H130883   4.896   2.447   5.516
10314TIP3    H230884   4.793   2.356   5.453
10315TIP3   OH230885   0.576   0.086   2.883
10315TIP3    H130886   0.537   0.113   2.800
10315TIP3    H230887   0.521   0.129   2.949
10316TIP3   OH230888   1.451   2.206   6.337
10316TIP3    H130889   1.453   2.248   6.251
10316TIP3    H230890   1.439   2.279   6.398
10317TIP3   OH230891   4.831   4.661   5.160
10317TIP3    H130892   4.841   4.634   5.251
10317TIP3    H230893   4.737   4.660   5.144
10318TIP3   OH230894   7.198   2.038   1.231
10318TIP3    H130895   7.185   1.945   1.213
10318TIP3    H230896   7.190   2.045   1.326
10319TIP3   OH230897   6.678   5.547   4.297
10319TIP3    H130898   6.748   5.613   4.292
10319TIP3    H230899   6.654   5.531   4.206
10320TIP3   OH230900   2.237   1.519   5.706
10320TIP3    H130901   2.322   1.560   5.687
10320TIP3    H230902   2.254   1.465   5.783
10321TIP3   OH230903   4.701   4.144   6.811
10321TIP3    H130904   4.747   4.122   6.730
10321TIP3    H230905   4.611   4.116   6.795
10322TIP3   OH230906   6.509   5.676   5.493
10322TIP3    H130907   6.443   5.717   5.437
10322TIP3    H230908   6.588   5.727   5.479
10323TIP3   OH230909   5.714   2.740   5.700
10323TIP3    H130910   5.803   2.768   5.679
10323TIP3    H230911   5.671   2.819   5.732
10324TIP3   OH230912   3.263   5.218   4.993
10324TIP3    H130913   3.348   5.177   4.979
10324TIP3    H230914   3.280   5.291   5.051
10325TIP3   OH230915   1.852   2.023   5.394
10325TIP3    H130916   1.945   2.042   5.409
10325TIP3    H230917   1.848   1.993   5.304
10326TIP3   OH230918   4.734   7.924   5.379
10326TIP3    H130919   4.823   7.900   5.354
10326TIP3    H230920   4.682   7.905   5.301
10327TIP3   OH230921   1.021   6.897   2.967
10327TIP3    H130922   0.941   6.947   2.982
10327TIP3    H230923   0.996   6.828   2.907
10328TIP3   OH230924   0.519   6.606   0.669
10328TIP3    H130925   0.540   6.564   0.752
10328TIP3    H230926   0.467   6.683   0.694
10329TIP3   OH230927   5.570   3.100   1.358
10329TIP3    H130928   5.507   3.170   1.339
10329TIP3    H230929   5.517   3.031   1.399
10330TIP3   OH230930   7.279   2.360   3.410
10330TIP3    H130931   7.192   2.399   3.420
10330TIP3    H230932   7.339   2.425   3.446
10331TIP3   OH230933   5.628   4.569   6.748
10331TIP3    H130934   5.607   4.502   6.813
10331TIP3    H230935   5.619   4.524   6.663
10332TIP3   OH230936   4.203   7.877   0.719
10332TIP3    H130937   4.239   7.965   0.733
10332TIP3    H230938   4.223   7.858   0.628
10333TIP3   OH230939   2.104   4.585   1.947
10333TIP3    H130940   2.115   4.514   2.009
10333TIP3    H230941   2.189   4.594   1.905
10334TIP3   OH230942   7.949   3.339   3.439
10334TIP3    H130943   8.028   3.319   3.388
10334TIP3    H230944   7.979   3.343   3.530
10335TIP3   OH230945   6.485   3.024   6.072
10335TIP3    H130946   6.398   3.045   6.108
10335TIP3    H230947   6.492   3.079   5.994
10336TIP3   OH230948   5.735   6.471   5.300
10336TIP3    H130949   5.803   6.429   5.353
10336TIP3    H230950   5.655   6.463   5.353
10337TIP3   OH230951   3.770   6.151   3.779
10337TIP3    H130952   3.768   6.213   3.705
10337TIP3    H230953   3.779   6.207   3.856
10338TIP3   OH230954   1.184   5.915   2.899
10338TIP3    H130955   1.246   5.972   2.853
10338TIP3    H230956   1.111   5.905   2.837
10339TIP3   OH230957   7.223   4.369   4.225
10339TIP3    H130958   7.297   4.426   4.203
10339TIP3    H230959   7.241   4.339   4.314
10340TIP3   OH230960   1.324   4.334   3.133
10340TIP3    H130961   1.365   4.409   3.176
10340TIP3    H230962   1.372   4.258   3.167
10341TIP3   OH230963   5.977   7.154   5.403
10341TIP3    H130964   5.937   7.140   5.489
10341TIP3    H230965   5.944   7.240   5.376
10342TIP3   OH230966   4.625   3.514   4.632
10342TIP3    H130967   4.577   3.585   4.589
10342TIP3    H230968   4.628   3.539   4.724
10343TIP3   OH230969   4.071   5.197   2.533
10343TIP3    H130970   4.031   5.145   2.463
10343TIP3    H230971   4.108   5.132   2.593
10344TIP3   OH230972   1.559   5.266   2.146
10344TIP3    H130973   1.555   5.224   2.232
10344TIP3    H230974   1.505   5.344   2.155
10345TIP3   OH230975   7.027   1.608   3.811
10345TIP3    H130976   7.078   1.536   3.773
10345TIP3    H230977   7.078   1.686   3.792
10346TIP3   OH230978   5.540   7.537   3.670
10346TIP3    H130979   5.458   7.586   3.667
10346TIP3    H230980   5.596   7.581   3.607
10347TIP3   OH230981   7.358   3.840   1.405
10347TIP3    H130982   7.285   3.882   1.452
10347TIP3    H230983   7.409   3.913   1.370
10348TIP3   OH230984   1.251   1.233   2.375
10348TIP3    H130985   1.240   1.313   2.324
10348TIP3    H230986   1.254   1.261   2.466
10349TIP3   OH230987   6.883   3.434   0.979
10349TIP3    H130988   6.873   3.525   1.006
10349TIP3    H230989   6.796   3.407   0.948
10350TIP3   OH230990   0.807   6.874   4.948
10350TIP3    H130991   0.728   6.893   4.898
10350TIP3    H230992   0.872   6.936   4.913
10351TIP3   OH230993   1.597   5.766   2.219
10351TIP3    H130994   1.521   5.778   2.161
10351TIP3    H230995   1.602   5.672   2.232
10352TIP3   OH230996   7.079   7.684   6.211
10352TIP3    H130997   7.039   7.712   6.293
10352TIP3    H230998   7.051   7.749   6.147
10353TIP3   OH230999   6.377   0.593   4.408
10353TIP3    H131000   6.421   0.648   4.344
10353TIP3    H231001   6.343   0.520   4.357
10354TIP3   OH231002   0.692   3.806   4.098
10354TIP3    H131003   0.777   3.792   4.057
10354TIP3    H231004   0.709   3.862   4.173
10355TIP3   OH231005   3.435   0.926   1.787
10355TIP3    H131006   3.354   0.903   1.833
10355TIP3    H231007   3.408   0.943   1.697
10356TIP3   OH231008   0.664   3.189   0.921
10356TIP3    H131009   0.716   3.225   0.992
10356TIP3    H231010   0.593   3.141   0.964
10357TIP3   OH231011   1.576   5.696   1.140
10357TIP3    H131012   1.500   5.674   1.194
10357TIP3    H231013   1.556   5.658   1.054
10358TIP3   OH231014   7.025   3.928   1.239
10358TIP3    H131015   7.024   3.982   1.160
10358TIP3    H231016   6.933   3.907   1.256
10359TIP3   OH231017   3.888   4.558   6.731
10359TIP3    H131018   3.833   4.555   6.809
10359TIP3    H231019   3.890   4.468   6.700
10360TIP3   OH231020   1.664   7.457   5.148
10360TIP3    H131021   1.688   7.498   5.231
10360TIP3    H231022   1.579   7.416   5.165
10361TIP3   OH231023   6.617   5.805   1.606
10361TIP3    H131024   6.683   5.758   1.658
10361TIP3    H231025   6.568   5.735   1.561
10362TIP3   OH231026   6.507   5.634   5.185
10362TIP3    H131027   6.504   5.543   5.216
10362TIP3    H231028   6.431   5.676   5.227
10363TIP3   OH231029   1.827   6.902   4.883
10363TIP3    H131030   1.878   6.968   4.930
10363TIP3    H231031   1.758   6.951   4.839
10364TIP3   OH231032   3.115   4.418   1.160
10364TIP3    H131033   3.140   4.382   1.075
10364TIP3    H231034   3.175   4.377   1.222
10365TIP3   OH231035   6.412   2.079   2.060
10365TIP3    H131036   6.473   2.153   2.049
10365TIP3    H231037   6.344   2.094   1.994
10366TIP3   OH231038   8.135   3.184   1.065
10366TIP3    H131039   8.157   3.226   1.149
10366TIP3    H231040   8.062   3.125   1.087
10367TIP3   OH231041   5.453   4.902   5.528
10367TIP3    H131042   5.413   4.983   5.561
10367TIP3    H231043   5.391   4.871   5.462
10368TIP3   OH231044   6.449   0.862   1.147
10368TIP3    H131045   6.379   0.818   1.195
10368TIP3    H231046   6.405   0.936   1.104
10369TIP3   OH231047   7.329   6.041   0.732
10369TIP3    H131048   7.250   5.999   0.698
10369TIP3    H231049   7.309   6.061   0.823
10370TIP3   OH231050   1.255   6.481   5.473
10370TIP3    H131051   1.255   6.528   5.389
10370TIP3    H231052   1.343   6.443   5.479
10371TIP3   OH231053   8.113   6.636   3.844
10371TIP3    H131054   8.094   6.542   3.841
10371TIP3    H231055   8.208   6.642   3.838
10372TIP3   OH231056   3.629   2.099   1.281
10372TIP3    H131057   3.703   2.039   1.266
10372TIP3    H231058   3.597   2.075   1.368
10373TIP3   OH231059   3.296   7.694   0.057
10373TIP3    H131060   3.335   7.662  -0.024
10373TIP3    H231061   3.313   7.625   0.121
10374TIP3   OH231062   1.658   3.488   2.989
10374TIP3    H131063   1.702   3.564   2.950
10374TIP3    H231064   1.677   3.494   3.082
10375TIP3   OH231065   0.951   2.187   2.716
10375TIP3    H131066   0.967   2.100   2.680
10375TIP3    H231067   0.863   2.182   2.753
10376TIP3   OH231068   4.667   2.315   4.333
10376TIP3    H131069   4.756   2.280   4.324
10376TIP3    H231070   4.651   2.317   4.427
10377TIP3   OH231071   3.033   0.430   0.604
10377TIP3    H131072   3.074   0.415   0.519
10377TIP3    H231073   3.092   0.491   0.649
10378TIP3   OH231074   7.441   7.151   0.010
10378TIP3    H131075   7.412   7.088   0.076
10378TIP3    H231076   7.535   7.137   0.004
10379TIP3   OH231077   1.920   6.011   4.092
10379TIP3    H131078   1.915   6.101   4.123
10379TIP3    H231079   1.840   6.000   4.039
10380TIP3   OH231080   7.153   7.338   4.352
10380TIP3    H131081   7.234   7.299   4.321
10380TIP3    H231082   7.091   7.327   4.280
10381TIP3   OH231083   4.353   0.055   6.502
10381TIP3    H131084   4.434   0.060   6.553
10381TIP3    H231085   4.378   0.013   6.420
10382TIP3   OH231086   0.165   1.865   6.310
10382TIP3    H131087   0.199   1.812   6.238
10382TIP3    H231088   0.083   1.821   6.334
10383TIP3   OH231089   6.902   7.155   2.050
10383TIP3    H131090   6.995   7.164   2.074
10383TIP3    H231091   6.893   7.065   2.021
10384TIP3   OH231092   2.920   5.229   1.806
10384TIP3    H131093   2.992   5.283   1.775
10384TIP3    H231094   2.887   5.186   1.727
10385TIP3   OH231095   3.452   1.439   0.453
10385TIP3    H131096   3.378   1.414   0.507
10385TIP3    H231097   3.418   1.507   0.395
10386TIP3   OH231098   0.841   0.614   1.008
10386TIP3    H131099   0.860   0.531   1.052
10386TIP3    H231100   0.910   0.624   0.943
10387TIP3   OH231101   0.112   2.171   0.667
10387TIP3    H131102   0.121   2.122   0.749
10387TIP3    H231103   0.031   2.219   0.676
10388TIP3   OH231104   6.605   3.682   3.676
10388TIP3    H131105   6.626   3.650   3.588
10388TIP3    H231106   6.690   3.702   3.715
10389TIP3   OH231107   0.358   6.481   3.845
10389TIP3    H131108   0.310   6.508   3.767
10389TIP3    H231109   0.363   6.386   3.839
10390TIP3   OH231110   6.100   1.976   0.166
10390TIP3    H131111   6.032   2.032   0.131
10390TIP3    H231112   6.178   2.031   0.168
10391TIP3   OH231113   4.019   3.776   5.879
10391TIP3    H131114   4.092   3.758   5.820
10391TIP3    H231115   4.001   3.869   5.867
10392TIP3   OH231116   8.184   5.932   0.235
10392TIP3    H131117   8.097   5.945   0.273
10392TIP3    H231118   8.227   5.872   0.294
10393TIP3   OH231119   0.172   3.021   3.009
10393TIP3    H131120   0.268   3.015   3.010
10393TIP3    H231121   0.144   2.948   2.953
10394TIP3   OH231122   0.795   1.887   0.922
10394TIP3    H131123   0.708   1.862   0.953
10394TIP3    H231124   0.832   1.807   0.885
10395TIP3   OH231125   8.192   6.048   2.428
10395TIP3    H131126   8.104   6.079   2.407
10395TIP3    H231127   8.179   5.957   2.453
10396TIP3   OH231128   0.945   1.468   4.295
10396TIP3    H131129   0.948   1.535   4.227
10396TIP3    H231130   0.878   1.406   4.266
10397TIP3   OH231131   6.995   7.304   4.117
10397TIP3    H131132   6.943   7.379   4.144
10397TIP3    H231133   6.935   7.230   4.119
10398TIP3   OH231134   7.587   3.877   3.071
10398TIP3    H131135   7.555   3.912   3.154
10398TIP3    H231136   7.509   3.845   3.026
10399TIP3   OH231137   7.297   0.979   5.025
10399TIP3    H131138   7.392   0.984   5.036
10399TIP3    H231139   7.281   0.890   4.993
10400TIP3   OH231140   7.017   3.927   2.617
10400TIP3    H131141   7.057   3.857   2.670
10400TIP3    H231142   7.030   3.899   2.527
10401TIP3   OH231143   5.477   2.136   1.383
10401TIP3    H131144   5.556   2.126   1.435
10401TIP3    H231145   5.405   2.129   1.445
10402TIP3   OH231146   7.898   0.134   0.744
10402TIP3    H131147   7.903   0.228   0.725
10402TIP3    H231148   7.804   0.115   0.744
10403TIP3   OH231149   8.118   2.277   2.406
10403TIP3    H131150   8.191   2.305   2.351
10403TIP3    H231151   8.044   2.270   2.345
10404TIP3   OH231152   2.451   4.954   6.197
10404TIP3    H131153   2.432   4.922   6.109
10404TIP3    H231154   2.546   4.948   6.205
10405TIP3   OH231155   0.327   6.872   0.640
10405TIP3    H131156   0.242   6.894   0.601
10405TIP3    H231157   0.384   6.944   0.614
10406TIP3   OH231158   1.121   7.670   1.944
10406TIP3    H131159   1.170   7.738   1.897
10406TIP3    H231160   1.156   7.587   1.910
10407TIP3   OH231161   2.279   0.913   1.957
10407TIP3    H131162   2.253   0.996   1.917
10407TIP3    H231163   2.310   0.937   2.044
10408TIP3   OH231164   6.046   2.773   3.575
10408TIP3    H131165   6.028   2.866   3.562
10408TIP3    H231166   6.142   2.767   3.576
10409TIP3   OH231167   6.332   4.430   0.077
10409TIP3    H131168   6.424   4.429   0.101
10409TIP3    H231169   6.310   4.523   0.070
10410TIP3   OH231170   6.222   5.727   1.090
10410TIP3    H131171   6.188   5.681   1.013
10410TIP3    H231172   6.287   5.788   1.054
10411TIP3   OH231173   0.119   0.773   6.248
10411TIP3    H131174   0.099   0.865   6.230
10411TIP3    H231175   0.211   0.773   6.273
10412TIP3   OH231176   5.556   6.337   6.186
10412TIP3    H131177   5.592   6.425   6.181
10412TIP3    H231178   5.627   6.280   6.157
10413TIP3   OH231179   0.084   1.472   1.199
10413TIP3    H131180   0.016   1.461   1.265
10413TIP3    H231181   0.164   1.489   1.248
10414TIP3   OH231182   4.391   3.225   1.514
10414TIP3    H131183   4.430   3.138   1.525
10414TIP3    H231184   4.324   3.212   1.447
10415TIP3   OH231185   7.238   1.305   6.817
10415TIP3    H131186   7.261   1.350   6.736
10415TIP3    H231187   7.318   1.259   6.843
10416TIP3   OH231188   1.257   4.198   1.037
10416TIP3    H131189   1.240   4.232   1.125
10416TIP3    H231190   1.285   4.275   0.987
10417TIP3   OH231191   7.479   6.946   0.960
10417TIP3    H131192   7.424   6.935   1.038
10417TIP3    H231193   7.526   6.863   0.952
10418TIP3   OH231194   3.953   1.411   0.163
10418TIP3    H131195   4.020   1.367   0.216
10418TIP3    H231196   3.896   1.341   0.133
10419TIP3   OH231197   6.939   5.855   1.715
10419TIP3    H131198   6.908   5.765   1.707
10419TIP3    H231199   6.993   5.855   1.794
10420TIP3   OH231200   1.291   0.150   4.461
10420TIP3    H131201   1.266   0.104   4.541
10420TIP3    H231202   1.219   0.131   4.400
10421TIP3   OH231203   0.190   4.236   1.828
10421TIP3    H131204   0.210   4.193   1.910
10421TIP3    H231205   0.110   4.286   1.846
10422TIP3   OH231206   3.426   7.610   4.508
10422TIP3    H131207   3.472   7.633   4.428
10422TIP3    H231208   3.363   7.681   4.521
10423TIP3   OH231209   8.196   0.790   6.522
10423TIP3    H131210   8.201   0.756   6.433
10423TIP3    H231211   8.280   0.767   6.561
10424TIP3   OH231212   7.919   6.845   2.083
10424TIP3    H131213   7.986   6.821   2.020
10424TIP3    H231214   7.932   6.785   2.157
10425TIP3   OH231215   2.391   2.768   3.769
10425TIP3    H131216   2.400   2.841   3.709
10425TIP3    H231217   2.456   2.704   3.740
10426TIP3   OH231218   5.354   6.054   3.799
10426TIP3    H131219   5.421   6.074   3.733
10426TIP3    H231220   5.331   6.140   3.835
10427TIP3   OH231221   6.055   4.607   6.558
10427TIP3    H131222   6.121   4.565   6.503
10427TIP3    H231223   5.972   4.588   6.514
10428TIP3   OH231224   7.643   1.705   1.997
10428TIP3    H131225   7.629   1.697   1.902
10428TIP3    H231226   7.734   1.676   2.010
10429TIP3   OH231227   5.426   0.954   5.831
10429TIP3    H131228   5.410   0.861   5.818
10429TIP3    H231229   5.353   0.998   5.788
10430TIP3   OH231230   7.894   3.855   6.271
10430TIP3    H131231   7.893   3.927   6.209
10430TIP3    H231232   7.842   3.887   6.345
10431TIP3   OH231233   4.911   0.060   4.764
10431TIP3    H131234   4.894   0.079   4.671
10431TIP3    H231235   4.963   0.135   4.794
10432TIP3   OH231236   1.706   6.088   6.096
10432TIP3    H131237   1.698   6.161   6.035
10432TIP3    H231238   1.654   6.114   6.172
10433TIP3   OH231239   3.416   3.455   6.544
10433TIP3    H131240   3.477   3.459   6.617
10433TIP3    H231241   3.370   3.372   6.555
10434TIP3   OH231242   4.221   0.236   3.500
10434TIP3    H131243   4.228   0.222   3.405
10434TIP3    H231244   4.248   0.153   3.538
10435TIP3   OH231245   1.722   1.500   4.262
10435TIP3    H131246   1.650   1.463   4.210
10435TIP3    H231247   1.747   1.580   4.214
10436TIP3   OH231248   7.669   1.270   6.040
10436TIP3    H131249   7.606   1.223   6.096
10436TIP3    H231250   7.617   1.340   6.000
10437TIP3   OH231251   8.380   6.103   2.219
10437TIP3    H131252   8.359   6.193   2.194
10437TIP3    H231253   8.331   6.087   2.299
10438TIP3   OH231254   2.982   4.344   5.625
10438TIP3    H131255   2.943   4.344   5.538
10438TIP3    H231256   3.008   4.435   5.639
10439TIP3   OH231257   7.374   6.302   0.466
10439TIP3    H131258   7.307   6.352   0.512
10439TIP3    H231259   7.332   6.218   0.448
10440TIP3   OH231260   5.606   1.645   5.321
10440TIP3    H131261   5.619   1.739   5.336
10440TIP3    H231262   5.693   1.612   5.300
10441TIP3   OH231263   5.017   7.254   3.007
10441TIP3    H131264   5.073   7.248   2.930
10441TIP3    H231265   4.931   7.279   2.973
10442TIP3   OH231266   7.907   0.027   3.801
10442TIP3    H131267   7.994  -0.008   3.821
10442TIP3    H231268   7.871  -0.034   3.737
10443TIP3   OH231269   2.373   3.906   5.676
10443TIP3    H131270   2.441   3.973   5.686
10443TIP3    H231271   2.390   3.868   5.590
10444TIP3   OH231272  -0.029   2.049   5.986
10444TIP3    H131273  -0.025   2.035   5.892
10444TIP3    H231274   0.000   2.139   5.999
10445TIP3   OH231275   4.369   0.254   0.809
10445TIP3    H131276   4.460   0.234   0.787
10445TIP3    H231277   4.355   0.210   0.894
10446TIP3   OH231278   2.915   0.617   3.530
10446TIP3    H131279   2.948   0.649   3.446
10446TIP3    H231280   2.826   0.587   3.511
10447TIP3   OH231281   1.217   2.686   6.442
10447TIP3    H131282   1.202   2.596   6.412
10447TIP3    H231283   1.173   2.740   6.376
10448TIP3   OH231284   1.608   4.589   5.126
10448TIP3    H131285   1.656   4.531   5.066
10448TIP3    H231286   1.640   4.677   5.105
10449TIP3   OH231287   2.225   3.285   2.729
10449TIP3    H131288   2.158   3.220   2.752
10449TIP3    H231289   2.201   3.362   2.780
10450TIP3   OH231290   0.513   0.130   6.758
10450TIP3    H131291   0.519   0.080   6.677
10450TIP3    H231292   0.597   0.118   6.800
10451TIP3   OH231293   4.139   2.793   3.177
10451TIP3    H131294   4.234   2.783   3.182
10451TIP3    H231295   4.105   2.705   3.195
10452TIP3   OH231296   2.173   7.509   3.503
10452TIP3    H131297   2.190   7.478   3.592
10452TIP3    H231298   2.131   7.436   3.459
10453TIP3   OH231299   0.236   0.088   4.476
10453TIP3    H131300   0.213   0.091   4.569
10453TIP3    H231301   0.188   0.161   4.437
10454TIP3   OH231302   0.252   2.909   3.887
10454TIP3    H131303   0.241   3.001   3.908
10454TIP3    H231304   0.335   2.885   3.927
10455TIP3   OH231305   4.513   4.301   1.942
10455TIP3    H131306   4.582   4.310   2.008
10455TIP3    H231307   4.492   4.207   1.942
10456TIP3   OH231308   0.844   5.188   5.526
10456TIP3    H131309   0.918   5.194   5.585
10456TIP3    H231310   0.866   5.248   5.454
10457TIP3   OH231311   2.065   6.170   2.637
10457TIP3    H131312   2.095   6.246   2.688
10457TIP3    H231313   2.121   6.098   2.666
10458TIP3   OH231314   2.691   0.580   4.321
10458TIP3    H131315   2.679   0.568   4.227
10458TIP3    H231316   2.666   0.495   4.359
10459TIP3   OH231317   5.666   3.635   3.018
10459TIP3    H131318   5.578   3.597   3.017
10459TIP3    H231319   5.677   3.671   2.930
10460TIP3   OH231320   0.969   6.601   0.305
10460TIP3    H131321   0.890   6.574   0.352
10460TIP3    H231322   0.974   6.695   0.319
10461TIP3   OH231323   7.627   3.949   1.497
10461TIP3    H131324   7.663   3.877   1.444
10461TIP3    H231325   7.627   4.024   1.438
10462TIP3   OH231326   1.731   6.675   4.078
10462TIP3    H131327   1.723   6.728   4.157
10462TIP3    H231328   1.777   6.732   4.015
10463TIP3   OH231329   5.670   0.266   2.652
10463TIP3    H131330   5.693   0.177   2.676
10463TIP3    H231331   5.623   0.300   2.728
10464TIP3   OH231332   6.896   4.200   1.728
10464TIP3    H131333   6.908   4.106   1.711
10464TIP3    H231334   6.832   4.203   1.799
10465TIP3   OH231335   5.649   2.087   0.549
10465TIP3    H131336   5.565   2.042   0.552
10465TIP3    H231337   5.708   2.033   0.602
10466TIP3   OH231338   3.292   5.385   6.750
10466TIP3    H131339   3.274   5.326   6.823
10466TIP3    H231340   3.232   5.357   6.681
10467TIP3   OH231341   7.785   0.400   4.009
10467TIP3    H131342   7.793   0.316   4.054
10467TIP3    H231343   7.816   0.383   3.921
10468TIP3   OH231344   6.827   6.823   0.562
10468TIP3    H131345   6.866   6.908   0.584
10468TIP3    H231346   6.890   6.759   0.595
10469TIP3   OH231347   0.139   5.330   0.212
10469TIP3    H131348   0.228   5.356   0.235
10469TIP3    H231349   0.083   5.376   0.275
10470TIP3   OH231350   7.267   7.464   6.681
10470TIP3    H131351   7.330   7.417   6.736
10470TIP3    H231352   7.222   7.396   6.632
10471TIP3   OH231353   3.674   7.243   4.861
10471TIP3    H131354   3.621   7.307   4.814
10471TIP3    H231355   3.739   7.214   4.797
10472TIP3   OH231356   7.552   3.925   2.006
10472TIP3    H131357   7.462   3.931   1.972
10472TIP3    H231358   7.607   3.925   1.927
10473TIP3   OH231359   8.366   5.026   4.647
10473TIP3    H131360   8.323   5.090   4.703
10473TIP3    H231361   8.435   5.075   4.603
10474TIP3   OH231362   2.789   2.356   5.959
10474TIP3    H131363   2.746   2.424   5.908
10474TIP3    H231364   2.828   2.298   5.894
10475TIP3   OH231365   6.590   6.038   1.478
10475TIP3    H131366   6.606   5.952   1.519
10475TIP3    H231367   6.530   6.019   1.407
10476TIP3   OH231368   2.016   5.206   0.763
10476TIP3    H131369   1.980   5.176   0.679
10476TIP3    H231370   2.095   5.254   0.738
10477TIP3   OH231371   7.793   2.646   2.296
10477TIP3    H131372   7.873   2.615   2.254
10477TIP3    H231373   7.751   2.701   2.231
10478TIP3   OH231374   7.033   3.096   2.633
10478TIP3    H131375   7.121   3.061   2.649
10478TIP3    H231376   7.042   3.147   2.552
10479TIP3   OH231377   2.870   5.605   2.084
10479TIP3    H131378   2.837   5.515   2.092
10479TIP3    H231379   2.850   5.645   2.169
10480TIP3   OH231380   2.200   6.033   5.903
10480TIP3    H131381   2.150   5.963   5.947
10480TIP3    H231382   2.220   6.095   5.973
10481TIP3   OH231383   0.283   1.879   6.642
10481TIP3    H131384   0.325   1.847   6.722
10481TIP3    H231385   0.255   1.968   6.663
10482TIP3   OH231386   5.328   4.369   6.374
10482TIP3    H131387   5.242   4.393   6.409
10482TIP3    H231388   5.313   4.287   6.328
10483TIP3   OH231389   2.388   0.725   6.707
10483TIP3    H131390   2.460   0.734   6.769
10483TIP3    H231391   2.423   0.760   6.625
10484TIP3   OH231392   8.071   5.231   2.973
10484TIP3    H131393   8.101   5.310   2.928
10484TIP3    H231394   8.152   5.187   2.999
10485TIP3   OH231395   7.165   5.895   5.881
10485TIP3    H131396   7.075   5.871   5.859
10485TIP3    H231397   7.158   5.937   5.967
10486TIP3   OH231398   6.700   7.332   4.033
10486TIP3    H131399   6.733   7.415   4.065
10486TIP3    H231400   6.693   7.344   3.938
10487TIP3   OH231401   3.658   6.235   1.405
10487TIP3    H131402   3.611   6.318   1.414
10487TIP3    H231403   3.740   6.259   1.361
10488TIP3   OH231404   3.252   5.241   1.713
10488TIP3    H131405   3.274   5.278   1.627
10488TIP3    H231406   3.272   5.147   1.703
10489TIP3   OH231407   3.817   6.249   5.783
10489TIP3    H131408   3.744   6.250   5.844
10489TIP3    H231409   3.886   6.299   5.827
10490TIP3   OH231410   6.613   3.935   0.693
10490TIP3    H131411   6.652   3.860   0.649
10490TIP3    H231412   6.533   3.953   0.643
10491TIP3   OH231413   5.139   7.690   1.437
10491TIP3    H131414   5.073   7.756   1.413
10491TIP3    H231415   5.105   7.651   1.518
10492TIP3   OH231416   4.225   7.857   5.468
10492TIP3    H131417   4.310   7.898   5.485
10492TIP3    H231418   4.202   7.814   5.551
10493TIP3   OH231419   6.851   3.390   4.833
10493TIP3    H131420   6.763   3.384   4.869
10493TIP3    H231421   6.886   3.301   4.841
10494TIP3   OH231422   1.390   3.147   6.304
10494TIP3    H131423   1.434   3.067   6.333
10494TIP3    H231424   1.435   3.218   6.351
10495TIP3   OH231425   2.995   3.896   4.454
10495TIP3    H131426   2.967   3.898   4.363
10495TIP3    H231427   2.977   3.807   4.483
10496TIP3   OH231428   5.516   4.573   2.798
10496TIP3    H131429   5.581   4.513   2.834
10496TIP3    H231430   5.452   4.584   2.869
10497TIP3   OH231431   1.645   0.677   6.715
10497TIP3    H131432   1.740   0.684   6.719
10497TIP3    H231433   1.626   0.593   6.757
10498TIP3   OH231434   4.519   2.700   6.001
10498TIP3    H131435   4.574   2.670   5.928
10498TIP3    H231436   4.537   2.794   6.007
10499TIP3   OH231437   7.273   3.750   0.311
10499TIP3    H131438   7.357   3.753   0.267
10499TIP3    H231439   7.228   3.831   0.284
10500TIP3   OH231440   5.044   4.863   6.501
10500TIP3    H131441   5.031   4.877   6.595
10500TIP3    H231442   5.121   4.915   6.479
10501TIP3   OH231443   0.744   2.374   0.809
10501TIP3    H131444   0.728   2.308   0.742
10501TIP3    H231445   0.728   2.330   0.892
10502TIP3   OH231446   1.786   6.015   2.836
10502TIP3    H131447   1.745   5.942   2.789
10502TIP3    H231448   1.796   5.982   2.926
10503TIP3   OH231449   3.211   4.943   1.720
10503TIP3    H131450   3.248   4.855   1.722
10503TIP3    H231451   3.160   4.950   1.800
10504TIP3   OH231452   4.429   3.299   4.611
10504TIP3    H131453   4.500   3.359   4.633
10504TIP3    H231454   4.394   3.332   4.528
10505TIP3   OH231455   0.907   7.319   3.019
10505TIP3    H131456   0.979   7.382   3.019
10505TIP3    H231457   0.828   7.373   3.031
10506TIP3   OH231458   0.008   2.622   4.259
10506TIP3    H131459   0.012   2.584   4.171
10506TIP3    H231460   0.054   2.560   4.315
10507TIP3   OH231461   4.994   0.996   4.116
10507TIP3    H131462   4.906   0.987   4.152
10507TIP3    H231463   4.984   0.979   4.022
10508TIP3   OH231464   1.727   3.538   5.181
10508TIP3    H131465   1.725   3.445   5.201
10508TIP3    H231466   1.819   3.564   5.192
10509TIP3   OH231467   8.186   5.539   4.325
10509TIP3    H131468   8.098   5.560   4.356
10509TIP3    H231469   8.220   5.622   4.291
10510TIP3   OH231470   5.008   3.505   3.181
10510TIP3    H131471   5.090   3.485   3.228
10510TIP3    H231472   4.992   3.597   3.198
10511TIP3   OH231473   3.083   5.226   6.126
10511TIP3    H131474   3.013   5.168   6.155
10511TIP3    H231475   3.163   5.185   6.159
10512TIP3   OH231476   6.519   4.679   1.270
10512TIP3    H131477   6.591   4.619   1.285
10512TIP3    H231478   6.558   4.767   1.275
10513TIP3   OH231479   1.644   5.332   4.778
10513TIP3    H131480   1.724   5.316   4.827
10513TIP3    H231481   1.573   5.313   4.840
10514TIP3   OH231482   1.623   0.709   6.064
10514TIP3    H131483   1.712   0.730   6.093
10514TIP3    H231484   1.636   0.661   5.982
10515TIP3   OH231485   8.315   7.567   2.939
10515TIP3    H131486   8.370   7.556   2.861
10515TIP3    H231487   8.331   7.488   2.991
10516TIP3   OH231488   8.154   5.697   6.797
10516TIP3    H131489   8.149   5.793   6.794
10516TIP3    H231490   8.212   5.673   6.725
10517TIP3   OH231491   3.434   6.567   3.113
10517TIP3    H131492   3.502   6.548   3.178
10517TIP3    H231493   3.374   6.493   3.119
10518TIP3   OH231494   3.352   0.052   5.079
10518TIP3    H131495   3.292   0.030   5.150
10518TIP3    H231496   3.386   0.138   5.103
10519TIP3   OH231497   6.358   7.704   0.561
10519TIP3    H131498   6.360   7.779   0.502
10519TIP3    H231499   6.389   7.631   0.508
10520TIP3   OH231500   4.290   1.840   6.739
10520TIP3    H131501   4.373   1.834   6.787
10520TIP3    H231502   4.285   1.932   6.712
10521TIP3   OH231503   1.190   5.274   5.067
10521TIP3    H131504   1.116   5.269   5.007
10521TIP3    H231505   1.178   5.357   5.113
10522TIP3   OH231506   2.284   6.582   0.733
10522TIP3    H131507   2.270   6.609   0.642
10522TIP3    H231508   2.243   6.496   0.739
10523TIP3   OH231509   7.289   4.089   6.032
10523TIP3    H131510   7.274   3.996   6.046
10523TIP3    H231511   7.303   4.098   5.938
10524TIP3   OH231512   3.369   7.181   4.961
10524TIP3    H131513   3.442   7.207   4.905
10524TIP3    H231514   3.369   7.245   5.032
10525TIP3   OH231515   4.255   6.694   0.936
10525TIP3    H131516   4.343   6.704   0.901
10525TIP3    H231517   4.241   6.599   0.940
10526TIP3   OH231518   0.135   3.098   6.799
10526TIP3    H131519   0.144   3.177   6.747
10526TIP3    H231520   0.073   3.044   6.751
10527TIP3   OH231521   5.039   0.733   3.121
10527TIP3    H131522   4.963   0.695   3.166
10527TIP3    H231523   5.112   0.674   3.143
10528TIP3   OH231524   3.720   3.987   5.472
10528TIP3    H131525   3.626   3.972   5.481
10528TIP3    H231526   3.728   4.080   5.453
10529TIP3   OH231527   5.580   2.047   3.742
10529TIP3    H131528   5.582   2.031   3.647
10529TIP3    H231529   5.671   2.068   3.764
10530TIP3   OH231530   7.136   7.438   6.287
10530TIP3    H131531   7.151   7.457   6.379
10530TIP3    H231532   7.132   7.524   6.245
10531TIP3   OH231533   5.015   2.251   0.265
10531TIP3    H131534   5.011   2.345   0.283
10531TIP3    H231535   4.964   2.240   0.185
10532TIP3   OH231536   0.631   2.645   4.646
10532TIP3    H131537   0.684   2.698   4.587
10532TIP3    H231538   0.690   2.621   4.717
10533TIP3   OH231539   0.129   3.129   3.294
10533TIP3    H131540   0.054   3.080   3.262
10533TIP3    H231541   0.197   3.063   3.308
10534TIP3   OH231542   6.979   2.152   4.345
10534TIP3    H131543   7.047   2.164   4.279
10534TIP3    H231544   6.974   2.058   4.357
10535TIP3   OH231545   4.216   1.522   2.821
10535TIP3    H131546   4.147   1.494   2.761
10535TIP3    H231547   4.278   1.450   2.823
10536TIP3   OH231548   0.908   3.617   0.968
10536TIP3    H131549   0.824   3.663   0.967
10536TIP3    H231550   0.967   3.672   0.917
10537TIP3   OH231551   1.981   4.579   4.692
10537TIP3    H131552   2.009   4.642   4.759
10537TIP3    H231553   2.025   4.607   4.612
10538TIP3   OH231554   0.708   7.253   0.316
10538TIP3    H131555   0.669   7.315   0.255
10538TIP3    H231556   0.663   7.170   0.299
10539TIP3   OH231557   4.749   6.574   4.718
10539TIP3    H131558   4.668   6.625   4.727
10539TIP3    H231559   4.802   6.625   4.656
10540TIP3   OH231560   2.323   3.648   6.654
10540TIP3    H131561   2.376   3.625   6.578
10540TIP3    H231562   2.309   3.742   6.647
10541TIP3   OH231563   1.602   3.264   4.773
10541TIP3    H131564   1.562   3.343   4.808
10541TIP3    H231565   1.533   3.198   4.779
10542TIP3   OH231566   7.989   1.457   3.698
10542TIP3    H131567   8.017   1.392   3.762
10542TIP3    H231568   7.894   1.460   3.707
10543TIP3   OH231569   7.086   0.299   6.722
10543TIP3    H131570   7.053   0.338   6.803
10543TIP3    H231571   7.174   0.268   6.744
10544TIP3   OH231572   5.072   6.197   1.111
10544TIP3    H131573   5.060   6.213   1.017
10544TIP3    H231574   4.984   6.206   1.148
10545TIP3   OH231575   6.380   2.240   4.505
10545TIP3    H131576   6.343   2.305   4.447
10545TIP3    H231577   6.455   2.204   4.457
10546TIP3   OH231578   4.527   5.671   2.593
10546TIP3    H131579   4.433   5.664   2.579
10546TIP3    H231580   4.549   5.598   2.652
10547TIP3   OH231581   1.357   0.091   6.267
10547TIP3    H131582   1.439   0.088   6.218
10547TIP3    H231583   1.297   0.034   6.217
10548TIP3   OH231584   0.522   4.120   3.594
10548TIP3    H131585   0.513   4.055   3.664
10548TIP3    H231586   0.543   4.068   3.516
10549TIP3   OH231587   5.346   3.514   3.570
10549TIP3    H131588   5.437   3.525   3.597
10549TIP3    H231589   5.341   3.424   3.537
10550TIP3   OH231590   4.381   6.458   1.859
10550TIP3    H131591   4.387   6.528   1.793
10550TIP3    H231592   4.416   6.381   1.815
10551TIP3   OH231593   5.055   6.400   1.820
10551TIP3    H131594   4.997   6.399   1.744
10551TIP3    H231595   5.068   6.308   1.842
10552TIP3   OH231596   6.406   2.596   4.167
10552TIP3    H131597   6.387   2.640   4.084
10552TIP3    H231598   6.377   2.505   4.152
10553TIP3   OH231599   5.203   0.405   0.019
10553TIP3    H131600   5.198   0.315   0.053
10553TIP3    H231601   5.113   0.428  -0.001
10554TIP3   OH231602   4.082   7.270   4.567
10554TIP3    H131603   4.165   7.286   4.613
10554TIP3    H231604   4.098   7.303   4.478
10555TIP3   OH231605   8.299   0.767   5.444
10555TIP3    H131606   8.212   0.788   5.477
10555TIP3    H231607   8.345   0.730   5.520
10556TIP3   OH231608   6.546   3.761   0.186
10556TIP3    H131609   6.638   3.757   0.160
10556TIP3    H231610   6.523   3.853   0.178
10557TIP3   OH231611   4.784   5.462   2.063
10557TIP3    H131612   4.812   5.372   2.042
10557TIP3    H231613   4.783   5.507   1.979
10558TIP3   OH231614   1.998   6.653   1.355
10558TIP3    H131615   2.046   6.614   1.429
10558TIP3    H231616   2.043   6.736   1.339
10559TIP3   OH231617   5.042   1.764   1.866
10559TIP3    H131618   5.103   1.697   1.835
10559TIP3    H231619   5.035   1.749   1.960
10560TIP3   OH231620   3.614   3.258   3.346
10560TIP3    H131621   3.690   3.204   3.365
10560TIP3    H231622   3.650   3.337   3.306
10561TIP3   OH231623   0.904   0.287   2.598
10561TIP3    H131624   0.911   0.219   2.665
10561TIP3    H231625   0.899   0.369   2.648
10562TIP3   OH231626   4.310   5.080   1.245
10562TIP3    H131627   4.323   5.002   1.299
10562TIP3    H231628   4.216   5.081   1.227
10563TIP3   OH231629   6.971   1.850   4.410
10563TIP3    H131630   7.007   1.806   4.333
10563TIP3    H231631   6.899   1.795   4.438
10564TIP3   OH231632   2.692   7.283   4.982
10564TIP3    H131633   2.647   7.220   5.038
10564TIP3    H231634   2.780   7.247   4.972
10565TIP3   OH231635   5.247   0.837   4.920
10565TIP3    H131636   5.277   0.794   4.839
10565TIP3    H231637   5.245   0.766   4.984
10566TIP3   OH231638   2.624   1.806   1.760
10566TIP3    H131639   2.535   1.775   1.778
10566TIP3    H231640   2.625   1.896   1.795
10567TIP3   OH231641   7.007   0.785   0.146
10567TIP3    H131642   7.097   0.752   0.147
10567TIP3    H231643   6.991   0.809   0.054
10568TIP3   OH231644   4.460   2.860   0.533
10568TIP3    H131645   4.540   2.912   0.525
10568TIP3    H231646   4.417   2.869   0.448
10569TIP3   OH231647   7.318   6.574   5.265
10569TIP3    H131648   7.324   6.480   5.252
10569TIP3    H231649   7.250   6.585   5.331
10570TIP3   OH231650   1.973   3.347   1.749
10570TIP3    H131651   2.007   3.341   1.660
10570TIP3    H231652   2.046   3.382   1.800
10571TIP3   OH231653   6.007   5.563   6.721
10571TIP3    H131654   5.951   5.487   6.711
10571TIP3    H231655   6.037   5.584   6.632
10572TIP3   OH231656   7.393   3.674   4.921
10572TIP3    H131657   7.485   3.691   4.941
10572TIP3    H231658   7.345   3.716   4.993
10573TIP3   OH231659   1.947   2.386   3.991
10573TIP3    H131660   1.889   2.442   3.940
10573TIP3    H231661   1.970   2.438   4.068
10574TIP3   OH231662   8.046   5.526   0.150
10574TIP3    H131663   8.003   5.484   0.076
10574TIP3    H231664   8.008   5.485   0.227
10575TIP3   OH231665   2.012   0.638   5.794
10575TIP3    H131666   2.084   0.696   5.771
10575TIP3    H231667   2.049   0.576   5.857
10576TIP3   OH231668   2.283   0.780   5.790
10576TIP3    H131669   2.275   0.868   5.828
10576TIP3    H231670   2.349   0.736   5.845
10577TIP3   OH231671   6.860   2.396   1.070
10577TIP3    H131672   6.816   2.395   0.985
10577TIP3    H231673   6.919   2.321   1.067
10578TIP3   OH231674   5.749   5.377   5.848
10578TIP3    H131675   5.683   5.426   5.897
10578TIP3    H231676   5.755   5.293   5.894
10579TIP3   OH231677   6.973   7.229   6.219
10579TIP3    H131678   7.029   7.297   6.257
10579TIP3    H231679   6.888   7.271   6.208
10580TIP3   OH231680   3.285   1.331   0.065
10580TIP3    H131681   3.290   1.271   0.140
10580TIP3    H231682   3.355   1.395   0.082
10581TIP3   OH231683   6.541   2.987   3.022
10581TIP3    H131684   6.546   2.919   2.955
10581TIP3    H231685   6.467   3.042   2.996
10582TIP3   OH231686   3.246   0.878   4.298
10582TIP3    H131687   3.267   0.876   4.205
10582TIP3    H231688   3.311   0.937   4.337
10583TIP3   OH231689   5.003   1.739   6.119
10583TIP3    H131690   4.994   1.801   6.191
10583TIP3    H231691   5.024   1.792   6.043
10584TIP3   OH231692   7.972   4.118   0.433
10584TIP3    H131693   7.997   4.035   0.393
10584TIP3    H231694   8.052   4.148   0.476
10585TIP3   OH231695   5.775   5.034   3.028
10585TIP3    H131696   5.798   5.012   2.937
10585TIP3    H231697   5.732   4.956   3.061
10586TIP3   OH231698   6.342   4.673   5.702
10586TIP3    H131699   6.307   4.597   5.654
10586TIP3    H231700   6.266   4.728   5.720
10587TIP3   OH231701   5.738   3.209   6.494
10587TIP3    H131702   5.819   3.248   6.526
10587TIP3    H231703   5.759   3.178   6.406
10588TIP3   OH231704   3.063   7.693   2.684
10588TIP3    H131705   3.032   7.603   2.677
10588TIP3    H231706   3.157   7.684   2.702
10589TIP3   OH231707   1.800   7.459   3.658
10589TIP3    H131708   1.871   7.478   3.720
10589TIP3    H231709   1.838   7.476   3.572
10590TIP3   OH231710   3.670   6.155   0.146
10590TIP3    H131711   3.658   6.067   0.181
10590TIP3    H231712   3.724   6.143   0.068
10591TIP3   OH231713   1.533   1.517   5.699
10591TIP3    H131714   1.574   1.563   5.626
10591TIP3    H231715   1.606   1.500   5.760
10592TIP3   OH231716   5.289   6.430   0.027
10592TIP3    H131717   5.216   6.454  -0.031
10592TIP3    H231718   5.327   6.514   0.053
10593TIP3   OH231719   6.442   4.855   1.523
10593TIP3    H131720   6.414   4.764   1.514
10593TIP3    H231721   6.435   4.873   1.616
10594TIP3   OH231722   7.010   0.406   3.266
10594TIP3    H131723   7.048   0.493   3.251
10594TIP3    H231724   7.034   0.385   3.356
10595TIP3   OH231725   4.717   1.413   3.633
10595TIP3    H131726   4.711   1.401   3.539
10595TIP3    H231727   4.662   1.345   3.670
10596TIP3   OH231728   1.832   5.256   1.249
10596TIP3    H131729   1.855   5.167   1.222
10596TIP3    H231730   1.802   5.246   1.339
10597TIP3   OH231731   7.147   4.259   1.859
10597TIP3    H131732   7.137   4.221   1.946
10597TIP3    H231733   7.085   4.210   1.805
10598TIP3   OH231734   6.786   3.117   3.137
10598TIP3    H131735   6.697   3.091   3.116
10598TIP3    H231736   6.804   3.192   3.080
10599TIP3   OH231737   2.747   2.602   1.090
10599TIP3    H131738   2.686   2.563   1.028
10599TIP3    H231739   2.692   2.655   1.148
10600TIP3   OH231740   0.138   6.116   1.486
10600TIP3    H131741   0.062   6.155   1.442
10600TIP3    H231742   0.108   6.030   1.514
10601TIP3   OH231743   3.460   1.266   1.762
10601TIP3    H131744   3.524   1.209   1.719
10601TIP3    H231745   3.393   1.280   1.695
10602TIP3   OH231746   3.458   7.320   6.109
10602TIP3    H131747   3.467   7.234   6.068
10602TIP3    H231748   3.371   7.319   6.148
10603TIP3   OH231749   2.159   1.543   2.426
10603TIP3    H131750   2.197   1.512   2.508
10603TIP3    H231751   2.126   1.630   2.447
10604TIP3   OH231752   6.529   5.251   4.914
10604TIP3    H131753   6.562   5.165   4.939
10604TIP3    H231754   6.509   5.294   4.997
10605TIP3   OH231755   3.340   7.325   5.226
10605TIP3    H131756   3.316   7.252   5.284
10605TIP3    H231757   3.256   7.360   5.195
10606TIP3   OH231758   4.567   4.588   6.548
10606TIP3    H131759   4.597   4.644   6.477
10606TIP3    H231760   4.475   4.612   6.559
10607TIP3   OH231761   3.032   7.093   0.192
10607TIP3    H131762   3.021   7.013   0.243
10607TIP3    H231763   2.988   7.074   0.109
10608TIP3   OH231764   7.618   2.054   5.299
10608TIP3    H131765   7.640   2.143   5.272
10608TIP3    H231766   7.661   2.042   5.383
10609TIP3   OH231767   5.592   0.172   3.337
10609TIP3    H131768   5.580   0.124   3.419
10609TIP3    H231769   5.561   0.112   3.270
10610TIP3   OH231770   3.454   3.299   3.594
10610TIP3    H131771   3.483   3.287   3.504
10610TIP3    H231772   3.474   3.215   3.637
10611TIP3   OH231773   6.763   4.180   3.652
10611TIP3    H131774   6.802   4.242   3.590
10611TIP3    H231775   6.760   4.227   3.735
10612TIP3   OH231776   6.195   0.580   3.217
10612TIP3    H131777   6.168   0.597   3.127
10612TIP3    H231778   6.125   0.617   3.271
10613TIP3   OH231779   5.274   3.908   0.435
10613TIP3    H131780   5.219   3.846   0.387
10613TIP3    H231781   5.251   3.895   0.527
10614TIP3   OH231782   1.848   0.460   1.754
10614TIP3    H131783   1.820   0.437   1.842
10614TIP3    H231784   1.840   0.379   1.704
10615TIP3   OH231785   4.014   3.190   3.600
10615TIP3    H131786   4.045   3.236   3.678
10615TIP3    H231787   3.931   3.150   3.626
10616TIP3   OH231788   0.483   4.060   1.879
10616TIP3    H131789   0.550   4.125   1.902
10616TIP3    H231790   0.512   4.025   1.795
10617TIP3   OH231791   1.107   5.163   0.192
10617TIP3    H131792   1.097   5.071   0.166
10617TIP3    H231793   1.201   5.177   0.197
10618TIP3   OH231794   4.509   2.063   2.792
10618TIP3    H131795   4.491   2.131   2.727
10618TIP3    H231796   4.466   1.985   2.758
10619TIP3   OH231797   5.708   6.385   6.515
10619TIP3    H131798   5.665   6.445   6.576
10619TIP3    H231799   5.800   6.385   6.542
10620TIP3   OH231800   4.071   3.411   4.485
10620TIP3    H131801   4.096   3.459   4.564
10620TIP3    H231802   3.997   3.357   4.512
10621TIP3   OH231803   1.706   6.066   6.737
10621TIP3    H131804   1.662   5.996   6.784
10621TIP3    H231805   1.778   6.092   6.794
10622TIP3   OH231806   1.021   7.842   2.845
10622TIP3    H131807   0.975   7.766   2.880
10622TIP3    H231808   1.104   7.843   2.894
10623TIP3   OH231809   7.847   3.669   1.465
10623TIP3    H131810   7.756   3.647   1.445
10623TIP3    H231811   7.867   3.617   1.544
10624TIP3   OH231812   7.582   6.558   6.243
10624TIP3    H131813   7.605   6.466   6.255
10624TIP3    H231814   7.662   6.606   6.268
10625TIP3   OH231815   3.575   4.523   2.941
10625TIP3    H131816   3.536   4.585   3.003
10625TIP3    H231817   3.649   4.571   2.903
10626TIP3   OH231818   3.053   1.461   0.216
10626TIP3    H131819   3.100   1.477   0.134
10626TIP3    H231820   3.066   1.540   0.267
10627TIP3   OH231821   7.887   2.468   0.296
10627TIP3    H131822   7.816   2.421   0.339
10627TIP3    H231823   7.965   2.449   0.348
10628TIP3   OH231824   0.063   7.227   1.721
10628TIP3    H131825   0.145   7.190   1.755
10628TIP3    H231826   0.085   7.319   1.704
10629TIP3   OH231827   5.010   6.950   4.426
10629TIP3    H131828   4.951   6.881   4.456
10629TIP3    H231829   5.041   6.919   4.340
10630TIP3   OH231830   2.056   2.686   6.180
10630TIP3    H131831   1.980   2.681   6.122
10630TIP3    H231832   2.023   2.658   6.265
10631TIP3   OH231833   8.331   4.890   1.793
10631TIP3    H131834   8.305   4.982   1.804
10631TIP3    H231835   8.258   4.841   1.830
10632TIP3   OH231836   3.862   0.617   6.689
10632TIP3    H131837   3.806   0.540   6.702
10632TIP3    H231838   3.824   0.684   6.747
10633TIP3   OH231839   7.451   0.093   5.936
10633TIP3    H131840   7.479   0.057   5.852
10633TIP3    H231841   7.360   0.064   5.945
10634TIP3   OH231842   2.519   1.752   4.524
10634TIP3    H131843   2.613   1.739   4.514
10634TIP3    H231844   2.512   1.820   4.592
10635TIP3   OH231845   0.552   3.280   6.820
10635TIP3    H131846   0.468   3.285   6.775
10635TIP3    H231847   0.600   3.211   6.774
10636TIP3   OH231848   0.143   0.424   1.122
10636TIP3    H131849   0.108   0.417   1.034
10636TIP3    H231850   0.125   0.339   1.162
10637TIP3   OH231851   3.123   7.041   4.793
10637TIP3    H131852   3.189   6.973   4.804
10637TIP3    H231853   3.116   7.082   4.879
10638TIP3   OH231854   1.615   5.354   5.855
10638TIP3    H131855   1.637   5.392   5.770
10638TIP3    H231856   1.542   5.295   5.837
10639TIP3   OH231857   4.098   7.111   0.052
10639TIP3    H131858   4.162   7.078   0.116
10639TIP3    H231859   4.114   7.205   0.049
10640TIP3   OH231860   5.037   6.679   3.225
10640TIP3    H131861   4.998   6.592   3.213
10640TIP3    H231862   4.964   6.740   3.209
10641TIP3   OH231863   3.723   5.890   6.228
10641TIP3    H131864   3.659   5.889   6.157
10641TIP3    H231865   3.803   5.924   6.188
10642TIP3   OH231866   3.993   0.735   0.306
10642TIP3    H131867   4.043   0.659   0.274
10642TIP3    H231868   3.903   0.717   0.279
10643TIP3   OH231869   5.737   1.455   4.775
10643TIP3    H131870   5.665   1.480   4.832
10643TIP3    H231871   5.809   1.436   4.835
10644TIP3   OH231872   2.919   5.569   1.424
10644TIP3    H131873   2.867   5.505   1.474
10644TIP3    H231874   2.857   5.639   1.404
10645TIP3   OH231875   2.441   0.079   3.124
10645TIP3    H131876   2.404   0.064   3.037
10645TIP3    H231877   2.518   0.021   3.127
10646TIP3   OH231878   0.137   4.403   2.701
10646TIP3    H131879   0.086   4.468   2.653
10646TIP3    H231880   0.076   4.331   2.716
10647TIP3   OH231881   8.098   7.326   3.071
10647TIP3    H131882   8.181   7.329   3.119
10647TIP3    H231883   8.068   7.235   3.081
10648TIP3   OH231884   8.354   0.047   3.531
10648TIP3    H131885   8.280   0.070   3.588
10648TIP3    H231886   8.367   0.124   3.476
10649TIP3   OH231887   4.643   5.420   6.352
10649TIP3    H131888   4.682   5.430   6.266
10649TIP3    H231889   4.584   5.345   6.343
10650TIP3   OH231890   0.286   7.389   3.065
10650TIP3    H131891   0.309   7.476   3.032
10650TIP3    H231892   0.324   7.387   3.153
10651TIP3   OH231893   7.150   7.195   2.103
10651TIP3    H131894   7.135   7.274   2.156
10651TIP3    H231895   7.211   7.142   2.155
10652TIP3   OH231896   2.821   1.670   0.916
10652TIP3    H131897   2.733   1.704   0.932
10652TIP3    H231898   2.861   1.734   0.856
10653TIP3   OH231899   1.849   0.899   5.130
10653TIP3    H131900   1.847   0.994   5.119
10653TIP3    H231901   1.860   0.865   5.042
10654TIP3   OH231902   1.333   0.660   4.400
10654TIP3    H131903   1.350   0.672   4.493
10654TIP3    H231904   1.307   0.568   4.392
10655TIP3   OH231905   7.203   7.857   6.501
10655TIP3    H131906   7.111   7.838   6.486
10655TIP3    H231907   7.247   7.829   6.421
10656TIP3   OH231908   3.921   0.537   4.303
10656TIP3    H131909   3.894   0.501   4.387
10656TIP3    H231910   3.841   0.545   4.253
10657TIP3   OH231911   7.839   0.267   1.217
10657TIP3    H131912   7.840   0.183   1.172
10657TIP3    H231913   7.907   0.259   1.284
10658TIP3   OH231914   5.304   2.517   6.234
10658TIP3    H131915   5.231   2.493   6.177
10658TIP3    H231916   5.272   2.590   6.286
10659TIP3   OH231917   0.245   3.670   4.514
10659TIP3    H131918   0.330   3.633   4.489
10659TIP3    H231919   0.262   3.764   4.524
10660TIP3   OH231920   1.141   4.885   2.706
10660TIP3    H131921   1.164   4.943   2.634
10660TIP3    H231922   1.224   4.864   2.748
10661TIP3   OH231923   1.443   1.854   6.735
10661TIP3    H131924   1.496   1.782   6.699
10661TIP3    H231925   1.496   1.932   6.721
10662TIP3   OH231926   7.094   2.081   6.201
10662TIP3    H131927   7.035   2.011   6.175
10662TIP3    H231928   7.039   2.144   6.248
10663TIP3   OH231929   0.490   5.506   2.964
10663TIP3    H131930   0.420   5.563   2.994
10663TIP3    H231931   0.568   5.538   3.009
10664TIP3   OH231932   8.072   3.224   4.593
10664TIP3    H131933   8.004   3.292   4.584
10664TIP3    H231934   8.152   3.273   4.608
10665TIP3   OH231935   3.140   6.042   5.730
10665TIP3    H131936   3.064   6.078   5.684
10665TIP3    H231937   3.140   5.949   5.706
10666TIP3   OH231938   7.356   3.648   4.315
10666TIP3    H131939   7.384   3.634   4.406
10666TIP3    H231940   7.396   3.732   4.291
10667TIP3   OH231941   4.050   0.197   0.394
10667TIP3    H131942   4.055   0.149   0.477
10667TIP3    H231943   4.073   0.133   0.327
10668TIP3   OH231944   1.404   5.877   6.751
10668TIP3    H131945   1.465   5.834   6.811
10668TIP3    H231946   1.402   5.819   6.675
10669TIP3   OH231947   3.621   5.716   5.630
10669TIP3    H131948   3.559   5.649   5.657
10669TIP3    H231949   3.587   5.797   5.668
10670TIP3   OH231950   4.140   4.017   1.623
10670TIP3    H131951   4.063   4.007   1.568
10670TIP3    H231952   4.123   3.961   1.699
10671TIP3   OH231953   7.412   5.395   0.929
10671TIP3    H131954   7.505   5.415   0.940
10671TIP3    H231955   7.367   5.463   0.980
10672TIP3   OH231956   0.115   2.547   0.471
10672TIP3    H131957   0.203   2.582   0.488
10672TIP3    H231958   0.116   2.525   0.378
10673TIP3   OH231959   7.490   6.123   1.971
10673TIP3    H131960   7.398   6.151   1.973
10673TIP3    H231961   7.532   6.183   1.909
10674TIP3   OH231962   4.293   3.387   2.008
10674TIP3    H131963   4.226   3.438   2.054
10674TIP3    H231964   4.337   3.450   1.950
10675TIP3   OH231965   0.194   6.068   3.109
10675TIP3    H131966   0.272   6.013   3.104
10675TIP3    H231967   0.160   6.069   3.019
10676TIP3   OH231968   6.796   2.100   1.311
10676TIP3    H131969   6.791   2.015   1.356
10676TIP3    H231970   6.875   2.141   1.345
10677TIP3   OH231971   7.363   3.167   0.890
10677TIP3    H131972   7.295   3.219   0.933
10677TIP3    H231973   7.377   3.210   0.806
10678TIP3   OH231974   0.427   2.931   4.720
10678TIP3    H131975   0.517   2.951   4.745
10678TIP3    H231976   0.374   2.963   4.792
10679TIP3   OH231977   5.554   6.146   5.942
10679TIP3    H131978   5.499   6.163   6.018
10679TIP3    H231979   5.493   6.119   5.874
10680TIP3   OH231980   5.356   0.914   0.281
10680TIP3    H131981   5.415   0.896   0.354
10680TIP3    H231982   5.408   0.893   0.203
10681TIP3   OH231983   3.482   4.255   0.627
10681TIP3    H131984   3.450   4.204   0.701
10681TIP3    H231985   3.482   4.346   0.659
10682TIP3   OH231986   2.134   2.949   3.882
10682TIP3    H131987   2.195   2.913   3.946
10682TIP3    H231988   2.047   2.930   3.917
10683TIP3   OH231989   6.560   6.395   6.357
10683TIP3    H131990   6.583   6.431   6.442
10683TIP3    H231991   6.638   6.345   6.330
10684TIP3   OH231992   3.985   1.401   1.817
10684TIP3    H131993   3.895   1.428   1.799
10684TIP3    H231994   4.010   1.347   1.742
10685TIP3   OH231995   4.692   7.267   5.986
10685TIP3    H131996   4.620   7.281   6.048
10685TIP3    H231997   4.761   7.228   6.039
10686TIP3   OH231998   5.684   3.008   3.239
10686TIP3    H131999   5.757   2.976   3.186
10686TIP3    H232000   5.616   2.941   3.229
10687TIP3   OH232001   1.556   5.652   0.852
10687TIP3    H132002   1.537   5.741   0.823
10687TIP3    H232003   1.652   5.648   0.856
10688TIP3   OH232004   2.502   1.480   5.135
10688TIP3    H132005   2.582   1.532   5.135
10688TIP3    H232006   2.508   1.427   5.055
10689TIP3   OH232007   2.289   0.212   1.803
10689TIP3    H132008   2.316   0.224   1.712
10689TIP3    H232009   2.317   0.124   1.825
10690TIP3   OH232010   7.905   6.371   0.550
10690TIP3    H132011   7.988   6.398   0.589
10690TIP3    H232012   7.931   6.308   0.482
10691TIP3   OH232013   0.382   1.284   2.332
10691TIP3    H132014   0.399   1.239   2.415
10691TIP3    H232015   0.413   1.224   2.264
10692TIP3   OH232016   5.666   7.024   0.650
10692TIP3    H132017   5.688   6.951   0.593
10692TIP3    H232018   5.683   7.102   0.598
10693TIP3   OH232019   1.085   4.331   1.844
10693TIP3    H132020   1.064   4.330   1.938
10693TIP3    H232021   1.179   4.350   1.841
10694TIP3   OH232022   6.961   2.581   0.105
10694TIP3    H132023   6.948   2.588   0.011
10694TIP3    H232024   6.904   2.649   0.142
10695TIP3   OH232025   1.250   5.225   3.272
10695TIP3    H132026   1.174   5.192   3.224
10695TIP3    H232027   1.262   5.314   3.239
10696TIP3   OH232028   1.527   1.451   4.088
10696TIP3    H132029   1.517   1.494   4.003
10696TIP3    H232030   1.442   1.460   4.129
10697TIP3   OH232031   0.086   1.420   4.935
10697TIP3    H132032   0.129   1.470   4.865
10697TIP3    H232033   0.006   1.469   4.953
10698TIP3   OH232034   8.346   5.298   6.738
10698TIP3    H132035   8.373   5.261   6.654
10698TIP3    H232036   8.268   5.248   6.762
10699TIP3   OH232037   6.736   2.596   5.133
10699TIP3    H132038   6.723   2.504   5.110
10699TIP3    H232039   6.829   2.611   5.119
10700TIP3   OH232040   1.142   3.700   0.473
10700TIP3    H132041   1.185   3.677   0.555
10700TIP3    H232042   1.211   3.737   0.418
10701TIP3   OH232043   2.859   4.386   3.307
10701TIP3    H132044   2.903   4.411   3.226
10701TIP3    H232045   2.877   4.292   3.315
10702TIP3   OH232046   1.345   1.275   2.648
10702TIP3    H132047   1.270   1.223   2.675
10702TIP3    H232048   1.341   1.353   2.703
10703TIP3   OH232049   3.563   5.602   6.311
10703TIP3    H132050   3.657   5.592   6.323
10703TIP3    H232051   3.546   5.568   6.223
10704TIP3   OH232052   7.325   3.194   5.682
10704TIP3    H132053   7.352   3.273   5.729
10704TIP3    H232054   7.248   3.164   5.729
10705TIP3   OH232055   4.150   6.302   5.816
10705TIP3    H132056   4.186   6.339   5.897
10705TIP3    H232057   4.213   6.235   5.790
10706TIP3   OH232058   7.145   0.450   6.157
10706TIP3    H132059   7.113   0.531   6.118
10706TIP3    H232060   7.102   0.446   6.243
10707TIP3   OH232061   3.815   3.648   0.954
10707TIP3    H132062   3.842   3.740   0.951
10707TIP3    H232063   3.770   3.638   1.038
10708TIP3   OH232064   4.559   2.947   6.477
10708TIP3    H132065   4.637   2.917   6.523
10708TIP3    H232066   4.493   2.957   6.546
10709TIP3   OH232067   6.790   4.175   0.520
10709TIP3    H132068   6.749   4.260   0.536
10709TIP3    H232069   6.757   4.148   0.434
10710TIP3   OH232070   2.860   4.475   2.219
10710TIP3    H132071   2.919   4.522   2.278
10710TIP3    H232072   2.817   4.411   2.275
10711TIP3   OH232073   7.336   1.565   5.195
10711TIP3    H132074   7.409   1.618   5.226
10711TIP3    H232075   7.309   1.607   5.114
10712TIP3   OH232076   1.012   1.554   6.446
10712TIP3    H132077   0.933   1.507   6.419
10712TIP3    H232078   0.989   1.647   6.439
10713TIP3   OH232079   0.643   6.026   3.142
10713TIP3    H132080   0.635   5.978   3.224
10713TIP3    H232081   0.669   6.115   3.168
10714TIP3   OH232082   4.218   0.751   3.021
10714TIP3    H132083   4.210   0.714   3.109
10714TIP3    H232084   4.128   0.758   2.989
10715TIP3   OH232085   0.205   5.010   0.994
10715TIP3    H132086   0.171   4.921   0.977
10715TIP3    H232087   0.140   5.049   1.053
10716TIP3   OH232088   4.239   3.594   6.117
10716TIP3    H132089   4.200   3.642   6.044
10716TIP3    H232090   4.194   3.628   6.194
10717TIP3   OH232091   1.847   0.054   4.574
10717TIP3    H132092   1.764   0.017   4.604
10717TIP3    H232093   1.908   0.038   4.647
10718TIP3   OH232094   2.458   5.833   5.631
10718TIP3    H132095   2.548   5.818   5.606
10718TIP3    H232096   2.446   5.781   5.711
10719TIP3   OH232097   1.660   0.754   0.595
10719TIP3    H132098   1.654   0.841   0.633
10719TIP3    H232099   1.613   0.698   0.656
10720TIP3   OH232100   3.689   2.256   3.755
10720TIP3    H132101   3.635   2.312   3.700
10720TIP3    H232102   3.671   2.167   3.725
10721TIP3   OH232103   8.268   7.194   2.602
10721TIP3    H132104   8.329   7.259   2.566
10721TIP3    H232105   8.283   7.198   2.697
10722TIP3   OH232106   7.658   2.890   5.652
10722TIP3    H132107   7.673   2.984   5.650
10722TIP3    H232108   7.669   2.862   5.561
10723TIP3   OH232109   6.156   3.662   3.779
10723TIP3    H132110   6.171   3.729   3.713
10723TIP3    H232111   6.061   3.665   3.794
10724TIP3   OH232112   5.705   6.695   2.165
10724TIP3    H132113   5.721   6.755   2.093
10724TIP3    H232114   5.728   6.609   2.130
10725TIP3   OH232115   2.499   6.121   3.294
10725TIP3    H132116   2.444   6.163   3.360
10725TIP3    H232117   2.469   6.158   3.211
10726TIP3   OH232118   7.574   5.043   5.362
10726TIP3    H132119   7.652   5.098   5.355
10726TIP3    H232120   7.607   4.957   5.387
10727TIP3   OH232121   1.176   3.132   2.039
10727TIP3    H132122   1.205   3.042   2.030
10727TIP3    H232123   1.080   3.127   2.032
10728TIP3   OH232124   5.443   5.811   1.683
10728TIP3    H132125   5.520   5.862   1.657
10728TIP3    H232126   5.459   5.724   1.647
10729TIP3   OH232127   6.877   4.023   4.048
10729TIP3    H132128   6.782   4.012   4.045
10729TIP3    H232129   6.909   3.979   3.969
10730TIP3   OH232130   5.726   2.174   3.121
10730TIP3    H132131   5.645   2.226   3.123
10730TIP3    H232132   5.757   2.176   3.212
10731TIP3   OH232133   3.958   1.871   5.924
10731TIP3    H132134   3.898   1.834   5.989
10731TIP3    H232135   4.028   1.807   5.916
10732TIP3   OH232136   2.156   1.545   6.466
10732TIP3    H132137   2.090   1.605   6.431
10732TIP3    H232138   2.113   1.502   6.540
10733TIP3   OH232139   4.625   7.020   4.634
10733TIP3    H132140   4.640   7.078   4.709
10733TIP3    H232141   4.657   7.070   4.559
10734TIP3   OH232142   3.261   5.637   2.393
10734TIP3    H132143   3.290   5.729   2.397
10734TIP3    H232144   3.342   5.588   2.379
10735TIP3   OH232145   6.216   4.551   6.167
10735TIP3    H132146   6.275   4.610   6.119
10735TIP3    H232147   6.158   4.610   6.216
10736TIP3   OH232148   0.872   0.457   6.641
10736TIP3    H132149   0.886   0.363   6.627
10736TIP3    H232150   0.780   0.471   6.616
10737TIP3   OH232151   5.687   0.724   3.796
10737TIP3    H132152   5.613   0.680   3.836
10737TIP3    H232153   5.670   0.720   3.702
10738TIP3   OH232154   5.001   7.666   6.236
10738TIP3    H132155   5.053   7.627   6.306
10738TIP3    H232156   5.003   7.760   6.255
10739TIP3   OH232157   5.720   6.820   5.478
10739TIP3    H132158   5.765   6.771   5.548
10739TIP3    H232159   5.727   6.912   5.505
10740TIP3   OH232160   4.737   7.056   3.615
10740TIP3    H132161   4.650   7.018   3.607
10740TIP3    H232162   4.738   7.096   3.701
10741TIP3   OH232163   1.931   1.128   5.364
10741TIP3    H132164   1.912   1.036   5.383
10741TIP3    H232165   1.913   1.174   5.446
10742TIP3   OH232166   6.238   1.258   4.993
10742TIP3    H132167   6.292   1.333   4.970
10742TIP3    H232168   6.148   1.292   4.992
10743TIP3   OH232169   4.753   2.130   2.578
10743TIP3    H132170   4.678   2.183   2.551
10743TIP3    H232171   4.717   2.066   2.639
10744TIP3   OH232172   2.201   3.522   2.927
10744TIP3    H132173   2.207   3.533   3.022
10744TIP3    H232174   2.216   3.610   2.892
10745TIP3   OH232175   2.024   3.834   4.474
10745TIP3    H132176   2.002   3.756   4.525
10745TIP3    H232177   2.119   3.829   4.463
10746TIP3   OH232178   1.709   6.977   2.450
10746TIP3    H132179   1.619   6.966   2.480
10746TIP3    H232180   1.759   6.914   2.502
10747TIP3   OH232181   7.585   4.710   3.355
10747TIP3    H132182   7.623   4.794   3.383
10747TIP3    H232183   7.584   4.715   3.260
10748TIP3   OH232184   0.946   6.799   1.880
10748TIP3    H132185   1.041   6.790   1.880
10748TIP3    H232186   0.919   6.769   1.967
10749TIP3   OH232187   3.688   6.924   5.395
10749TIP3    H132188   3.767   6.918   5.449
10749TIP3    H232189   3.649   6.837   5.398
10750TIP3   OH232190   2.609   0.874   0.507
10750TIP3    H132191   2.692   0.831   0.486
10750TIP3    H232192   2.632   0.939   0.573
10751TIP3   OH232193   7.824   0.523   2.893
10751TIP3    H132194   7.897   0.583   2.908
10751TIP3    H232195   7.848   0.443   2.940
10752TIP3   OH232196   1.664   6.463   5.242
10752TIP3    H132197   1.636   6.442   5.152
10752TIP3    H232198   1.674   6.558   5.242
10753TIP3   OH232199   5.360   1.991   2.828
10753TIP3    H132200   5.349   1.993   2.733
10753TIP3    H232201   5.282   2.034   2.862
10754TIP3   OH232202   0.459  -0.067   3.788
10754TIP3    H132203   0.435  -0.140   3.844
10754TIP3    H232204   0.552  -0.053   3.804
10755TIP3   OH232205   0.666   5.747   3.805
10755TIP3    H132206   0.727   5.712   3.871
10755TIP3    H232207   0.611   5.808   3.854
10756TIP3   OH232208   0.801   4.885   1.330
10756TIP3    H132209   0.735   4.836   1.280
10756TIP3    H232210   0.831   4.823   1.397
10757TIP3   OH232211   4.028   2.136   6.082
10757TIP3    H132212   4.097   2.070   6.068
10757TIP3    H232213   3.982   2.106   6.161
10758TIP3   OH232214   2.072   5.178   5.828
10758TIP3    H132215   2.075   5.267   5.863
10758TIP3    H232216   2.086   5.121   5.904
10759TIP3   OH232217   7.413   1.642   3.879
10759TIP3    H132218   7.366   1.706   3.932
10759TIP3    H232219   7.490   1.689   3.848
10760TIP3   OH232220   6.397   2.461   0.796
10760TIP3    H132221   6.441   2.427   0.875
10760TIP3    H232222   6.306   2.473   0.823
10761TIP3   OH232223   4.166   4.288   2.794
10761TIP3    H132224   4.243   4.292   2.851
10761TIP3    H232225   4.144   4.195   2.787
10762TIP3   OH232226   5.234   3.779   3.569
10762TIP3    H132227   5.262   3.688   3.566
10762TIP3    H232228   5.142   3.777   3.544
10763TIP3   OH232229   1.724   0.316   5.170
10763TIP3    H132230   1.809   0.356   5.150
10763TIP3    H232231   1.746   0.239   5.223
10764TIP3   OH232232   8.145   4.168   2.186
10764TIP3    H132233   8.170   4.127   2.269
10764TIP3    H232234   8.213   4.233   2.169
10765TIP3   OH232235   2.722   4.300   5.766
10765TIP3    H132236   2.695   4.272   5.678
10765TIP3    H232237   2.816   4.314   5.759
10766TIP3   OH232238   1.476   4.653   5.371
10766TIP3    H132239   1.507   4.640   5.281
10766TIP3    H232240   1.386   4.685   5.361
10767TIP3   OH232241   4.983   5.699   0.814
10767TIP3    H132242   4.980   5.622   0.871
10767TIP3    H232243   5.020   5.768   0.869
10768TIP3   OH232244   0.144   6.739   6.879
10768TIP3    H132245   0.060   6.749   6.833
10768TIP3    H232246   0.127   6.671   6.945
10769TIP3   OH232247   3.325   5.245   4.706
10769TIP3    H132248   3.338   5.191   4.784
10769TIP3    H232249   3.243   5.291   4.722
10770TIP3   OH232250   0.135   2.513   0.758
10770TIP3    H132251   0.139   2.608   0.770
10770TIP3    H232252   0.150   2.500   0.665
10771TIP3   OH232253   5.402   4.000   0.218
10771TIP3    H132254   5.379   3.925   0.165
10771TIP3    H232255   5.368   3.979   0.305
10772TIP3   OH232256   0.074   6.737   5.374
10772TIP3    H132257   0.093   6.651   5.338
10772TIP3    H232258   0.144   6.793   5.340
10773TIP3   OH232259   4.468   2.008   2.301
10773TIP3    H132260   4.528   2.079   2.324
10773TIP3    H232261   4.393   2.020   2.359
10774TIP3   OH232262   2.386   1.965   3.989
10774TIP3    H132263   2.345   1.878   3.995
10774TIP3    H232264   2.455   1.954   3.925
10775TIP3   OH232265   3.401   2.307   3.661
10775TIP3    H132266   3.379   2.229   3.711
10775TIP3    H232267   3.343   2.375   3.696
10776TIP3   OH232268   0.507   4.630   4.030
10776TIP3    H132269   0.495   4.698   4.097
10776TIP3    H232270   0.551   4.674   3.959
10777TIP3   OH232271   3.843   1.241   3.707
10777TIP3    H132272   3.818   1.304   3.775
10777TIP3    H232273   3.864   1.295   3.631
10778TIP3   OH232274   2.920   0.044   3.036
10778TIP3    H132275   2.990   0.091   3.082
10778TIP3    H232276   2.883   0.109   2.976
10779TIP3   OH232277   1.481   2.185   3.505
10779TIP3    H132278   1.395   2.150   3.480
10779TIP3    H232279   1.544   2.120   3.473
10780TIP3   OH232280   5.009   2.814   3.116
10780TIP3    H132281   5.090   2.862   3.133
10780TIP3    H232282   4.966   2.807   3.201
10781TIP3   OH232283   5.681   6.487   2.983
10781TIP3    H132284   5.632   6.432   3.044
10781TIP3    H232285   5.770   6.449   2.984
10782TIP3   OH232286   2.267   6.488   4.404
10782TIP3    H132287   2.204   6.501   4.475
10782TIP3    H232288   2.349   6.469   4.448
10783TIP3   OH232289   7.340   4.970   4.668
10783TIP3    H132290   7.383   4.992   4.751
10783TIP3    H232291   7.379   4.887   4.642
10784TIP3   OH232292   8.201   5.825   2.178
10784TIP3    H132293   8.214   5.893   2.112
10784TIP3    H232294   8.106   5.812   2.180
10785TIP3   OH232295   7.426   0.202   1.280
10785TIP3    H132296   7.378   0.261   1.338
10785TIP3    H232297   7.492   0.161   1.336
10786TIP3   OH232298   4.418   0.622   6.702
10786TIP3    H132299   4.512   0.607   6.708
10786TIP3    H232300   4.407   0.676   6.624
10787TIP3   OH232301   7.390   6.379   5.791
10787TIP3    H132302   7.433   6.296   5.809
10787TIP3    H232303   7.402   6.430   5.871
10788TIP3   OH232304   7.137   3.887   6.692
10788TIP3    H132305   7.190   3.911   6.616
10788TIP3    H232306   7.048   3.913   6.668
10789TIP3   OH232307   1.530   2.767   5.060
10789TIP3    H132308   1.599   2.817   5.104
10789TIP3    H232309   1.542   2.678   5.092
10790TIP3   OH232310   7.803   0.053   1.457
10790TIP3    H132311   7.886   0.090   1.487
10790TIP3    H232312   7.815   0.041   1.363
10791TIP3   OH232313   0.630   7.580   5.688
10791TIP3    H132314   0.706   7.523   5.701
10791TIP3    H232315   0.650   7.658   5.740
10792TIP3   OH232316   6.277   3.152   0.359
10792TIP3    H132317   6.248   3.236   0.394
10792TIP3    H232318   6.275   3.164   0.264
10793TIP3   OH232319   0.095   7.759   5.200
10793TIP3    H132320   0.150   7.704   5.256
10793TIP3    H232321   0.113   7.729   5.111
10794TIP3   OH232322   3.941   6.538   5.109
10794TIP3    H132323   3.878   6.498   5.169
10794TIP3    H232324   4.009   6.472   5.097
10795TIP3   OH232325   0.671   2.487   2.751
10795TIP3    H132326   0.757   2.525   2.767
10795TIP3    H232327   0.640   2.460   2.838
10796TIP3   OH232328   7.412   5.318   3.077
10796TIP3    H132329   7.425   5.408   3.047
10796TIP3    H232330   7.489   5.299   3.131
10797TIP3   OH232331   4.143   5.898   6.323
10797TIP3    H132332   4.124   5.984   6.286
10797TIP3    H232333   4.105   5.901   6.411
10798TIP3   OH232334   0.217   3.662   2.638
10798TIP3    H132335   0.183   3.628   2.721
10798TIP3    H232336   0.309   3.682   2.657
10799TIP3   OH232337   0.194   7.211   0.824
10799TIP3    H132338   0.120   7.254   0.782
10799TIP3    H232339   0.162   7.123   0.844
10800TIP3   OH232340   6.978   5.365   3.386
10800TIP3    H132341   7.057   5.354   3.333
10800TIP3    H232342   6.914   5.306   3.345
10801TIP3   OH232343   1.110   5.286   2.795
10801TIP3    H132344   1.035   5.245   2.839
10801TIP3    H232345   1.107   5.378   2.823
10802TIP3   OH232346   0.846   4.340   6.569
10802TIP3    H132347   0.766   4.381   6.538
10802TIP3    H232348   0.915   4.378   6.515
10803TIP3   OH232349   4.513   4.566   2.789
10803TIP3    H132350   4.526   4.564   2.884
10803TIP3    H232351   4.419   4.579   2.779
10804TIP3   OH232352   6.132   6.243   6.593
10804TIP3    H132353   6.173   6.261   6.508
10804TIP3    H232354   6.096   6.155   6.584
10805TIP3   OH232355   7.401   1.804   2.481
10805TIP3    H132356   7.433   1.714   2.475
10805TIP3    H232357   7.311   1.799   2.447
10806TIP3   OH232358   7.246   6.552   4.939
10806TIP3    H132359   7.289   6.479   4.984
10806TIP3    H232360   7.156   6.550   4.971
10807TIP3   OH232361   6.887   6.496   4.155
10807TIP3    H132362   6.875   6.405   4.180
10807TIP3    H232363   6.941   6.493   4.076
10808TIP3   OH232364   7.953   0.818   2.339
10808TIP3    H132365   8.038   0.789   2.304
10808TIP3    H232366   7.971   0.905   2.376
10809TIP3   OH232367   2.850   7.048   4.766
10809TIP3    H132368   2.808   6.968   4.736
10809TIP3    H232369   2.942   7.026   4.774
10810TIP3   OH232370   2.685   6.877   3.168
10810TIP3    H132371   2.602   6.836   3.190
10810TIP3    H232372   2.751   6.817   3.203
10811TIP3   OH232373   2.585   5.386   4.465
10811TIP3    H132374   2.644   5.442   4.414
10811TIP3    H232375   2.505   5.438   4.474
10812TIP3   OH232376   8.298   1.605   2.864
10812TIP3    H132377   8.249   1.677   2.903
10812TIP3    H232378   8.270   1.528   2.914
10813TIP3   OH232379   6.315   1.492   4.881
10813TIP3    H132380   6.285   1.573   4.839
10813TIP3    H232381   6.410   1.501   4.884
10814TIP3   OH232382   2.135   7.758   4.265
10814TIP3    H132383   2.066   7.737   4.329
10814TIP3    H232384   2.091   7.753   4.180
10815TIP3   OH232385   6.865   7.451   0.127
10815TIP3    H132386   6.857   7.421   0.037
10815TIP3    H232387   6.947   7.500   0.129
10816TIP3   OH232388   3.327   7.847   6.273
10816TIP3    H132389   3.237   7.873   6.290
10816TIP3    H232390   3.334   7.849   6.177
10817TIP3   OH232391   3.371   5.584   3.655
10817TIP3    H132392   3.367   5.664   3.602
10817TIP3    H232393   3.458   5.549   3.639
10818TIP3   OH232394   3.912   3.152   6.000
10818TIP3    H132395   3.962   3.171   5.921
10818TIP3    H232396   3.824   3.183   5.981
10819TIP3   OH232397   5.491   6.692   3.153
10819TIP3    H132398   5.512   6.599   3.152
10819TIP3    H232399   5.564   6.733   3.199
10820TIP3   OH232400   1.599   5.319   6.225
10820TIP3    H132401   1.589   5.245   6.165
10820TIP3    H232402   1.560   5.289   6.307
10821TIP3   OH232403   4.880   2.006   4.265
10821TIP3    H132404   4.966   1.963   4.260
10821TIP3    H232405   4.875   2.037   4.355
10822TIP3   OH232406   0.627   7.850   1.601
10822TIP3    H132407   0.607   7.853   1.694
10822TIP3    H232408   0.546   7.821   1.560
10823TIP3   OH232409   3.049   3.619   5.379
10823TIP3    H132410   3.056   3.626   5.284
10823TIP3    H232411   2.960   3.585   5.394
10824TIP3   OH232412   1.006   3.891   2.869
10824TIP3    H132413   0.981   3.843   2.790
10824TIP3    H232414   0.942   3.864   2.935
10825TIP3   OH232415   3.640   7.240   1.153
10825TIP3    H132416   3.672   7.200   1.073
10825TIP3    H232417   3.584   7.311   1.124
10826TIP3   OH232418   2.463   0.362   3.449
10826TIP3    H132419   2.468   0.271   3.476
10826TIP3    H232420   2.474   0.412   3.530
10827TIP3   OH232421   0.347   0.686   5.983
10827TIP3    H132422   0.371   0.645   6.067
10827TIP3    H232423   0.386   0.630   5.917
10828TIP3   OH232424   6.313   5.881   4.251
10828TIP3    H132425   6.265   5.931   4.317
10828TIP3    H232426   6.405   5.899   4.269
10829TIP3   OH232427   2.751   2.929   3.391
10829TIP3    H132428   2.672   2.909   3.341
10829TIP3    H232429   2.819   2.874   3.352
10830TIP3   OH232430   7.405   4.694   4.339
10830TIP3    H132431   7.401   4.628   4.269
10830TIP3    H232432   7.455   4.766   4.301
10831TIP3   OH232433   1.151   7.828   0.115
10831TIP3    H132434   1.122   7.894   0.052
10831TIP3    H232435   1.072   7.777   0.134
10832TIP3   OH232436   0.857   2.426   5.113
10832TIP3    H132437   0.863   2.489   5.184
10832TIP3    H232438   0.835   2.343   5.157
10833TIP3   OH232439   7.554   2.526   1.425
10833TIP3    H132440   7.589   2.614   1.443
10833TIP3    H232441   7.464   2.530   1.456
10834TIP3   OH232442   5.249   6.821   3.193
10834TIP3    H132443   5.178   6.761   3.212
10834TIP3    H232444   5.326   6.765   3.184
10835TIP3   OH232445   5.638   0.534   5.697
10835TIP3    H132446   5.632   0.459   5.756
10835TIP3    H232447   5.572   0.595   5.729
10836TIP3   OH232448   3.706   6.491   3.278
10836TIP3    H132449   3.633   6.475   3.337
10836TIP3    H232450   3.779   6.513   3.336
10837TIP3   OH232451   5.481   3.373   1.173
10837TIP3    H132452   5.409   3.394   1.232
10837TIP3    H232453   5.560   3.393   1.223
10838TIP3   OH232454   7.539   0.623   2.145
10838TIP3    H132455   7.448   0.636   2.169
10838TIP3    H232456   7.577   0.576   2.219
10839TIP3   OH232457   7.806   4.684   5.644
10839TIP3    H132458   7.853   4.767   5.653
10839TIP3    H232459   7.874   4.620   5.627
10840TIP3   OH232460   1.495   1.615   3.831
10840TIP3    H132461   1.482   1.526   3.800
10840TIP3    H232462   1.458   1.670   3.761
10841TIP3   OH232463   3.267   0.530   2.260
10841TIP3    H132464   3.257   0.480   2.341
10841TIP3    H232465   3.329   0.479   2.208
10842TIP3   OH232466   2.876   7.519   3.149
10842TIP3    H132467   2.836   7.500   3.063
10842TIP3    H232468   2.865   7.438   3.199
10843TIP3   OH232469   4.754   7.895   3.786
10843TIP3    H132470   4.789   7.939   3.863
10843TIP3    H232471   4.831   7.869   3.735
10844TIP3   OH232472   0.574   7.350   4.438
10844TIP3    H132473   0.509   7.302   4.490
10844TIP3    H232474   0.649   7.291   4.434
10845TIP3   OH232475   7.476   2.436   6.412
10845TIP3    H132476   7.563   2.398   6.399
10845TIP3    H232477   7.417   2.361   6.410
10846TIP3   OH232478   1.176   6.367   0.297
10846TIP3    H132479   1.126   6.419   0.360
10846TIP3    H232480   1.236   6.430   0.257
10847TIP3   OH232481   2.463   3.427   1.179
10847TIP3    H132482   2.414   3.423   1.098
10847TIP3    H232483   2.411   3.483   1.237
10848TIP3   OH232484   2.690   6.301   2.690
10848TIP3    H132485   2.626   6.254   2.636
10848TIP3    H232486   2.681   6.262   2.777
10849TIP3   OH232487   7.602   0.223   3.444
10849TIP3    H132488   7.512   0.227   3.413
10849TIP3    H232489   7.599   0.253   3.534
10850TIP3   OH232490   2.103   1.438   0.778
10850TIP3    H132491   2.033   1.424   0.714
10850TIP3    H232492   2.101   1.359   0.833
10851TIP3   OH232493   6.610   4.146   1.144
10851TIP3    H132494   6.557   4.072   1.174
10851TIP3    H232495   6.550   4.221   1.144
10852TIP3   OH232496   3.934   7.513   1.873
10852TIP3    H132497   3.846   7.503   1.837
10852TIP3    H232498   3.950   7.607   1.870
10853TIP3   OH232499   6.356   0.025   0.788
10853TIP3    H132500   6.283   0.087   0.780
10853TIP3    H232501   6.433   0.075   0.763
10854TIP3   OH232502   7.605   5.930   1.019
10854TIP3    H132503   7.560   5.907   0.937
10854TIP3    H232504   7.557   5.882   1.087
10855TIP3   OH232505   3.721   6.485   5.295
10855TIP3    H132506   3.654   6.553   5.295
10855TIP3    H232507   3.675   6.405   5.322
10856TIP3   OH232508   0.961   7.627   3.568
10856TIP3    H132509   0.947   7.533   3.570
10856TIP3    H232510   0.982   7.647   3.477
10857TIP3   OH232511   1.567   1.641   0.578
10857TIP3    H132512   1.488   1.588   0.579
10857TIP3    H232513   1.593   1.647   0.670
10858TIP3   OH232514   0.973   0.540   1.571
10858TIP3    H132515   1.062   0.505   1.582
10858TIP3    H232516   0.916   0.472   1.607
10859TIP3   OH232517   4.343   5.855   5.891
10859TIP3    H132518   4.376   5.945   5.893
10859TIP3    H232519   4.312   5.839   5.980
10860TIP3   OH232520   0.427   6.479   0.457
10860TIP3    H132521   0.502   6.444   0.409
10860TIP3    H232522   0.465   6.532   0.527
10861TIP3   OH232523   4.204   0.711   6.115
10861TIP3    H132524   4.132   0.649   6.109
10861TIP3    H232525   4.229   0.712   6.207
10862TIP3   OH232526   3.856   7.335   5.309
10862TIP3    H132527   3.847   7.269   5.378
10862TIP3    H232528   3.786   7.313   5.247
10863TIP3   OH232529   3.736   3.117   3.849
10863TIP3    H132530   3.728   3.212   3.863
10863TIP3    H232531   3.747   3.081   3.936
10864TIP3   OH232532   1.574   2.427   1.254
10864TIP3    H132533   1.654   2.439   1.202
10864TIP3    H232534   1.567   2.332   1.266
10865TIP3   OH232535   3.556   6.065   0.725
10865TIP3    H132536   3.507   6.134   0.769
10865TIP3    H232537   3.576   6.100   0.639
10866TIP3   OH232538   1.481   3.836   6.782
10866TIP3    H132539   1.560   3.890   6.782
10866TIP3    H232540   1.445   3.847   6.694
10867TIP3   OH232541   8.198   5.767   2.432
10867TIP3    H132542   8.248   5.767   2.350
10867TIP3    H232543   8.155   5.682   2.434
10868TIP3   OH232544   1.058   1.293   4.027
10868TIP3    H132545   1.067   1.314   3.934
10868TIP3    H232546   0.964   1.279   4.039
10869TIP3   OH232547   3.981   0.191   4.401
10869TIP3    H132548   3.981   0.163   4.492
10869TIP3    H232549   4.057   0.147   4.362
10870TIP3   OH232550   7.953   3.131   1.246
10870TIP3    H132551   7.941   3.036   1.244
10870TIP3    H232552   7.887   3.163   1.307
10871TIP3   OH232553   7.589   2.150   2.241
10871TIP3    H132554   7.550   2.126   2.157
10871TIP3    H232555   7.527   2.214   2.278
10872TIP3   OH232556   2.964   4.777   4.574
10872TIP3    H132557   2.930   4.690   4.554
10872TIP3    H232558   2.902   4.837   4.533
10873TIP3   OH232559   3.071   1.857   6.631
10873TIP3    H132560   3.084   1.927   6.695
10873TIP3    H232561   2.976   1.845   6.628
10874TIP3   OH232562   4.311   0.537   0.508
10874TIP3    H132563   4.377   0.468   0.498
10874TIP3    H232564   4.338   0.585   0.586
10875TIP3   OH232565   4.162   2.920   4.947
10875TIP3    H132566   4.220   2.930   4.872
10875TIP3    H232567   4.139   2.827   4.947
10876TIP3   OH232568   6.630   7.325   2.451
10876TIP3    H132569   6.589   7.307   2.366
10876TIP3    H232570   6.670   7.411   2.441
10877TIP3   OH232571   0.705   0.991   3.845
10877TIP3    H132572   0.774   1.057   3.840
10877TIP3    H232573   0.661   1.008   3.928
10878TIP3   OH232574   7.328   4.141   3.387
10878TIP3    H132575   7.307   4.059   3.342
10878TIP3    H232576   7.392   4.116   3.454
10879TIP3   OH232577   1.232   5.069   5.245
10879TIP3    H132578   1.218   5.108   5.331
10879TIP3    H232579   1.210   5.138   5.183
10880TIP3   OH232580   2.741   5.868   6.913
10880TIP3    H132581   2.689   5.789   6.922
10880TIP3    H232582   2.748   5.882   6.818
10881TIP3   OH232583   5.050   4.436   2.724
10881TIP3    H132584   5.114   4.443   2.654
10881TIP3    H232585   5.007   4.352   2.710
10882TIP3   OH232586   6.997   7.874   6.001
10882TIP3    H132587   6.904   7.874   5.980
10882TIP3    H232588   7.038   7.825   5.929
10883TIP3   OH232589   6.546   3.508   4.883
10883TIP3    H132590   6.534   3.434   4.823
10883TIP3    H232591   6.479   3.495   4.950
10884TIP3   OH232592   5.294   6.275   3.945
10884TIP3    H132593   5.357   6.321   3.999
10884TIP3    H232594   5.232   6.343   3.917
10885TIP3   OH232595   8.107   5.436   0.647
10885TIP3    H132596   8.087   5.345   0.671
10885TIP3    H232597   8.088   5.487   0.726
10886TIP3   OH232598   6.403   1.022   0.476
10886TIP3    H132599   6.326   1.020   0.419
10886TIP3    H232600   6.393   0.944   0.532
10887TIP3   OH232601   4.364   4.127   0.972
10887TIP3    H132602   4.431   4.092   0.912
10887TIP3    H232603   4.331   4.205   0.927
10888TIP3   OH232604   6.445   2.184   5.029
10888TIP3    H132605   6.414   2.095   5.048
10888TIP3    H232606   6.529   2.190   5.075
10889TIP3   OH232607   7.771   5.413   4.670
10889TIP3    H132608   7.838   5.349   4.647
10889TIP3    H232609   7.689   5.362   4.672
10890TIP3   OH232610   6.646   0.679   1.077
10890TIP3    H132611   6.591   0.758   1.081
10890TIP3    H232612   6.591   0.614   1.032
10891TIP3   OH232613   6.849   7.587   4.564
10891TIP3    H132614   6.908   7.516   4.588
10891TIP3    H232615   6.790   7.595   4.639
10892TIP3   OH232616   3.583   0.936   0.884
10892TIP3    H132617   3.511   0.887   0.923
10892TIP3    H232618   3.546   0.975   0.805
10893TIP3   OH232619   2.104   4.464   6.082
10893TIP3    H132620   2.070   4.525   6.017
10893TIP3    H232621   2.075   4.378   6.052
10894TIP3   OH232622   2.726   3.426   5.752
10894TIP3    H132623   2.702   3.363   5.684
10894TIP3    H232624   2.644   3.468   5.776
10895TIP3   OH232625   1.232   0.160   2.114
10895TIP3    H132626   1.189   0.231   2.161
10895TIP3    H232627   1.166   0.130   2.051
10896TIP3   OH232628   4.229   0.879   0.297
10896TIP3    H132629   4.139   0.855   0.322
10896TIP3    H232630   4.222   0.970   0.268
10897TIP3   OH232631   6.181   5.006   3.102
10897TIP3    H132632   6.225   4.969   3.025
10897TIP3    H232633   6.198   4.942   3.171
10898TIP3   OH232634   7.591   4.347   3.546
10898TIP3    H132635   7.656   4.304   3.602
10898TIP3    H232636   7.630   4.348   3.459
10899TIP3   OH232637   2.233   0.194   3.708
10899TIP3    H132638   2.156   0.138   3.700
10899TIP3    H232639   2.300   0.137   3.747
10900TIP3   OH232640   5.898   7.475   0.258
10900TIP3    H132641   5.952   7.427   0.321
10900TIP3    H232642   5.877   7.410   0.191
10901TIP3   OH232643   5.087   1.082   2.430
10901TIP3    H132644   5.026   1.028   2.481
10901TIP3    H232645   5.152   1.112   2.494
10902TIP3   OH232646   3.690   7.441   6.308
10902TIP3    H132647   3.668   7.374   6.242
10902TIP3    H232648   3.667   7.400   6.392
10903TIP3   OH232649   4.862   0.643   1.984
10903TIP3    H132650   4.826   0.584   2.050
10903TIP3    H232651   4.951   0.610   1.968
10904TIP3   OH232652   4.198   4.918   1.014
10904TIP3    H132653   4.282   4.937   1.057
10904TIP3    H232654   4.138   4.984   1.050
10905TIP3   OH232655   0.900   2.450   6.391
10905TIP3    H132656   0.896   2.545   6.404
10905TIP3    H232657   0.811   2.420   6.411
10906TIP3   OH232658   4.682   4.061   1.683
10906TIP3    H132659   4.700   4.142   1.730
10906TIP3    H232660   4.609   4.082   1.626
10907TIP3   OH232661   7.635   4.731   6.537
10907TIP3    H132662   7.682   4.765   6.461
10907TIP3    H232663   7.567   4.797   6.554
10908TIP3   OH232664   3.906   6.932   1.210
10908TIP3    H132665   3.959   7.001   1.171
10908TIP3    H232666   3.911   6.859   1.148
10909TIP3   OH232667   4.202   7.258   6.099
10909TIP3    H132668   4.232   7.168   6.098
10909TIP3    H232669   4.135   7.260   6.168
10910TIP3   OH232670   0.747   5.541   5.147
10910TIP3    H132671   0.760   5.636   5.144
10910TIP3    H232672   0.738   5.515   5.055
10911TIP3   OH232673   0.805   2.728   2.800
10911TIP3    H132674   0.810   2.764   2.888
10911TIP3    H232675   0.851   2.792   2.745
10912TIP3   OH232676   5.326   6.436   1.293
10912TIP3    H132677   5.273   6.426   1.372
10912TIP3    H232678   5.276   6.498   1.239
10913TIP3   OH232679   2.181   7.912   6.123
10913TIP3    H132680   2.138   7.864   6.052
10913TIP3    H232681   2.252   7.854   6.151
10914TIP3   OH232682   3.397   0.303   3.062
10914TIP3    H132683   3.394   0.291   3.157
10914TIP3    H232684   3.438   0.223   3.029
10915TIP3   OH232685   0.266   5.675   1.224
10915TIP3    H132686   0.171   5.673   1.213
10915TIP3    H232687   0.289   5.585   1.248
10916TIP3   OH232688   3.800   2.820   5.313
10916TIP3    H132689   3.894   2.828   5.297
10916TIP3    H232690   3.768   2.763   5.242
10917TIP3   OH232691   0.008   6.135   6.636
10917TIP3    H132692   0.051   6.064   6.588
10917TIP3    H232693   0.041   6.215   6.594
10918TIP3   OH232694   7.732   6.770   6.363
10918TIP3    H132695   7.725   6.757   6.458
10918TIP3    H232696   7.807   6.829   6.352
10919TIP3   OH232697   4.813   5.454   5.448
10919TIP3    H132698   4.759   5.392   5.400
10919TIP3    H232699   4.899   5.449   5.406
10920TIP3   OH232700   1.172   5.039   6.310
10920TIP3    H132701   1.138   5.090   6.384
10920TIP3    H232702   1.186   4.952   6.346
10921TIP3   OH232703   5.213   7.254   2.355
10921TIP3    H132704   5.133   7.202   2.362
10921TIP3    H232705   5.209   7.291   2.266
10922TIP3   OH232706   0.928   2.727   4.108
10922TIP3    H132707   1.022   2.710   4.121
10922TIP3    H232708   0.922   2.823   4.107
10923TIP3   OH232709   4.491   1.699   5.384
10923TIP3    H132710   4.587   1.701   5.387
10923TIP3    H232711   4.465   1.664   5.470
10924TIP3   OH232712   6.797   6.845   4.473
10924TIP3    H132713   6.858   6.885   4.534
10924TIP3    H232714   6.847   6.775   4.431
10925TIP3   OH232715   1.606   4.233   6.738
10925TIP3    H132716   1.512   4.251   6.745
10925TIP3    H232717   1.633   4.278   6.658
10926TIP3   OH232718   6.425   0.329   3.721
10926TIP3    H132719   6.444   0.275   3.644
10926TIP3    H232720   6.339   0.368   3.703
10927TIP3   OH232721   0.184   2.251   6.278
10927TIP3    H132722   0.188   2.346   6.264
10927TIP3    H232723   0.097   2.237   6.316
10928TIP3   OH232724   4.166   3.865   5.100
10928TIP3    H132725   4.236   3.807   5.128
10928TIP3    H232726   4.177   3.873   5.005
10929TIP3   OH232727   5.032   7.651   6.794
10929TIP3    H132728   4.988   7.647   6.879
10929TIP3    H232729   5.043   7.744   6.777
10930TIP3   OH232730   6.265   1.149   6.524
10930TIP3    H132731   6.237   1.186   6.608
10930TIP3    H232732   6.354   1.183   6.512
10931TIP3   OH232733   7.427   6.407   2.170
10931TIP3    H132734   7.453   6.413   2.078
10931TIP3    H232735   7.474   6.330   2.203
10932TIP3   OH232736   7.364   2.069   0.985
10932TIP3    H132737   7.332   2.083   1.074
10932TIP3    H232738   7.292   2.098   0.929
10933TIP3   OH232739   7.077   4.451   1.196
10933TIP3    H132740   7.086   4.372   1.250
10933TIP3    H232741   7.058   4.520   1.259
10934TIP3   OH232742   0.528   3.159   5.784
10934TIP3    H132743   0.564   3.236   5.739
10934TIP3    H232744   0.559   3.168   5.874
10935TIP3   OH232745   4.590   2.245   6.352
10935TIP3    H132746   4.637   2.315   6.307
10935TIP3    H232747   4.505   2.283   6.375
10936TIP3   OH232748   3.970   5.277   0.036
10936TIP3    H132749   3.995   5.191   0.069
10936TIP3    H232750   3.875   5.281   0.048
10937TIP3   OH232751   7.468   5.383   3.979
10937TIP3    H132752   7.539   5.423   4.029
10937TIP3    H232753   7.389   5.407   4.028
10938TIP3   OH232754   0.236   2.702   2.463
10938TIP3    H132755   0.288   2.708   2.383
10938TIP3    H232756   0.234   2.608   2.483
10939TIP3   OH232757   7.180   6.535   2.216
10939TIP3    H132758   7.260   6.481   2.208
10939TIP3    H232759   7.144   6.511   2.301
10940TIP3   OH232760   3.472   4.443   1.366
10940TIP3    H132761   3.415   4.371   1.392
10940TIP3    H232762   3.416   4.520   1.368
10941TIP3   OH232763   2.466   2.821   2.230
10941TIP3    H132764   2.538   2.832   2.292
10941TIP3    H232765   2.433   2.733   2.248
10942TIP3   OH232766   3.110   6.567   6.587
10942TIP3    H132767   3.093   6.530   6.673
10942TIP3    H232768   3.176   6.508   6.548
10943TIP3   OH232769   1.638   3.260   1.656
10943TIP3    H132770   1.696   3.335   1.669
10943TIP3    H232771   1.550   3.298   1.654
10944TIP3   OH232772   0.500   6.235   2.404
10944TIP3    H132773   0.502   6.303   2.337
10944TIP3    H232774   0.414   6.194   2.394
10945TIP3   OH232775   7.445   1.027   3.552
10945TIP3    H132776   7.499   1.037   3.630
10945TIP3    H232777   7.355   1.034   3.584
10946TIP3   OH232778   5.394   2.237   6.319
10946TIP3    H132779   5.429   2.226   6.408
10946TIP3    H232780   5.395   2.332   6.304
10947TIP3   OH232781   7.860   6.951   5.378
10947TIP3    H132782   7.915   7.015   5.333
10947TIP3    H232783   7.776   6.995   5.389
10948TIP3   OH232784   1.803   0.484   4.293
10948TIP3    H132785   1.858   0.556   4.323
10948TIP3    H232786   1.728   0.486   4.352
10949TIP3   OH232787   5.454   6.700   4.109
10949TIP3    H132788   5.533   6.703   4.164
10949TIP3    H232789   5.442   6.606   4.091
10950TIP3   OH232790   8.144   3.962   5.117
10950TIP3    H132791   8.155   3.995   5.028
10950TIP3    H232792   8.130   3.868   5.106
10951TIP3   OH232793   4.346   2.990   4.003
10951TIP3    H132794   4.380   2.956   4.086
10951TIP3    H232795   4.349   2.915   3.944
10952TIP3   OH232796   5.974   4.338   3.357
10952TIP3    H132797   6.057   4.382   3.338
10952TIP3    H232798   5.955   4.360   3.448
10953TIP3   OH232799   1.773   2.167   0.752
10953TIP3    H132800   1.831   2.096   0.725
10953TIP3    H232801   1.694   2.156   0.698
10954TIP3   OH232802   6.196   3.866   2.773
10954TIP3    H132803   6.121   3.825   2.816
10954TIP3    H232804   6.241   3.793   2.729
10955TIP3   OH232805   6.327   2.368   3.283
10955TIP3    H132806   6.390   2.355   3.354
10955TIP3    H232807   6.307   2.279   3.252
10956TIP3   OH232808   3.390   4.123   0.851
10956TIP3    H132809   3.314   4.065   0.862
10956TIP3    H232810   3.463   4.073   0.888
10957TIP3   OH232811   1.893   0.571   4.839
10957TIP3    H132812   1.875   0.487   4.881
10957TIP3    H232813   1.870   0.636   4.905
10958TIP3   OH232814   4.306   7.726   6.804
10958TIP3    H132815   4.305   7.786   6.878
10958TIP3    H232816   4.395   7.733   6.768
10959TIP3   OH232817   8.171   5.424   5.478
10959TIP3    H132818   8.239   5.363   5.506
10959TIP3    H232819   8.091   5.394   5.522
10960TIP3   OH232820   1.890   3.024   1.127
10960TIP3    H132821   1.855   3.081   1.058
10960TIP3    H232822   1.985   3.034   1.119
10961TIP3   OH232823   3.958   3.635   1.582
10961TIP3    H132824   3.905   3.651   1.660
10961TIP3    H232825   3.948   3.541   1.565
10962TIP3   OH232826   0.297   6.726   0.873
10962TIP3    H132827   0.204   6.713   0.851
10962TIP3    H232828   0.324   6.800   0.818
10963TIP3   OH232829   8.017   6.778   5.524
10963TIP3    H132830   7.980   6.816   5.445
10963TIP3    H232831   7.945   6.728   5.563
10964TIP3   OH232832   7.066   3.615   4.856
10964TIP3    H132833   6.991   3.558   4.872
10964TIP3    H232834   7.131   3.590   4.920
10965TIP3   OH232835   8.369   1.401   2.042
10965TIP3    H132836   8.375   1.313   2.004
10965TIP3    H232837   8.454   1.414   2.084
10966TIP3   OH232838   2.877   4.202   2.948
10966TIP3    H132839   2.935   4.277   2.942
10966TIP3    H232840   2.906   4.143   2.878
10967TIP3   OH232841   7.466   6.929   3.172
10967TIP3    H132842   7.381   6.895   3.147
10967TIP3    H232843   7.447   7.006   3.226
10968TIP3   OH232844   5.387   6.380   6.426
10968TIP3    H132845   5.461   6.375   6.365
10968TIP3    H232846   5.410   6.453   6.484
10969TIP3   OH232847   6.536   4.803  -0.030
10969TIP3    H132848   6.445   4.775  -0.018
10969TIP3    H232849   6.531   4.880  -0.085
10970TIP3   OH232850   6.314   6.889   6.819
10970TIP3    H132851   6.229   6.894   6.862
10970TIP3    H232852   6.296   6.843   6.737
10971TIP3   OH232853   7.151   6.176   1.692
10971TIP3    H132854   7.088   6.223   1.636
10971TIP3    H232855   7.137   6.084   1.672
10972TIP3   OH232856   7.680   6.777   4.235
10972TIP3    H132857   7.666   6.782   4.330
10972TIP3    H232858   7.635   6.697   4.209
10973TIP3   OH232859   4.954   7.107   1.995
10973TIP3    H132860   4.960   7.012   2.008
10973TIP3    H232861   4.974   7.120   1.903
10974TIP3   OH232862   6.405   7.352   5.179
10974TIP3    H132863   6.325   7.341   5.127
10974TIP3    H232864   6.421   7.446   5.180
10975TIP3   OH232865   5.336   7.795   3.418
10975TIP3    H132866   5.279   7.745   3.359
10975TIP3    H232867   5.382   7.856   3.361
10976TIP3   OH232868   3.928   3.360   1.488
10976TIP3    H132869   3.885   3.321   1.564
10976TIP3    H232870   3.960   3.285   1.437
10977TIP3   OH232871   4.001   1.525   3.550
10977TIP3    H132872   3.929   1.581   3.520
10977TIP3    H232873   3.989   1.444   3.501
10978TIP3   OH232874   5.630   2.542   2.646
10978TIP3    H132875   5.622   2.559   2.740
10978TIP3    H232876   5.543   2.512   2.620
10979TIP3   OH232877   1.194   6.468   1.527
10979TIP3    H132878   1.276   6.439   1.488
10979TIP3    H232879   1.161   6.389   1.571
10980TIP3   OH232880   6.636   2.332   1.322
10980TIP3    H132881   6.679   2.246   1.328
10980TIP3    H232882   6.702   2.389   1.282
10981TIP3   OH232883   0.722   6.076   4.045
10981TIP3    H132884   0.756   6.121   4.122
10981TIP3    H232885   0.722   6.142   3.976
10982TIP3   OH232886   6.683   6.263   3.185
10982TIP3    H132887   6.605   6.218   3.154
10982TIP3    H232888   6.649   6.344   3.225
10983TIP3   OH232889   7.832   0.948   4.056
10983TIP3    H132890   7.773   0.873   4.042
10983TIP3    H232891   7.919   0.909   4.056
10984TIP3   OH232892   5.906   4.616   0.320
10984TIP3    H132893   5.993   4.585   0.342
10984TIP3    H232894   5.889   4.581   0.232
10985TIP3   OH232895   5.197   7.107   4.165
10985TIP3    H132896   5.202   7.061   4.081
10985TIP3    H232897   5.279   7.084   4.210
10986TIP3   OH232898   1.204   6.036   3.886
10986TIP3    H132899   1.186   6.008   3.796
10986TIP3    H232900   1.170   5.964   3.940
10987TIP3   OH232901   2.133   3.025   0.218
10987TIP3    H132902   2.225   3.028   0.243
10987TIP3    H232903   2.094   2.961   0.278
10988TIP3   OH232904   0.971   5.201   4.464
10988TIP3    H132905   0.989   5.196   4.558
10988TIP3    H232906   1.044   5.253   4.428
10989TIP3   OH232907   4.171   4.993   2.744
10989TIP3    H132908   4.178   4.912   2.694
10989TIP3    H232909   4.247   4.991   2.803
10990TIP3   OH232910   0.676   3.548   5.482
10990TIP3    H132911   0.595   3.593   5.461
10990TIP3    H232912   0.738   3.578   5.415
10991TIP3   OH232913   6.939   6.571   6.712
10991TIP3    H132914   7.029   6.573   6.747
10991TIP3    H232915   6.906   6.660   6.725
10992TIP3   OH232916   6.925   1.586   5.866
10992TIP3    H132917   6.986   1.594   5.793
10992TIP3    H232918   6.845   1.628   5.836
10993TIP3   OH232919   3.476   7.000   4.027
10993TIP3    H132920   3.555   6.983   3.976
10993TIP3    H232921   3.475   7.095   4.039
10994TIP3   OH232922   5.442   7.333   6.765
10994TIP3    H132923   5.370   7.279   6.796
10994TIP3    H232924   5.407   7.422   6.766
10995TIP3   OH232925   0.375   6.779   2.807
10995TIP3    H132926   0.413   6.866   2.797
10995TIP3    H232927   0.449   6.724   2.835
10996TIP3   OH232928   2.003   5.397   3.895
10996TIP3    H132929   2.020   5.402   3.989
10996TIP3    H232930   2.088   5.416   3.855
10997TIP3   OH232931   0.106   0.803   5.916
10997TIP3    H132932   0.189   0.760   5.936
10997TIP3    H232933   0.082   0.847   5.998
10998TIP3   OH232934   1.627   2.089   6.645
10998TIP3    H132935   1.644   2.065   6.554
10998TIP3    H232936   1.571   2.167   6.639
10999TIP3   OH232937   5.989   4.355   0.909
10999TIP3    H132938   5.999   4.315   0.995
10999TIP3    H232939   6.058   4.421   0.905
11000TIP3   OH232940   2.188   3.929   4.130
11000TIP3    H132941   2.210   3.935   4.037
11000TIP3    H232942   2.261   3.881   4.169
11001TIP3   OH232943   8.286   2.786   3.718
11001TIP3    H132944   8.310   2.861   3.664
11001TIP3    H232945   8.201   2.758   3.682
11002TIP3   OH232946   7.786   7.066   0.369
11002TIP3    H132947   7.706   7.104   0.405
11002TIP3    H232948   7.768   6.972   0.366
11003TIP3   OH232949   2.804   6.761   0.913
11003TIP3    H132950   2.766   6.673   0.917
11003TIP3    H232951   2.754   6.805   0.844
11004TIP3   OH232952   0.097   6.931   0.520
11004TIP3    H132953   0.004   6.951   0.524
11004TIP3    H232954   0.124   6.956   0.432
11005TIP3   OH232955   6.717   2.116   2.347
11005TIP3    H132956   6.794   2.172   2.338
11005TIP3    H232957   6.722   2.056   2.273
11006TIP3   OH232958   2.678   0.825   4.882
11006TIP3    H132959   2.659   0.765   4.810
11006TIP3    H232960   2.766   0.802   4.910
11007TIP3   OH232961   2.823   5.670   1.778
11007TIP3    H132962   2.812   5.622   1.861
11007TIP3    H232963   2.800   5.606   1.711
11008TIP3   OH232964   0.187   3.438   2.469
11008TIP3    H132965   0.133   3.452   2.392
11008TIP3    H232966   0.188   3.523   2.513
11009TIP3   OH232967   0.573   7.124   1.514
11009TIP3    H132968   0.479   7.106   1.508
11009TIP3    H232969   0.579   7.202   1.569
11010TIP3   OH232970   5.985   3.323   0.244
11010TIP3    H132971   6.076   3.337   0.269
11010TIP3    H232972   5.936   3.330   0.326
11011TIP3   OH232973   4.593   3.069   6.231
11011TIP3    H132974   4.513   3.121   6.217
11011TIP3    H232975   4.582   3.032   6.318
11012TIP3   OH232976   0.041   2.920   4.259
11012TIP3    H132977   0.037   2.825   4.247
11012TIP3    H232978   0.027   2.957   4.172
11013TIP3   OH232979   3.449   7.800   2.356
11013TIP3    H132980   3.468   7.743   2.431
11013TIP3    H232981   3.359   7.829   2.369
11014TIP3   OH232982   3.005   4.449   2.933
11014TIP3    H132983   2.932   4.495   2.891
11014TIP3    H232984   3.064   4.519   2.962
11015TIP3   OH232985   1.726   4.755   4.948
11015TIP3    H132986   1.807   4.773   4.901
11015TIP3    H232987   1.711   4.833   5.002
11016TIP3   OH232988   7.883   6.011   6.821
11016TIP3    H132989   7.799   5.968   6.838
11016TIP3    H232990   7.861   6.087   6.768
11017TIP3   OH232991   6.165   3.937   5.858
11017TIP3    H132992   6.086   3.887   5.837
11017TIP3    H232993   6.196   3.969   5.773
11018TIP3   OH232994   5.743   3.379   5.566
11018TIP3    H132995   5.698   3.382   5.482
11018TIP3    H232996   5.704   3.451   5.617
11019TIP3   OH232997   8.078   7.709   0.661
11019TIP3    H132998   8.003   7.752   0.619
11019TIP3    H232999   8.094   7.763   0.739
11020TIP3   OH233000   7.645   5.542   4.892
11020TIP3    H133001   7.616   5.519   4.980
11020TIP3    H233002   7.689   5.464   4.860
11021TIP3   OH233003   2.575   4.371   1.936
11021TIP3    H133004   2.507   4.424   1.894
11021TIP3    H233005   2.543   4.281   1.929
11022TIP3   OH233006   6.417   0.065   0.017
11022TIP3    H133007   6.463   0.138  -0.025
11022TIP3    H233008   6.481  -0.007   0.017
11023TIP3   OH233009   4.073   7.358   3.193
11023TIP3    H133010   4.105   7.334   3.279
11023TIP3    H233011   4.048   7.450   3.201
11024TIP3   OH233012   8.149   4.877   3.567
11024TIP3    H133013   8.101   4.795   3.583
11024TIP3    H233014   8.213   4.855   3.499
11025TIP3   OH233015   5.082   3.023   3.565
11025TIP3    H133016   5.105   3.026   3.472
11025TIP3    H233017   5.144   2.961   3.603
11026TIP3   OH233018   1.230   1.258   5.422
11026TIP3    H133019   1.179   1.337   5.407
11026TIP3    H233020   1.309   1.288   5.466
11027TIP3   OH233021   2.226   6.301   2.840
11027TIP3    H133022   2.276   6.226   2.873
11027TIP3    H233023   2.173   6.329   2.915
11028TIP3   OH233024   1.175   6.566   4.768
11028TIP3    H133025   1.270   6.560   4.772
11028TIP3    H233026   1.158   6.638   4.706
11029TIP3   OH233027   2.564   7.166   6.706
11029TIP3    H133028   2.624   7.092   6.707
11029TIP3    H233029   2.594   7.222   6.778
11030TIP3   OH233030   8.329   4.763   4.386
11030TIP3    H133031   8.420   4.758   4.414
11030TIP3    H233032   8.290   4.682   4.419
11031TIP3   OH233033   7.576   1.976   1.997
11031TIP3    H133034   7.598   1.884   2.012
11031TIP3    H233035   7.630   2.001   1.922
11032TIP3   OH233036   1.455   5.322   0.251
11032TIP3    H133037   1.417   5.355   0.333
11032TIP3    H233038   1.426   5.386   0.185
11033TIP3   OH233039   3.804   0.406   6.458
11033TIP3    H133040   3.820   0.373   6.547
11033TIP3    H233041   3.878   0.374   6.407
11034TIP3   OH233042   1.728   1.107   1.052
11034TIP3    H133043   1.670   1.158   0.994
11034TIP3    H233044   1.801   1.166   1.070
11035TIP3   OH233045   0.215   7.560   4.535
11035TIP3    H133046   0.294   7.533   4.583
11035TIP3    H233047   0.207   7.495   4.464
11036TIP3   OH233048   4.401   0.208   0.299
11036TIP3    H133049   4.453   0.265   0.356
11036TIP3    H233050   4.407   0.122   0.339
11037TIP3   OH233051   6.370   3.469   4.369
11037TIP3    H133052   6.303   3.401   4.364
11037TIP3    H233053   6.405   3.474   4.280
11038TIP3   OH233054   2.933   6.968   6.470
11038TIP3    H133055   2.910   7.015   6.551
11038TIP3    H233056   3.023   6.939   6.484
11039TIP3   OH233057   3.878   3.921   5.229
11039TIP3    H133058   3.948   3.944   5.168
11039TIP3    H233059   3.823   3.998   5.233
11040TIP3   OH233060   0.793   2.342   5.900
11040TIP3    H133061   0.812   2.288   5.977
11040TIP3    H233062   0.825   2.430   5.924
11041TIP3   OH233063   4.517   6.739   0.809
11041TIP3    H133064   4.527   6.821   0.857
11041TIP3    H233065   4.606   6.707   0.798
11042TIP3   OH233066   2.317   5.234   4.175
11042TIP3    H133067   2.335   5.194   4.260
11042TIP3    H233068   2.224   5.215   4.159
11043TIP3   OH233069   0.767   3.781   2.437
11043TIP3    H133070   0.775   3.872   2.468
11043TIP3    H233071   0.673   3.767   2.429
11044TIP3   OH233072   1.451   4.676   3.807
11044TIP3    H133073   1.457   4.731   3.729
11044TIP3    H233074   1.462   4.586   3.773
11045TIP3   OH233075   7.978   3.137   4.858
11045TIP3    H133076   7.932   3.213   4.895
11045TIP3    H233077   7.990   3.159   4.766
11046TIP3   OH233078   6.874   6.781   6.453
11046TIP3    H133079   6.805   6.801   6.516
11046TIP3    H233080   6.888   6.863   6.405
11047TIP3   OH233081   6.078   0.114   5.100
11047TIP3    H133082   6.106   0.186   5.157
11047TIP3    H233083   6.017   0.063   5.154
11048TIP3   OH233084   3.814   1.363   5.344
11048TIP3    H133085   3.868   1.318   5.278
11048TIP3    H233086   3.832   1.456   5.331
11049TIP3   OH233087   2.507   1.919   4.774
11049TIP3    H133088   2.567   1.871   4.831
11049TIP3    H233089   2.494   2.002   4.819
11050TIP3   OH233090   6.384   3.667   1.400
11050TIP3    H133091   6.360   3.652   1.492
11050TIP3    H233092   6.300   3.663   1.353
11051TIP3   OH233093   6.606   2.005   1.133
11051TIP3    H133094   6.673   2.049   1.186
11051TIP3    H233095   6.628   1.912   1.139
11052TIP3   OH233096   7.468   3.649   0.124
11052TIP3    H133097   7.518   3.686   0.197
11052TIP3    H233098   7.518   3.572   0.098
11053TIP3   OH233099   0.631   3.479   0.560
11053TIP3    H133100   0.609   3.392   0.595
11053TIP3    H233101   0.723   3.492   0.585
11054TIP3   OH233102   7.173   7.887   0.870
11054TIP3    H133103   7.099   7.830   0.851
11054TIP3    H233104   7.160   7.915   0.961
11055TIP3   OH233105   0.914   5.480   2.911
11055TIP3    H133106   0.861   5.492   2.990
11055TIP3    H233107   0.855   5.441   2.847
11056TIP3   OH233108   6.165   7.185   6.478
11056TIP3    H133109   6.174   7.253   6.412
11056TIP3    H233110   6.208   7.108   6.440
11057TIP3   OH233111   7.148   2.815   1.853
11057TIP3    H133112   7.062   2.788   1.884
11057TIP3    H233113   7.199   2.734   1.850
11058TIP3   OH233114   1.283   0.129   1.249
11058TIP3    H133115   1.282   0.105   1.341
11058TIP3    H233116   1.339   0.206   1.244
11059TIP3   OH233117   7.845   7.246   6.758
11059TIP3    H133118   7.824   7.260   6.665
11059TIP3    H233119   7.857   7.151   6.765
11060TIP3   OH233120   3.049   6.818   3.532
11060TIP3    H133121   3.066   6.740   3.584
11060TIP3    H233122   3.049   6.890   3.595
11061TIP3   OH233123   1.310   4.089   3.819
11061TIP3    H133124   1.318   4.044   3.903
11061TIP3    H233125   1.399   4.117   3.798
11062TIP3   OH233126   4.701   2.471   3.109
11062TIP3    H133127   4.650   2.474   3.190
11062TIP3    H233128   4.650   2.414   3.051
11063TIP3   OH233129   2.852   0.864   0.203
11063TIP3    H133130   2.907   0.934   0.169
11063TIP3    H233131   2.763   0.898   0.196
11064TIP3   OH233132   1.376   6.466   1.041
11064TIP3    H133133   1.357   6.394   0.980
11064TIP3    H233134   1.463   6.446   1.074
11065TIP3   OH233135   1.944   0.406   6.848
11065TIP3    H133136   1.874   0.356   6.807
11065TIP3    H233137   2.013   0.409   6.782
11066TIP3   OH233138   4.252   3.757   2.824
11066TIP3    H133139   4.326   3.696   2.821
11066TIP3    H233140   4.184   3.716   2.772
11067TIP3   OH233141   8.361   3.850   0.102
11067TIP3    H133142   8.352   3.928   0.156
11067TIP3    H233143   8.357   3.882   0.012
11068TIP3   OH233144   4.450   1.936   4.622
11068TIP3    H133145   4.509   1.865   4.595
11068TIP3    H233146   4.491   1.971   4.701
11069TIP3   OH233147   6.370   7.759   2.206
11069TIP3    H133148   6.432   7.689   2.225
11069TIP3    H233149   6.419   7.840   2.222
11070TIP3   OH233150   5.602   7.528   1.723
11070TIP3    H133151   5.544   7.604   1.714
11070TIP3    H233152   5.548   7.453   1.697
11071TIP3   OH233153   4.813   6.815   3.142
11071TIP3    H133154   4.827   6.871   3.066
11071TIP3    H233155   4.747   6.752   3.114
11072TIP3   OH233156   2.122   7.019   3.912
11072TIP3    H133157   2.031   7.030   3.937
11072TIP3    H233158   2.172   7.043   3.991
11073TIP3   OH233159   2.394   2.429   6.452
11073TIP3    H133160   2.486   2.417   6.427
11073TIP3    H233161   2.362   2.341   6.471
11074TIP3   OH233162   7.030   4.136   0.116
11074TIP3    H133163   7.125   4.130   0.116
11074TIP3    H233164   7.008   4.175   0.031
11075TIP3   OH233165   4.831   0.729   4.522
11075TIP3    H133166   4.899   0.708   4.586
11075TIP3    H233167   4.763   0.774   4.572
11076TIP3   OH233168   7.202   5.842   2.227
11076TIP3    H133169   7.185   5.937   2.228
11076TIP3    H233170   7.277   5.831   2.286
11077TIP3   OH233171   0.555   1.904   4.507
11077TIP3    H133172   0.554   1.829   4.448
11077TIP3    H233173   0.623   1.883   4.571
11078TIP3   OH233174   4.392   4.027   4.246
11078TIP3    H133175   4.435   4.066   4.170
11078TIP3    H233176   4.452   4.044   4.318
11079TIP3   OH233177   4.992   0.335   4.755
11079TIP3    H133178   5.029   0.392   4.823
11079TIP3    H233179   4.901   0.363   4.747
11080TIP3   OH233180   0.327   5.885   4.136
11080TIP3    H133181   0.239   5.922   4.132
11080TIP3    H233182   0.323   5.819   4.205
11081TIP3   OH233183   4.706   2.375   5.046
11081TIP3    H133184   4.630   2.354   5.099
11081TIP3    H233185   4.674   2.374   4.956
11082TIP3   OH233186   2.776   6.881   5.977
11082TIP3    H133187   2.864   6.844   5.976
11082TIP3    H233188   2.732   6.838   6.050
11083TIP3   OH233189   7.426   0.794   0.861
11083TIP3    H133190   7.421   0.701   0.840
11083TIP3    H233191   7.457   0.796   0.952
11084TIP3   OH233192   7.531   2.261   6.133
11084TIP3    H133193   7.474   2.186   6.117
11084TIP3    H233194   7.597   2.228   6.195
11085TIP3   OH233195   7.722   0.512   1.199
11085TIP3    H133196   7.788   0.445   1.183
11085TIP3    H233197   7.765   0.594   1.176
11086TIP3   OH233198   0.413   3.293   1.970
11086TIP3    H133199   0.424   3.388   1.975
11086TIP3    H233200   0.357   3.271   2.044
11087TIP3   OH233201   4.490   6.898   3.597
11087TIP3    H133202   4.424   6.901   3.527
11087TIP3    H233203   4.450   6.844   3.665
11088TIP3   OH233204   5.743   4.824   0.492
11088TIP3    H133205   5.813   4.769   0.456
11088TIP3    H233206   5.706   4.771   0.563
11089TIP3   OH233207   3.925   5.858   4.055
11089TIP3    H133208   3.990   5.901   4.000
11089TIP3    H233209   3.842   5.873   4.010
11090TIP3   OH233210   0.293   0.922   0.380
11090TIP3    H133211   0.343   0.990   0.336
11090TIP3    H233212   0.353   0.847   0.386
11091TIP3   OH233213   2.669   0.977   2.123
11091TIP3    H133214   2.661   0.888   2.157
11091TIP3    H233215   2.730   1.020   2.183
11092TIP3   OH233216   7.185   6.823   5.119
11092TIP3    H133217   7.251   6.759   5.148
11092TIP3    H233218   7.222   6.908   5.144
11093TIP3   OH233219   4.233   1.874   0.111
11093TIP3    H133220   4.289   1.855   0.186
11093TIP3    H233221   4.153   1.824   0.126
11094TIP3   OH233222   2.902   5.310   2.103
11094TIP3    H133223   2.992   5.333   2.125
11094TIP3    H233224   2.909   5.266   2.018
11095TIP3   OH233225   6.912   0.488   1.431
11095TIP3    H133226   6.939   0.579   1.420
11095TIP3    H233227   6.994   0.439   1.432
11096TIP3   OH233228   6.735   2.778   4.938
11096TIP3    H133229   6.747   2.708   5.002
11096TIP3    H233230   6.801   2.844   4.962
11097TIP3   OH233231   7.072   7.788   5.012
11097TIP3    H133232   6.987   7.832   5.020
11097TIP3    H233233   7.050   7.696   4.993
11098TIP3   OH233234   1.630   5.772   4.003
11098TIP3    H133235   1.596   5.696   4.049
11098TIP3    H233236   1.579   5.776   3.922
11099TIP3   OH233237   4.970   1.273   3.707
11099TIP3    H133238   4.889   1.322   3.695
11099TIP3    H233239   4.950   1.211   3.778
11100TIP3   OH233240   7.371   7.759   6.153
11100TIP3    H133241   7.373   7.725   6.243
11100TIP3    H233242   7.458   7.795   6.139
11101TIP3   OH233243   1.572   4.143   2.371
11101TIP3    H133244   1.590   4.052   2.350
11101TIP3    H233245   1.629   4.193   2.312
11102TIP3   OH233246   0.668   0.834   0.748
11102TIP3    H133247   0.738   0.849   0.812
11102TIP3    H233248   0.714   0.828   0.664
11103TIP3   OH233249   8.052   3.512   0.681
11103TIP3    H133250   7.981   3.546   0.737
11103TIP3    H233251   8.032   3.419   0.671
11104TIP3   OH233252   2.291   3.961   1.498
11104TIP3    H133253   2.300   4.055   1.514
11104TIP3    H233254   2.315   3.919   1.581
11105TIP3   OH233255   5.795   7.273   5.822
11105TIP3    H133256   5.766   7.241   5.907
11105TIP3    H233257   5.781   7.367   5.825
11106TIP3   OH233258   5.925   2.291   1.549
11106TIP3    H133259   5.900   2.199   1.535
11106TIP3    H233260   5.852   2.328   1.598
11107TIP3   OH233261   3.462   5.797   0.802
11107TIP3    H133262   3.462   5.802   0.898
11107TIP3    H233263   3.450   5.888   0.774
11108TIP3   OH233264   5.573   0.381   5.924
11108TIP3    H133265   5.637   0.411   5.989
11108TIP3    H233266   5.502   0.445   5.930
11109TIP3   OH233267   0.361   5.565   4.668
11109TIP3    H133268   0.416   5.630   4.625
11109TIP3    H233269   0.339   5.604   4.752
11110TIP3   OH233270   4.863   4.663   4.610
11110TIP3    H133271   4.924   4.592   4.590
11110TIP3    H233272   4.783   4.617   4.639
11111TIP3   OH233273   3.015   4.288   5.016
11111TIP3    H133274   2.980   4.265   5.102
11111TIP3    H233275   3.104   4.317   5.034
11112TIP3   OH233276   5.317   5.106   2.931
11112TIP3    H133277   5.386   5.161   2.968
11112TIP3    H233278   5.305   5.035   2.994
11113TIP3   OH233279   1.140   7.404   2.861
11113TIP3    H133280   1.163   7.495   2.878
11113TIP3    H233281   1.200   7.377   2.791
11114TIP3   OH233282   3.518   5.854   2.848
11114TIP3    H133283   3.435   5.824   2.813
11114TIP3    H233284   3.495   5.899   2.929
11115TIP3   OH233285   5.890   3.480   0.065
11115TIP3    H133286   5.936   3.463  -0.018
11115TIP3    H233287   5.922   3.411   0.124
11116TIP3   OH233288   0.431   0.271   2.490
11116TIP3    H133289   0.396   0.203   2.547
11116TIP3    H233290   0.355   0.325   2.468
11117TIP3   OH233291   3.519   5.132   5.313
11117TIP3    H133292   3.461   5.192   5.361
11117TIP3    H233293   3.479   5.046   5.325
11118TIP3   OH233294   3.804   0.439   3.225
11118TIP3    H133295   3.755   0.362   3.253
11118TIP3    H233296   3.871   0.450   3.292
11119TIP3   OH233297   0.417   1.310   4.600
11119TIP3    H133298   0.339   1.257   4.585
11119TIP3    H233299   0.393   1.397   4.571
11120TIP3   OH233300   2.014   4.223   3.317
11120TIP3    H133301   1.970   4.206   3.234
11120TIP3    H233302   2.092   4.168   3.314
11121TIP3   OH233303   2.066   7.289   0.517
11121TIP3    H133304   1.991   7.307   0.574
11121TIP3    H233305   2.139   7.334   0.559
11122TIP3   OH233306   7.242   0.601   3.288
11122TIP3    H133307   7.289   0.649   3.220
11122TIP3    H233308   7.271   0.641   3.370
11123TIP3   OH233309   6.001   1.937   3.115
11123TIP3    H133310   6.092   1.910   3.131
11123TIP3    H233311   5.988   2.012   3.174
11124TIP3   OH233312   7.226   0.453   1.063
11124TIP3    H133313   7.318   0.426   1.069
11124TIP3    H233314   7.176   0.377   1.091
11125TIP3   OH233315   7.372   4.333   1.264
11125TIP3    H133316   7.369   4.328   1.360
11125TIP3    H233317   7.320   4.258   1.235
11126TIP3   OH233318   3.819   2.358   2.164
11126TIP3    H133319   3.851   2.298   2.097
11126TIP3    H233320   3.882   2.349   2.236
11127TIP3   OH233321   6.378   5.256   0.747
11127TIP3    H133322   6.313   5.279   0.681
11127TIP3    H233323   6.351   5.302   0.826
11128TIP3   OH233324   6.330   1.619   1.219
11128TIP3    H133325   6.330   1.684   1.290
11128TIP3    H233326   6.306   1.669   1.141
11129TIP3   OH233327   7.582   7.144   1.162
11129TIP3    H133328   7.513   7.129   1.226
11129TIP3    H233329   7.642   7.205   1.205
11130TIP3   OH233330   1.090   1.381   0.231
11130TIP3    H133331   1.180   1.390   0.200
11130TIP3    H233332   1.037   1.377   0.152
11131TIP3   OH233333   7.277   7.090   1.820
11131TIP3    H133334   7.365   7.058   1.839
11131TIP3    H233335   7.253   7.140   1.898
11132TIP3   OH233336   3.038   2.056   2.867
11132TIP3    H133337   2.956   2.098   2.896
11132TIP3    H233338   3.023   2.037   2.774
11133TIP3   OH233339   1.068   5.357   2.524
11133TIP3    H133340   1.083   5.325   2.613
11133TIP3    H233341   1.137   5.318   2.472
11134TIP3   OH233342   3.758   7.913   2.040
11134TIP3    H133343   3.712   7.851   2.097
11134TIP3    H233344   3.849   7.885   2.043
11135TIP3   OH233345   3.896   7.779   2.806
11135TIP3    H133346   3.958   7.721   2.762
11135TIP3    H233347   3.902   7.861   2.759
11136TIP3   OH233348   4.333   0.226   1.117
11136TIP3    H133349   4.384   0.161   1.164
11136TIP3    H233350   4.396   0.295   1.095
11137TIP3   OH233351   8.341   0.924   2.794
11137TIP3    H133352   8.388   0.912   2.711
11137TIP3    H233353   8.388   0.994   2.838
11138TIP3   OH233354   7.114   5.822   1.936
11138TIP3    H133355   7.147   5.843   2.023
11138TIP3    H233356   7.110   5.727   1.934
11139TIP3   OH233357   3.737   2.550   3.657
11139TIP3    H133358   3.817   2.543   3.708
11139TIP3    H233359   3.753   2.498   3.578
11140TIP3   OH233360   1.351   0.038   3.199
11140TIP3    H133361   1.337   0.057   3.292
11140TIP3    H233362   1.264   0.012   3.167
11141TIP3   OH233363   4.666   6.789   2.153
11141TIP3    H133364   4.666   6.843   2.074
11141TIP3    H233365   4.583   6.810   2.196
11142TIP3   OH233366   1.140   4.650   0.878
11142TIP3    H133367   1.147   4.743   0.903
11142TIP3    H233368   1.092   4.651   0.796
11143TIP3   OH233369   4.822   4.183   1.444
11143TIP3    H133370   4.832   4.127   1.521
11143TIP3    H233371   4.836   4.125   1.370
11144TIP3   OH233372   6.673   3.039   6.706
11144TIP3    H133373   6.641   2.959   6.666
11144TIP3    H233374   6.598   3.075   6.753
11145TIP3   OH233375   8.284   3.376   4.685
11145TIP3    H133376   8.322   3.429   4.615
11145TIP3    H233377   8.247   3.439   4.745
11146TIP3   OH233378   1.282   5.715   3.692
11146TIP3    H133379   1.218   5.771   3.648
11146TIP3    H233380   1.229   5.646   3.733
11147TIP3   OH233381   2.948   2.100   2.321
11147TIP3    H133382   2.896   2.112   2.241
11147TIP3    H233383   2.965   2.189   2.352
11148TIP3   OH233384   0.455   6.151   6.016
11148TIP3    H133385   0.434   6.156   5.922
11148TIP3    H233386   0.544   6.116   6.018
11149TIP3   OH233387   5.750   0.767   1.065
11149TIP3    H133388   5.722   0.849   1.104
11149TIP3    H233389   5.817   0.792   1.001
11150TIP3   OH233390   4.865   3.411   1.989
11150TIP3    H133391   4.928   3.477   1.960
11150TIP3    H233392   4.886   3.334   1.937
11151TIP3   OH233393   0.366   2.873   6.528
11151TIP3    H133394   0.420   2.947   6.499
11151TIP3    H233395   0.411   2.796   6.495
11152TIP3   OH233396   1.826   4.915   6.074
11152TIP3    H133397   1.778   4.913   5.991
11152TIP3    H233398   1.760   4.932   6.140
11153TIP3   OH233399   1.840   0.256   3.595
11153TIP3    H133400   1.788   0.288   3.669
11153TIP3    H233401   1.777   0.249   3.523
11154TIP3   OH233402   1.701   4.731   3.975
11154TIP3    H133403   1.638   4.698   3.910
11154TIP3    H233404   1.664   4.705   4.059
11155TIP3   OH233405   1.217   5.209   0.976
11155TIP3    H133406   1.287   5.146   0.962
11155TIP3    H233407   1.261   5.294   0.976
11156TIP3   OH233408   1.114   4.106   6.327
11156TIP3    H133409   1.140   4.017   6.350
11156TIP3    H233410   1.124   4.157   6.407
11157TIP3   OH233411   4.283   0.424   0.086
11157TIP3    H133412   4.192   0.402   0.067
11157TIP3    H233413   4.298   0.506   0.039
11158TIP3   OH233414   7.982   4.761   5.269
11158TIP3    H133415   8.045   4.730   5.334
11158TIP3    H233416   7.967   4.853   5.293
11159TIP3   OH233417   0.008   7.386   3.131
11159TIP3    H133418   0.010   7.329   3.208
11159TIP3    H233419   0.091   7.369   3.086
11160TIP3   OH233420   5.465   5.528   3.571
11160TIP3    H133421   5.419   5.579   3.638
11160TIP3    H233422   5.557   5.549   3.584
11161TIP3   OH233423   6.504   3.254   5.618
11161TIP3    H133424   6.550   3.237   5.700
11161TIP3    H233425   6.421   3.293   5.644
11162TIP3   OH233426   3.122   6.418   3.940
11162TIP3    H133427   3.065   6.430   4.016
11162TIP3    H233428   3.062   6.424   3.865
11163TIP3   OH233429   0.354   4.246   0.456
11163TIP3    H133430   0.423   4.312   0.448
11163TIP3    H233431   0.314   4.265   0.541
11164TIP3   OH233432   0.692   3.779   5.075
11164TIP3    H133433   0.771   3.772   5.021
11164TIP3    H233434   0.622   3.796   5.012
11165TIP3   OH233435   3.598   5.969   1.785
11165TIP3    H133436   3.693   5.979   1.790
11165TIP3    H233437   3.567   5.998   1.872
11166TIP3   OH233438   0.402   4.389   1.740
11166TIP3    H133439   0.348   4.466   1.758
11166TIP3    H233440   0.345   4.314   1.760
11167TIP3   OH233441   1.952   6.511   5.051
11167TIP3    H133442   1.937   6.492   5.143
11167TIP3    H233443   1.999   6.594   5.051
11168TIP3   OH233444   4.179   6.572   4.579
11168TIP3    H133445   4.133   6.646   4.619
11168TIP3    H233446   4.209   6.606   4.494
11169TIP3   OH233447   5.951   6.716   4.445
11169TIP3    H133448   5.926   6.670   4.365
11169TIP3    H233449   6.045   6.731   4.436
11170TIP3   OH233450   1.490   2.603   1.438
11170TIP3    H133451   1.534   2.535   1.386
11170TIP3    H233452   1.456   2.664   1.373
11171TIP3   OH233453   0.651   5.436   0.590
11171TIP3    H133454   0.577   5.479   0.547
11171TIP3    H233455   0.612   5.386   0.661
11172TIP3   OH233456   1.752   3.760   1.592
11172TIP3    H133457   1.733   3.836   1.647
11172TIP3    H233458   1.777   3.797   1.508
11173TIP3   OH233459   5.896   1.774   6.539
11173TIP3    H133460   5.931   1.857   6.573
11173TIP3    H233461   5.947   1.757   6.461
11174TIP3   OH233462   7.610   5.259   2.557
11174TIP3    H133463   7.527   5.213   2.548
11174TIP3    H233464   7.585   5.349   2.577
11175TIP3   OH233465   3.491   7.354   5.758
11175TIP3    H133466   3.474   7.261   5.749
11175TIP3    H233467   3.547   7.361   5.835
11176TIP3   OH233468   6.409   6.293   0.079
11176TIP3    H133469   6.431   6.340   0.159
11176TIP3    H233470   6.359   6.357   0.027
11177TIP3   OH233471   5.071   1.603   5.852
11177TIP3    H133472   5.091   1.643   5.937
11177TIP3    H233473   5.156   1.596   5.808
11178TIP3   OH233474   6.298   4.320   0.714
11178TIP3    H133475   6.211   4.360   0.718
11178TIP3    H233476   6.314   4.288   0.803
11179TIP3   OH233477   5.321   4.640   0.622
11179TIP3    H133478   5.337   4.630   0.715
11179TIP3    H233479   5.279   4.726   0.613
11180TIP3   OH233480   8.083   5.559   5.261
11180TIP3    H133481   8.134   5.518   5.191
11180TIP3    H233482   8.117   5.521   5.342
11181TIP3   OH233483   0.631   7.782   0.534
11181TIP3    H133484   0.706   7.753   0.484
11181TIP3    H233485   0.603   7.705   0.584
11182TIP3   OH233486   3.500   6.515   1.955
11182TIP3    H133487   3.561   6.463   2.008
11182TIP3    H233488   3.438   6.451   1.921
11183TIP3   OH233489   2.523   0.953   4.154
11183TIP3    H133490   2.600   0.990   4.111
11183TIP3    H233491   2.461   0.936   4.082
11184TIP3   OH233492   5.442   1.480   4.910
11184TIP3    H133493   5.467   1.572   4.913
11184TIP3    H233494   5.445   1.450   5.001
11185TIP3   OH233495   0.625   5.289   1.020
11185TIP3    H133496   0.645   5.200   1.049
11185TIP3    H233497   0.705   5.338   1.039
11186TIP3   OH233498   2.555   6.563   3.332
11186TIP3    H133499   2.511   6.602   3.256
11186TIP3    H233500   2.553   6.632   3.398
11187TIP3   OH233501   1.813   1.892   0.692
11187TIP3    H133502   1.866   1.813   0.679
11187TIP3    H233503   1.745   1.887   0.625
11188TIP3   OH233504   0.494   3.562   2.962
11188TIP3    H133505   0.567   3.522   2.916
11188TIP3    H233506   0.416   3.524   2.922
11189TIP3   OH233507   7.035   5.746   3.066
11189TIP3    H133508   7.073   5.696   3.137
11189TIP3    H233509   6.950   5.774   3.098
11190TIP3   OH233510   6.354   3.220   3.500
11190TIP3    H133511   6.414   3.233   3.427
11190TIP3    H233512   6.335   3.308   3.532
11191TIP3   OH233513   5.641   5.634   1.877
11191TIP3    H133514   5.673   5.685   1.951
11191TIP3    H233515   5.685   5.671   1.801
11192TIP3   OH233516   8.417   0.217   0.087
11192TIP3    H133517   8.469   0.271   0.146
11192TIP3    H233518   8.352   0.277   0.050
11193TIP3   OH233519   2.626   7.195   4.151
11193TIP3    H133520   2.539   7.211   4.188
11193TIP3    H233521   2.680   7.268   4.183
11194TIP3   OH233522   8.077   3.323   6.647
11194TIP3    H133523   8.055   3.230   6.648
11194TIP3    H233524   8.096   3.342   6.555
11195TIP3   OH233525   6.299   5.596   6.726
11195TIP3    H133526   6.207   5.614   6.743
11195TIP3    H233527   6.336   5.681   6.703
11196TIP3   OH233528   3.470   1.949   5.849
11196TIP3    H133529   3.560   1.979   5.857
11196TIP3    H233530   3.418   2.029   5.855
11197TIP3   OH233531   4.825   7.516   4.196
11197TIP3    H133532   4.832   7.502   4.101
11197TIP3    H233533   4.915   7.508   4.227
11198TIP3   OH233534   7.773   2.053   6.240
11198TIP3    H133535   7.830   1.999   6.185
11198TIP3    H233536   7.691   2.004   6.245
11199TIP3   OH233537   7.010   0.752   1.424
11199TIP3    H133538   6.981   0.834   1.383
11199TIP3    H233539   7.074   0.716   1.363
11200TIP3   OH233540   0.845   6.567   3.143
11200TIP3    H133541   0.940   6.557   3.135
11200TIP3    H233542   0.833   6.648   3.192
11201TIP3   OH233543   0.499   5.123   1.323
11201TIP3    H133544   0.527   5.152   1.410
11201TIP3    H233545   0.468   5.203   1.280
11202TIP3   OH233546   1.507   7.655   5.952
11202TIP3    H133547   1.433   7.697   5.909
11202TIP3    H233548   1.481   7.648   6.043
11203TIP3   OH233549   5.794   1.589   1.673
11203TIP3    H133550   5.739   1.539   1.613
11203TIP3    H233551   5.798   1.536   1.753
11204TIP3   OH233552   4.902   4.378   3.056
11204TIP3    H133553   4.897   4.349   3.148
11204TIP3    H233554   4.911   4.473   3.062
11205TIP3   OH233555   3.721   1.330   5.589
11205TIP3    H133556   3.704   1.350   5.497
11205TIP3    H233557   3.783   1.256   5.587
11206TIP3   OH233558   3.283   7.543   0.826
11206TIP3    H133559   3.247   7.506   0.746
11206TIP3    H233560   3.369   7.577   0.799
11207TIP3   OH233561   0.814   3.570   4.276
11207TIP3    H133562   0.868   3.565   4.197
11207TIP3    H233563   0.728   3.540   4.248
11208TIP3   OH233564   8.055   6.624   5.950
11208TIP3    H133565   8.073   6.691   5.884
11208TIP3    H233566   8.068   6.668   6.034
11209TIP3   OH233567   3.433   5.166   5.690
11209TIP3    H133568   3.379   5.159   5.768
11209TIP3    H233569   3.518   5.129   5.716
11210TIP3   OH233570   6.724   5.837   0.334
11210TIP3    H133571   6.686   5.922   0.358
11210TIP3    H233572   6.667   5.773   0.377
11211TIP3   OH233573   3.304   5.850   3.911
11211TIP3    H133574   3.382   5.798   3.928
11211TIP3    H233575   3.308   5.869   3.818
11212TIP3   OH233576   1.424   0.844   6.680
11212TIP3    H133577   1.387   0.813   6.763
11212TIP3    H233578   1.491   0.779   6.658
11213TIP3   OH233579   0.278   3.335   4.576
11213TIP3    H133580   0.218   3.261   4.588
11213TIP3    H233581   0.227   3.412   4.603
11214TIP3   OH233582   0.783   0.730   1.464
11214TIP3    H133583   0.850   0.675   1.504
11214TIP3    H233584   0.826   0.766   1.386
11215TIP3   OH233585   3.429   3.635   0.171
11215TIP3    H133586   3.451   3.722   0.138
11215TIP3    H233587   3.454   3.637   0.263
11216TIP3   OH233588   7.025   2.444   3.430
11216TIP3    H133589   6.994   2.533   3.446
11216TIP3    H233590   6.949   2.397   3.396
11217TIP3   OH233591   0.353   2.268   0.551
11217TIP3    H133592   0.275   2.218   0.573
11217TIP3    H233593   0.366   2.326   0.626
11218TIP3   OH233594   4.185   5.424   2.393
11218TIP3    H133595   4.152   5.370   2.464
11218TIP3    H233596   4.267   5.383   2.367
11219TIP3   OH233597   4.525   1.132   3.634
11219TIP3    H133598   4.544   1.156   3.543
11219TIP3    H233599   4.437   1.166   3.649
11220TIP3   OH233600   0.809   2.200   3.051
11220TIP3    H133601   0.779   2.169   2.966
11220TIP3    H233602   0.738   2.179   3.111
11221TIP3   OH233603   4.812   6.451   6.439
11221TIP3    H133604   4.898   6.447   6.481
11221TIP3    H233605   4.751   6.470   6.510
11222TIP3   OH233606   6.603   5.138   6.632
11222TIP3    H133607   6.634   5.051   6.605
11222TIP3    H233608   6.508   5.128   6.638
11223TIP3   OH233609   1.272   7.207   2.399
11223TIP3    H133610   1.211   7.279   2.412
11223TIP3    H233611   1.218   7.128   2.405
11224TIP3   OH233612   4.107   1.592   4.277
11224TIP3    H133613   4.017   1.574   4.250
11224TIP3    H233614   4.119   1.686   4.262
11225TIP3   OH233615   4.013   1.478   4.964
11225TIP3    H133616   3.991   1.489   5.057
11225TIP3    H233617   4.000   1.565   4.926
11226TIP3   OH233618   7.725   6.046   0.274
11226TIP3    H133619   7.662   6.077   0.208
11226TIP3    H233620   7.806   6.034   0.225
11227TIP3   OH233621   7.218   1.140   3.132
11227TIP3    H133622   7.192   1.066   3.076
11227TIP3    H233623   7.233   1.212   3.072
11228TIP3   OH233624   6.057   2.710   6.171
11228TIP3    H133625   5.992   2.781   6.170
11228TIP3    H233626   6.030   2.654   6.243
11229TIP3   OH233627   7.288   2.048   5.746
11229TIP3    H133628   7.204   2.009   5.722
11229TIP3    H233629   7.339   1.976   5.783
11230TIP3   OH233630   8.285   4.413   2.210
11230TIP3    H133631   8.312   4.353   2.280
11230TIP3    H233632   8.366   4.434   2.164
11231TIP3   OH233633  -0.004   3.467   4.068
11231TIP3    H133634   0.017   3.390   4.121
11231TIP3    H233635   0.078   3.516   4.063
11232TIP3   OH233636   6.189   7.592   4.924
11232TIP3    H133637   6.128   7.583   4.850
11232TIP3    H233638   6.201   7.687   4.934
11233TIP3   OH233639   6.897   0.442   0.143
11233TIP3    H133640   6.916   0.398   0.226
11233TIP3    H233641   6.888   0.370   0.081
11234TIP3   OH233642   7.533   5.176   5.939
11234TIP3    H133643   7.493   5.241   5.996
11234TIP3    H233644   7.517   5.209   5.850
11235TIP3   OH233645   2.420   6.983   0.871
11235TIP3    H133646   2.503   6.990   0.823
11235TIP3    H233647   2.367   7.055   0.837
11236TIP3   OH233648   1.797   0.861   1.053
11236TIP3    H133649   1.721   0.808   1.029
11236TIP3    H233650   1.764   0.951   1.056
11237TIP3   OH233651   6.803   6.254   1.733
11237TIP3    H133652   6.713   6.270   1.707
11237TIP3    H233653   6.797   6.193   1.806
11238TIP3   OH233654   4.295   0.387   3.789
11238TIP3    H133655   4.235   0.354   3.722
11238TIP3    H233656   4.240   0.438   3.848
11239TIP3   OH233657   4.274   5.571   5.000
11239TIP3    H133658   4.339   5.513   5.040
11239TIP3    H233659   4.265   5.537   4.911
11240TIP3   OH233660   1.573   4.935   3.140
11240TIP3    H133661   1.562   4.841   3.130
11240TIP3    H233662   1.642   4.944   3.206
11241TIP3   OH233663   4.790   7.822   6.841
11241TIP3    H133664   4.711   7.787   6.800
11241TIP3    H233665   4.816   7.755   6.905
11242TIP3   OH233666   2.833   5.842   5.526
11242TIP3    H133667   2.822   5.935   5.508
11242TIP3    H233668   2.896   5.812   5.461
11243TIP3   OH233669   2.192   4.060   5.356
11243TIP3    H133670   2.172   4.041   5.447
11243TIP3    H233671   2.156   4.148   5.341
11244TIP3   OH233672   8.131   5.725   0.666
11244TIP3    H133673   8.058   5.664   0.664
11244TIP3    H233674   8.209   5.671   0.654
11245TIP3   OH233675   3.004   7.722   3.947
11245TIP3    H133676   3.019   7.812   3.977
11245TIP3    H233677   3.009   7.727   3.852
11246TIP3   OH233678   3.442   1.053   4.087
11246TIP3    H133679   3.388   1.006   4.024
11246TIP3    H233680   3.380   1.087   4.151
11247TIP3   OH233681   7.482   3.581   5.939
11247TIP3    H133682   7.440   3.535   6.011
11247TIP3    H233683   7.461   3.673   5.954
11248TIP3   OH233684   0.735   7.602   5.966
11248TIP3    H133685   0.765   7.681   5.921
11248TIP3    H233686   0.757   7.531   5.906
11249TIP3   OH233687   0.902   4.733   6.753
11249TIP3    H133688   0.873   4.714   6.842
11249TIP3    H233689   0.977   4.675   6.740
11250TIP3   OH233690   2.870   0.088   4.912
11250TIP3    H133691   2.811   0.026   4.956
11250TIP3    H233692   2.955   0.044   4.911
11251TIP3   OH233693   7.580   5.585   0.382
11251TIP3    H133694   7.580   5.492   0.360
11251TIP3    H233695   7.598   5.630   0.300
11252TIP3   OH233696   3.993   7.935   0.068
11252TIP3    H133697   3.952   7.850   0.049
11252TIP3    H233698   4.045   7.919   0.147
11253TIP3   OH233699   5.294   6.077   0.451
11253TIP3    H133700   5.295   6.100   0.544
11253TIP3    H233701   5.320   6.158   0.406
11254TIP3   OH233702   0.762   1.734   1.499
11254TIP3    H133703   0.696   1.783   1.548
11254TIP3    H233704   0.767   1.650   1.544
11255TIP3   OH233705   3.713   2.014   0.318
11255TIP3    H133706   3.742   1.936   0.269
11255TIP3    H233707   3.785   2.031   0.379
11256TIP3   OH233708   5.289   5.012   6.432
11256TIP3    H133709   5.362   5.073   6.438
11256TIP3    H233710   5.215   5.066   6.404
11257TIP3   OH233711   2.542   2.238   3.066
11257TIP3    H133712   2.580   2.324   3.045
11257TIP3    H233713   2.558   2.185   2.987
11258TIP3   OH233714   4.649   3.939   0.360
11258TIP3    H133715   4.733   3.946   0.317
11258TIP3    H233716   4.620   3.849   0.342
11259TIP3   OH233717   5.574   0.815   2.498
11259TIP3    H133718   5.567   0.772   2.412
11259TIP3    H233719   5.587   0.743   2.559
11260TIP3   OH233720   6.758   4.994   4.510
11260TIP3    H133721   6.664   5.008   4.519
11260TIP3    H233722   6.767   4.898   4.508
11261TIP3   OH233723   7.596   7.806   4.098
11261TIP3    H133724   7.653   7.729   4.098
11261TIP3    H233725   7.599   7.839   4.188
11262TIP3   OH233726   6.108   1.011   4.022
11262TIP3    H133727   6.042   0.963   4.072
11262TIP3    H233728   6.085   1.103   4.036
11263TIP3   OH233729   7.383   7.411   1.807
11263TIP3    H133730   7.361   7.329   1.763
11263TIP3    H233731   7.465   7.391   1.854
11264TIP3   OH233732   5.704   4.995   3.838
11264TIP3    H133733   5.698   4.900   3.843
11264TIP3    H233734   5.627   5.020   3.786
11265TIP3   OH233735   4.327   0.234   2.256
11265TIP3    H133736   4.249   0.252   2.307
11265TIP3    H233737   4.294   0.199   2.173
11266TIP3   OH233738   0.202   4.568   0.466
11266TIP3    H133739   0.218   4.615   0.384
11266TIP3    H233740   0.248   4.619   0.532
11267TIP3   OH233741   3.723   5.573   2.661
11267TIP3    H133742   3.712   5.525   2.579
11267TIP3    H233743   3.790   5.524   2.709
11268TIP3   OH233744   3.409   3.041   4.778
11268TIP3    H133745   3.341   3.083   4.831
11268TIP3    H233746   3.491   3.061   4.823
11269TIP3   OH233747   7.952   6.299   4.196
11269TIP3    H133748   8.046   6.294   4.182
11269TIP3    H233749   7.929   6.389   4.174
11270TIP3   OH233750   5.174   1.150   1.546
11270TIP3    H133751   5.263   1.164   1.577
11270TIP3    H233752   5.152   1.062   1.576
11271TIP3   OH233753   8.147   1.128   1.249
11271TIP3    H133754   8.056   1.114   1.275
11271TIP3    H233755   8.172   1.211   1.290
11272TIP3   OH233756   2.618   5.572   5.139
11272TIP3    H133757   2.660   5.488   5.122
11272TIP3    H233758   2.638   5.626   5.063
11273TIP3   OH233759   4.203   0.955   0.578
11273TIP3    H133760   4.221   0.936   0.485
11273TIP3    H233761   4.283   0.998   0.609
11274TIP3   OH233762   4.852   1.186   5.363
11274TIP3    H133763   4.861   1.145   5.449
11274TIP3    H233764   4.940   1.185   5.327
11275TIP3   OH233765   1.629   0.362   3.421
11275TIP3    H133766   1.544   0.356   3.375
11275TIP3    H233767   1.639   0.455   3.440
11276TIP3   OH233768   4.719   4.474   6.744
11276TIP3    H133769   4.669   4.443   6.820
11276TIP3    H233770   4.654   4.485   6.675
11277TIP3   OH233771   0.535   3.087   0.450
11277TIP3    H133772   0.621   3.046   0.446
11277TIP3    H233773   0.549   3.167   0.501
11278TIP3   OH233774   3.150   0.038   4.602
11278TIP3    H133775   3.169   0.128   4.576
11278TIP3    H233776   3.081   0.010   4.542
11279TIP3   OH233777   6.003   0.166   4.653
11279TIP3    H133778   5.950   0.168   4.573
11279TIP3    H233779   5.949   0.210   4.719
11280TIP3   OH233780   7.227   3.794   0.600
11280TIP3    H133781   7.225   3.884   0.634
11280TIP3    H233782   7.246   3.805   0.507
11281TIP3   OH233783   0.140   1.509   1.673
11281TIP3    H133784   0.172   1.443   1.735
11281TIP3    H233785   0.090   1.459   1.609
11282TIP3   OH233786   7.524   4.226   1.696
11282TIP3    H133787   7.446   4.232   1.642
11282TIP3    H233788   7.494   4.248   1.785
11283TIP3   OH233789   2.283   2.045   0.099
11283TIP3    H133790   2.245   2.106   0.036
11283TIP3    H233791   2.213   1.982   0.117
11284TIP3   OH233792   6.037   3.526   1.002
11284TIP3    H133793   5.964   3.562   0.953
11284TIP3    H233794   6.115   3.567   0.965
11285TIP3   OH233795   2.786   0.349   6.039
11285TIP3    H133796   2.777   0.444   6.033
11285TIP3    H233797   2.845   0.335   6.114
11286TIP3   OH233798   4.840   2.337   3.458
11286TIP3    H133799   4.835   2.377   3.545
11286TIP3    H233800   4.759   2.363   3.415
11287TIP3   OH233801   0.916   5.208   2.975
11287TIP3    H133802   0.972   5.172   3.044
11287TIP3    H233803   0.894   5.296   3.005
11288TIP3   OH233804   2.776   2.871   5.072
11288TIP3    H133805   2.806   2.821   5.148
11288TIP3    H233806   2.682   2.882   5.086
11289TIP3   OH233807   7.942   6.600   2.255
11289TIP3    H133808   7.969   6.562   2.172
11289TIP3    H233809   8.020   6.597   2.310
11290TIP3   OH233810   7.833   5.722   3.375
11290TIP3    H133811   7.837   5.721   3.280
11290TIP3    H233812   7.785   5.642   3.398
11291TIP3   OH233813   0.152   5.586   5.061
11291TIP3    H133814   0.216   5.585   5.132
11291TIP3    H233815   0.107   5.670   5.071
11292TIP3   OH233816   6.790   6.628   2.395
11292TIP3    H133817   6.774   6.722   2.395
11292TIP3    H233818   6.794   6.604   2.303
11293TIP3   OH233819   0.069   6.947   2.980
11293TIP3    H133820   0.152   6.907   2.956
11293TIP3    H233821   0.004   6.878   2.968
11294TIP3   OH233822   0.666   2.230   3.954
11294TIP3    H133823   0.737   2.218   3.891
11294TIP3    H233824   0.710   2.244   4.038
11295TIP3   OH233825   0.893   7.111   3.782
11295TIP3    H133826   0.806   7.082   3.811
11295TIP3    H233827   0.877   7.150   3.695
11296TIP3   OH233828   5.631   6.555   6.727
11296TIP3    H133829   5.547   6.579   6.687
11296TIP3    H233830   5.651   6.628   6.785
11297TIP3   OH233831   6.258   2.176   6.781
11297TIP3    H133832   6.258   2.255   6.726
11297TIP3    H233833   6.252   2.104   6.719
11298TIP3   OH233834   5.171   5.924   4.908
11298TIP3    H133835   5.239   5.857   4.899
11298TIP3    H233836   5.172   5.948   5.001
11299TIP3   OH233837   2.219   3.704   3.844
11299TIP3    H133838   2.254   3.793   3.847
11299TIP3    H233839   2.287   3.651   3.887
11300TIP3   OH233840   1.873   4.752   0.579
11300TIP3    H133841   1.858   4.672   0.528
11300TIP3    H233842   1.938   4.727   0.644
11301TIP3   OH233843   8.195   7.287   1.104
11301TIP3    H133844   8.209   7.356   1.039
11301TIP3    H233845   8.280   7.278   1.147
11302TIP3   OH233846   7.087   0.296   0.334
11302TIP3    H133847   7.039   0.222   0.296
11302TIP3    H233848   7.171   0.259   0.360
11303TIP3   OH233849   4.320   7.046   0.208
11303TIP3    H133850   4.365   7.066   0.290
11303TIP3    H233851   4.327   6.951   0.200
11304TIP3   OH233852   3.438   7.220   6.528
11304TIP3    H133853   3.476   7.134   6.510
11304TIP3    H233854   3.350   7.215   6.493
11305TIP3   OH233855   7.943   2.034   2.473
11305TIP3    H133856   7.961   2.127   2.461
11305TIP3    H233857   7.869   2.016   2.414
11306TIP3   OH233858   1.171   2.471   4.885
11306TIP3    H133859   1.263   2.482   4.860
11306TIP3    H233860   1.127   2.549   4.853
11307TIP3   OH233861   8.296   0.453   3.541
11307TIP3    H133862   8.241   0.462   3.463
11307TIP3    H233863   8.341   0.537   3.548
11308TIP3   OH233864   0.892   3.297   0.453
11308TIP3    H133865   0.975   3.333   0.423
11308TIP3    H233866   0.890   3.316   0.547
11309TIP3   OH233867   4.333   7.651   2.383
11309TIP3    H133868   4.376   7.626   2.465
11309TIP3    H233869   4.404   7.654   2.319
11310TIP3   OH233870   6.337   2.614   3.156
11310TIP3    H133871   6.348   2.526   3.190
11310TIP3    H233872   6.248   2.639   3.181
11311TIP3   OH233873   2.521   6.184   2.503
11311TIP3    H133874   2.438   6.201   2.460
11311TIP3    H233875   2.503   6.111   2.563
11312TIP3   OH233876   5.110   7.698   2.805
11312TIP3    H133877   5.129   7.666   2.717
11312TIP3    H233878   5.189   7.680   2.856
11313TIP3   OH233879   8.146   2.999   0.594
11313TIP3    H133880   8.201   3.002   0.672
11313TIP3    H233881   8.063   2.962   0.624
11314TIP3   OH233882   3.398   1.610   5.063
11314TIP3    H133883   3.372   1.565   5.144
11314TIP3    H233884   3.400   1.541   4.997
11315TIP3   OH233885   2.445   1.492   1.785
11315TIP3    H133886   2.526   1.442   1.781
11315TIP3    H233887   2.380   1.430   1.818
11316TIP3   OH233888   7.357   5.285   6.495
11316TIP3    H133889   7.352   5.258   6.586
11316TIP3    H233890   7.359   5.381   6.499
11317TIP3   OH233891   6.791   4.214   6.424
11317TIP3    H133892   6.784   4.214   6.328
11317TIP3    H233893   6.753   4.297   6.451
11318TIP3   OH233894   8.373   4.536   1.615
11318TIP3    H133895   8.364   4.479   1.539
11318TIP3    H233896   8.388   4.476   1.688
11319TIP3   OH233897   0.574   5.722   3.122
11319TIP3    H133898   0.644   5.700   3.183
11319TIP3    H233899   0.496   5.728   3.176
11320TIP3   OH233900   0.932   7.184   0.078
11320TIP3    H133901   0.915   7.276   0.060
11320TIP3    H233902   0.967   7.182   0.167
11321TIP3   OH233903   3.724   6.996   0.446
11321TIP3    H133904   3.813   6.969   0.422
11321TIP3    H233905   3.737   7.067   0.508
11322TIP3   OH233906   7.388   6.499   5.540
11322TIP3    H133907   7.474   6.493   5.498
11322TIP3    H233908   7.404   6.471   5.630
11323TIP3   OH233909   2.002   2.580   6.690
11323TIP3    H133910   1.991   2.674   6.677
11323TIP3    H233911   1.930   2.555   6.748
11324TIP3   OH233912   3.219   5.291   0.419
11324TIP3    H133913   3.256   5.375   0.391
11324TIP3    H233914   3.257   5.277   0.506
11325TIP3   OH233915   0.032   5.121   2.355
11325TIP3    H133916  -0.051   5.078   2.334
11325TIP3    H233917   0.040   5.192   2.292
11326TIP3   OH233918   3.509   1.588   4.727
11326TIP3    H133919   3.576   1.576   4.795
11326TIP3    H233920   3.426   1.575   4.772
11327TIP3   OH233921   1.397   7.677   6.466
11327TIP3    H133922   1.362   7.713   6.548
11327TIP3    H233923   1.444   7.597   6.494
11328TIP3   OH233924   5.074   6.835   6.458
11328TIP3    H133925   5.059   6.919   6.415
11328TIP3    H233926   5.115   6.780   6.391
11329TIP3   OH233927   6.092   5.895   0.325
11329TIP3    H133928   6.012   5.872   0.276
11329TIP3    H233929   6.093   5.991   0.324
11330TIP3   OH233930   3.097   3.712   0.313
11330TIP3    H133931   3.154   3.748   0.245
11330TIP3    H233932   3.127   3.754   0.394
11331TIP3   OH233933   5.627   4.387   0.461
11331TIP3    H133934   5.639   4.470   0.508
11331TIP3    H233935   5.546   4.351   0.497
11332TIP3   OH233936   6.100   5.217   6.487
11332TIP3    H133937   6.010   5.249   6.487
11332TIP3    H233938   6.092   5.123   6.503
11333TIP3   OH233939   4.382   1.783   0.701
11333TIP3    H133940   4.334   1.791   0.784
11333TIP3    H233941   4.314   1.768   0.635
11334TIP3   OH233942   3.277   5.207   2.372
11334TIP3    H133943   3.222   5.277   2.335
11334TIP3    H233944   3.365   5.226   2.340
11335TIP3   OH233945   7.302   3.034   2.651
11335TIP3    H133946   7.305   2.954   2.598
11335TIP3    H233947   7.328   3.104   2.592
11336TIP3   OH233948   6.126   4.750   6.772
11336TIP3    H133949   6.105   4.690   6.844
11336TIP3    H233950   6.099   4.702   6.693
11337TIP3   OH233951   7.749   1.859   5.097
11337TIP3    H133952   7.746   1.933   5.158
11337TIP3    H233953   7.702   1.789   5.142
11338TIP3   OH233954   7.919   5.785   0.347
11338TIP3    H133955   7.850   5.782   0.281
11338TIP3    H233956   7.962   5.700   0.341
11339TIP3   OH233957   5.035   6.282   6.221
11339TIP3    H133958   4.976   6.210   6.199
11339TIP3    H233959   4.994   6.359   6.182
11340TIP3   OH233960   3.276   7.055   6.229
11340TIP3    H133961   3.268   6.960   6.229
11340TIP3    H233962   3.368   7.072   6.212
11341TIP3   OH233963   5.782   2.190   6.304
11341TIP3    H133964   5.834   2.263   6.270
11341TIP3    H233965   5.843   2.117   6.308
11342TIP3   OH233966   6.304   7.775   2.951
11342TIP3    H133967   6.270   7.861   2.924
11342TIP3    H233968   6.240   7.744   3.015
11343TIP3   OH233969   0.204   5.833   2.702
11343TIP3    H133970   0.225   5.821   2.795
11343TIP3    H233971   0.127   5.778   2.688
11344TIP3   OH233972   8.349   4.220   6.397
11344TIP3    H133973   8.412   4.292   6.388
11344TIP3    H233974   8.294   4.226   6.319
11345TIP3   OH233975   4.807   0.650   0.767
11345TIP3    H133976   4.868   0.722   0.780
11345TIP3    H233977   4.824   0.619   0.678
11346TIP3   OH233978   2.959   2.409   0.061
11346TIP3    H133979   2.890   2.345   0.082
11346TIP3    H233980   2.919   2.467  -0.003
11347TIP3   OH233981   8.134   0.648   1.106
11347TIP3    H133982   8.168   0.571   1.061
11347TIP3    H233983   8.189   0.720   1.075
11348TIP3   OH233984   6.998   5.770   0.365
11348TIP3    H133985   7.035   5.690   0.326
11348TIP3    H233986   6.905   5.752   0.371
11349TIP3   OH233987   7.674   5.580   1.235
11349TIP3    H133988   7.690   5.485   1.234
11349TIP3    H233989   7.732   5.613   1.302
11350TIP3   OH233990   6.009   6.034   1.581
11350TIP3    H133991   5.932   5.997   1.538
11350TIP3    H233992   6.031   6.111   1.530
11351TIP3   OH233993   6.280   4.391   3.539
11351TIP3    H133994   6.223   4.411   3.614
11351TIP3    H233995   6.259   4.459   3.475
11352TIP3   OH233996   1.541   3.975   5.448
11352TIP3    H133997   1.635   3.963   5.436
11352TIP3    H233998   1.510   4.004   5.362
11353TIP3   OH233999   1.111   2.780   1.420
11353TIP3    H134000   1.080   2.701   1.375
11353TIP3    H234001   1.032   2.822   1.452
11354TIP3   OH234002   0.875   0.498   0.438
11354TIP3    H134003   0.965   0.503   0.471
11354TIP3    H234004   0.879   0.532   0.349
11355TIP3   OH234005   2.113   2.074   6.017
11355TIP3    H134006   2.035   2.070   6.073
11355TIP3    H234007   2.185   2.048   6.074
11356TIP3   OH234008   6.824   4.865   3.361
11356TIP3    H134009   6.857   4.782   3.327
11356TIP3    H234010   6.825   4.855   3.456
11357TIP3   OH234011   7.229   4.443   5.290
11357TIP3    H134012   7.142   4.480   5.272
11357TIP3    H234013   7.248   4.469   5.380
11358TIP3   OH234014   8.200   5.856   0.904
11358TIP3    H134015   8.162   5.787   0.850
11358TIP3    H234016   8.282   5.878   0.860
11359TIP3   OH234017   6.412   5.343   5.142
11359TIP3    H134018   6.317   5.338   5.132
11359TIP3    H234019   6.425   5.358   5.236
11360TIP3   OH234020   7.798   1.597   2.293
11360TIP3    H134021   7.830   1.598   2.203
11360TIP3    H234022   7.874   1.572   2.346
11361TIP3   OH234023   6.027   5.360   1.283
11361TIP3    H134024   6.063   5.336   1.198
11361TIP3    H234025   6.104   5.374   1.338
11362TIP3   OH234026   4.601   6.599   5.512
11362TIP3    H134027   4.617   6.552   5.431
11362TIP3    H234028   4.684   6.596   5.559
11363TIP3   OH234029   0.940   7.656   1.704
11363TIP3    H134030   0.969   7.685   1.791
11363TIP3    H234031   1.002   7.696   1.643
11364TIP3   OH234032   4.519   5.991   5.176
11364TIP3    H134033   4.463   5.914   5.170
11364TIP3    H234034   4.509   6.022   5.266
11365TIP3   OH234035   5.655   6.185   5.076
11365TIP3    H134036   5.687   6.263   5.030
11365TIP3    H234037   5.701   6.186   5.160
11366TIP3   OH234038   2.828   5.767   3.212
11366TIP3    H134039   2.861   5.823   3.142
11366TIP3    H234040   2.896   5.701   3.224
11367TIP3   OH234041   5.897   5.043   2.008
11367TIP3    H134042   5.870   5.134   1.999
11367TIP3    H234043   5.968   5.045   2.072
11368TIP3   OH234044   0.274   1.308   1.857
11368TIP3    H134045   0.360   1.349   1.847
11368TIP3    H234046   0.259   1.305   1.951
11369TIP3   OH234047   7.759   2.057   4.517
11369TIP3    H134048   7.687   2.100   4.564
11369TIP3    H234049   7.791   1.991   4.578
11370TIP3   OH234050   5.287   2.497   5.171
11370TIP3    H134051   5.316   2.473   5.259
11370TIP3    H234052   5.254   2.416   5.133
11371TIP3   OH234053   4.574   1.892   1.574
11371TIP3    H134054   4.532   1.970   1.538
11371TIP3    H234055   4.661   1.922   1.602
11372TIP3   OH234056   1.641   5.966   6.472
11372TIP3    H134057   1.696   6.020   6.416
11372TIP3    H234058   1.663   5.994   6.561
11373TIP3   OH234059   2.626   7.738   6.542
11373TIP3    H134060   2.648   7.673   6.475
11373TIP3    H234061   2.644   7.695   6.625
11374TIP3   OH234062   4.358   6.453   3.391
11374TIP3    H134063   4.416   6.376   3.396
11374TIP3    H234064   4.275   6.418   3.357
11375TIP3   OH234065   3.871   5.201   2.247
11375TIP3    H134066   3.814   5.175   2.174
11375TIP3    H234067   3.892   5.119   2.291
11376TIP3   OH234068   0.490   4.237   4.695
11376TIP3    H134069   0.407   4.249   4.741
11376TIP3    H234070   0.556   4.236   4.764
11377TIP3   OH234071   5.289   5.754   0.407
11377TIP3    H134072   5.263   5.845   0.412
11377TIP3    H234073   5.221   5.706   0.455
11378TIP3   OH234074   2.368   5.679   3.103
11378TIP3    H134075   2.386   5.762   3.147
11378TIP3    H234076   2.295   5.642   3.152
11379TIP3   OH234077   0.690   6.603   1.451
11379TIP3    H134078   0.756   6.643   1.508
11379TIP3    H234079   0.666   6.522   1.496
11380TIP3   OH234080   2.942   0.313   4.774
11380TIP3    H134081   2.897   0.249   4.829
11380TIP3    H234082   2.871   0.358   4.727
11381TIP3   OH234083   2.392   2.691   4.767
11381TIP3    H134084   2.335   2.732   4.701
11381TIP3    H234085   2.459   2.646   4.716
11382TIP3   OH234086   7.041   7.051   2.784
11382TIP3    H134087   7.017   6.959   2.771
11382TIP3    H234088   7.129   7.047   2.821
11383TIP3   OH234089   7.453   1.550   3.196
11383TIP3    H134090   7.364   1.559   3.162
11383TIP3    H234091   7.478   1.460   3.176
11384TIP3   OH234092   0.640   4.446   3.717
11384TIP3    H134093   0.642   4.483   3.629
11384TIP3    H234094   0.714   4.486   3.762
11385TIP3   OH234095   3.738   3.966   4.627
11385TIP3    H134096   3.653   3.994   4.662
11385TIP3    H234097   3.729   3.971   4.532
11386TIP3   OH234098   7.339   0.771   3.098
11386TIP3    H134099   7.268   0.804   3.044
11386TIP3    H234100   7.403   0.843   3.099
11387TIP3   OH234101   1.992   6.158   2.217
11387TIP3    H134102   1.984   6.242   2.262
11387TIP3    H234103   1.902   6.135   2.193
11388TIP3   OH234104   0.496   3.534   0.856
11388TIP3    H134105   0.512   3.441   0.841
11388TIP3    H234106   0.435   3.560   0.787
11389TIP3   OH234107   7.949   4.063   5.596
11389TIP3    H134108   7.916   4.000   5.532
11389TIP3    H234109   7.901   4.144   5.577
11390TIP3   OH234110   1.981   1.605   3.933
11390TIP3    H134111   1.965   1.511   3.941
11390TIP3    H234112   1.985   1.636   4.024
11391TIP3   OH234113   6.790   5.626   4.814
11391TIP3    H134114   6.874   5.655   4.778
11391TIP3    H234115   6.738   5.706   4.820
11392TIP3   OH234116   7.801   3.414   2.279
11392TIP3    H134117   7.876   3.376   2.232
11392TIP3    H234118   7.821   3.507   2.283
11393TIP3   OH234119   7.308   6.605   4.671
11393TIP3    H134120   7.294   6.551   4.749
11393TIP3    H234121   7.391   6.573   4.634
11394TIP3   OH234122   5.575   6.953   3.758
11394TIP3    H134123   5.564   6.858   3.749
11394TIP3    H234124   5.631   6.978   3.685
11395TIP3   OH234125   0.527   7.753   0.257
11395TIP3    H134126   0.539   7.745   0.352
11395TIP3    H234127   0.478   7.834   0.246
11396TIP3   OH234128   1.913   0.771   0.060
11396TIP3    H134129   1.864   0.843   0.099
11396TIP3    H234130   1.930   0.798  -0.030
11397TIP3   OH234131   4.234   4.721   6.433
11397TIP3    H134132   4.280   4.653   6.482
11397TIP3    H234133   4.141   4.699   6.443
11398TIP3   OH234134   8.142   5.037   2.336
11398TIP3    H134135   8.192   4.957   2.351
11398TIP3    H234136   8.063   5.007   2.290
11399TIP3   OH234137   1.750   2.872   5.150
11399TIP3    H134138   1.760   2.934   5.221
11399TIP3    H234139   1.795   2.793   5.180
11400TIP3   OH234140   1.455   3.430   2.198
11400TIP3    H134141   1.509   3.508   2.183
11400TIP3    H234142   1.450   3.387   2.112
11401TIP3   OH234143   4.080   6.777   4.375
11401TIP3    H134144   4.128   6.814   4.449
11401TIP3    H234145   4.147   6.764   4.307
11402TIP3   OH234146   3.481   2.110   2.801
11402TIP3    H134147   3.572   2.116   2.772
11402TIP3    H234148   3.430   2.104   2.721
11403TIP3   OH234149   2.233   5.368   5.576
11403TIP3    H134150   2.282   5.423   5.515
11403TIP3    H234151   2.209   5.426   5.648
11404TIP3   OH234152   1.078   7.536   4.216
11404TIP3    H134153   1.126   7.458   4.188
11404TIP3    H234154   1.040   7.572   4.136
11405TIP3   OH234155   2.036   0.026   1.309
11405TIP3    H134156   2.088  -0.045   1.347
11405TIP3    H234157   2.101   0.092   1.283
11406TIP3   OH234158   0.360   0.310   2.938
11406TIP3    H134159   0.414   0.382   2.972
11406TIP3    H234160   0.302   0.352   2.874
11407TIP3   OH234161   5.375   1.894   6.807
11407TIP3    H134162   5.403   1.951   6.879
11407TIP3    H234163   5.454   1.881   6.755
11408TIP3   OH234164   4.708   6.079   3.044
11408TIP3    H134165   4.676   5.990   3.058
11408TIP3    H234166   4.634   6.135   3.067
11409TIP3   OH234167   8.223   3.714   4.605
11409TIP3    H134168   8.263   3.728   4.691
11409TIP3    H234169   8.290   3.669   4.554
11410TIP3   OH234170   4.164   5.447   3.556
11410TIP3    H134171   4.231   5.399   3.508
11410TIP3    H234172   4.110   5.487   3.487
11411TIP3   OH234173   6.154   1.478   0.197
11411TIP3    H134174   6.163   1.416   0.269
11411TIP3    H234175   6.149   1.564   0.238
11412TIP3   OH234176   0.515   2.457   5.921
11412TIP3    H134177   0.609   2.464   5.939
11412TIP3    H234178   0.477   2.430   6.005
11413TIP3   OH234179   2.751   2.700   6.888
11413TIP3    H134180   2.755   2.781   6.838
11413TIP3    H234181   2.780   2.632   6.826
11414TIP3   OH234182   5.356   3.612   0.951
11414TIP3    H134183   5.392   3.701   0.949
11414TIP3    H234184   5.411   3.562   0.891
11415TIP3   OH234185   3.717   5.096   4.886
11415TIP3    H134186   3.725   5.080   4.792
11415TIP3    H234187   3.771   5.174   4.902
11416TIP3   OH234188   4.666   0.301   0.751
11416TIP3    H134189   4.726   0.337   0.816
11416TIP3    H234190   4.703   0.215   0.729
11417TIP3   OH234191   3.696   3.505   5.258
11417TIP3    H134192   3.741   3.575   5.212
11417TIP3    H234193   3.752   3.486   5.334
11418TIP3   OH234194   7.199   1.060   2.009
11418TIP3    H134195   7.277   1.046   1.956
11418TIP3    H234196   7.150   1.128   1.963
11419TIP3   OH234197   4.779   2.454   3.709
11419TIP3    H134198   4.827   2.437   3.790
11419TIP3    H234199   4.692   2.479   3.738
11420TIP3   OH234200   7.152   7.033   4.417
11420TIP3    H134201   7.214   6.965   4.442
11420TIP3    H234202   7.184   7.112   4.461
11421TIP3   OH234203   7.043   7.295   4.605
11421TIP3    H134204   7.081   7.325   4.522
11421TIP3    H234205   6.973   7.235   4.580
11422TIP3   OH234206   0.783   4.703   6.403
11422TIP3    H134207   0.760   4.638   6.469
11422TIP3    H234208   0.757   4.663   6.320
11423TIP3   OH234209   1.288   4.027   0.659
11423TIP3    H134210   1.382   4.013   0.648
11423TIP3    H234211   1.266   3.978   0.738
11424TIP3   OH234212   6.923   0.841   5.522
11424TIP3    H134213   6.923   0.935   5.537
11424TIP3    H234214   6.878   0.830   5.439
11425TIP3   OH234215   1.768   5.953   2.221
11425TIP3    H134216   1.831   5.904   2.274
11425TIP3    H234217   1.692   5.894   2.215
11426TIP3   OH234218   0.402   2.495   4.729
11426TIP3    H134219   0.478   2.552   4.718
11426TIP3    H234220   0.426   2.415   4.682
11427TIP3   OH234221   0.687   6.678   1.890
11427TIP3    H134222   0.631   6.691   1.967
11427TIP3    H234223   0.774   6.704   1.920
11428TIP3   OH234224   0.697   5.796   4.245
11428TIP3    H134225   0.783   5.797   4.287
11428TIP3    H234226   0.642   5.852   4.301
11429TIP3   OH234227   1.368   1.551   1.411
11429TIP3    H134228   1.448   1.586   1.448
11429TIP3    H234229   1.337   1.619   1.351
11430TIP3   OH234230   6.766   5.342   2.297
11430TIP3    H134231   6.859   5.333   2.317
11430TIP3    H234232   6.764   5.377   2.208
11431TIP3   OH234233   6.726   5.555   6.651
11431TIP3    H134234   6.709   5.615   6.578
11431TIP3    H234235   6.652   5.495   6.650
11432TIP3   OH234236   4.897   5.171   1.396
11432TIP3    H134237   4.826   5.236   1.385
11432TIP3    H234238   4.891   5.116   1.318
11433TIP3   OH234239   3.451   0.739   5.842
11433TIP3    H134240   3.443   0.644   5.832
11433TIP3    H234241   3.392   0.775   5.776
11434TIP3   OH234242   7.750   6.784   0.234
11434TIP3    H134243   7.823   6.805   0.176
11434TIP3    H234244   7.719   6.699   0.203
11435TIP3   OH234245   8.169   4.861   2.008
11435TIP3    H134246   8.141   4.771   2.026
11435TIP3    H234247   8.125   4.913   2.075
11436TIP3   OH234248   6.765   7.843   1.765
11436TIP3    H134249   6.731   7.822   1.678
11436TIP3    H234250   6.814   7.765   1.790
11437TIP3   OH234251   7.844   4.538   4.025
11437TIP3    H134252   7.830   4.520   4.118
11437TIP3    H234253   7.866   4.631   4.022
11438TIP3   OH234254   5.885   6.722   2.520
11438TIP3    H134255   5.926   6.743   2.436
11438TIP3    H234256   5.831   6.798   2.540
11439TIP3   OH234257   8.317   3.985   3.408
11439TIP3    H134258   8.339   3.920   3.341
11439TIP3    H234259   8.259   3.939   3.468
11440TIP3   OH234260   6.601   3.338   2.154
11440TIP3    H134261   6.683   3.317   2.198
11440TIP3    H234262   6.623   3.341   2.061
11441TIP3   OH234263   3.263   3.287   4.955
11441TIP3    H134264   3.207   3.365   4.956
11441TIP3    H234265   3.350   3.321   4.937
11442TIP3   OH234266   6.632   7.206   5.244
11442TIP3    H134267   6.620   7.246   5.331
11442TIP3    H234268   6.597   7.272   5.183
11443TIP3   OH234269   5.237   3.329   2.830
11443TIP3    H134270   5.241   3.344   2.924
11443TIP3    H234271   5.255   3.415   2.791
11444TIP3   OH234272   6.605   3.356   3.040
11444TIP3    H134273   6.698   3.374   3.049
11444TIP3    H234274   6.592   3.339   2.947
11445TIP3   OH234275   5.847   7.048   5.639
11445TIP3    H134276   5.802   7.120   5.683
11445TIP3    H234277   5.889   6.999   5.709
11446TIP3   OH234278   0.847   3.849   0.655
11446TIP3    H134279   0.802   3.931   0.634
11446TIP3    H234280   0.856   3.851   0.750
11447TIP3   OH234281   0.451   2.370   0.121
11447TIP3    H134282   0.436   2.313   0.046
11447TIP3    H234283   0.544   2.393   0.117
11448TIP3   OH234284   7.650   0.766   3.083
11448TIP3    H134285   7.693   0.740   3.165
11448TIP3    H234286   7.647   0.861   3.086
11449TIP3   OH234287   1.208   0.664   3.559
11449TIP3    H134288   1.128   0.630   3.598
11449TIP3    H234289   1.268   0.676   3.633
11450TIP3   OH234290   5.830   3.343   2.999
11450TIP3    H134291   5.859   3.431   2.978
11450TIP3    H234292   5.735   3.351   3.010
11451TIP3   OH234293   7.519   2.482   0.705
11451TIP3    H134294   7.445   2.476   0.644
11451TIP3    H234295   7.517   2.399   0.752
11452TIP3   OH234296   3.420   0.120   0.422
11452TIP3    H134297   3.428   0.032   0.460
11452TIP3    H234298   3.495   0.168   0.456
11453TIP3   OH234299   7.911   6.009   4.187
11453TIP3    H134300   7.920   6.104   4.176
11453TIP3    H234301   7.991   5.973   4.149
11454TIP3   OH234302   5.301   6.968   6.068
11454TIP3    H134303   5.221   6.921   6.092
11454TIP3    H234304   5.361   6.900   6.037
11455TIP3   OH234305   4.873   5.889   5.569
11455TIP3    H134306   4.824   5.840   5.503
11455TIP3    H234307   4.954   5.838   5.581
11456TIP3   OH234308   5.409   1.949   4.112
11456TIP3    H134309   5.430   2.037   4.081
11456TIP3    H234310   5.444   1.946   4.201
11457TIP3   OH234311   7.615   2.815   3.918
11457TIP3    H134312   7.642   2.836   3.828
11457TIP3    H234313   7.558   2.887   3.943
11458TIP3   OH234314   1.173   3.004   3.982
11458TIP3    H134315   1.146   3.039   4.067
11458TIP3    H234316   1.217   3.077   3.939
11459TIP3   OH234317   2.268   3.018   5.055
11459TIP3    H134318   2.180   2.999   5.089
11459TIP3    H234319   2.259   3.103   5.013
11460TIP3   OH234320   6.095   7.092   3.565
11460TIP3    H134321   6.133   7.101   3.652
11460TIP3    H234322   6.070   6.999   3.560
11461TIP3   OH234323   4.165   2.414   4.797
11461TIP3    H134324   4.078   2.377   4.814
11461TIP3    H234325   4.172   2.414   4.702
11462TIP3   OH234326   4.888   0.627   6.772
11462TIP3    H134327   4.851   0.704   6.727
11462TIP3    H234328   4.816   0.564   6.773
11463TIP3   OH234329   0.950   1.493   2.717
11463TIP3    H134330   0.909   1.491   2.803
11463TIP3    H234331   0.912   1.419   2.670
11464TIP3   OH234332   0.495   3.851   4.893
11464TIP3    H134333   0.484   3.924   4.954
11464TIP3    H234334   0.536   3.890   4.816
11465TIP3   OH234335   5.499   3.936   6.452
11465TIP3    H134336   5.408   3.925   6.423
11465TIP3    H234337   5.531   4.013   6.404
11466TIP3   OH234338   6.192   0.477   1.611
11466TIP3    H134339   6.274   0.499   1.657
11466TIP3    H234340   6.137   0.437   1.679
11467TIP3   OH234341   3.938   1.605   0.379
11467TIP3    H134342   3.966   1.554   0.303
11467TIP3    H234343   3.894   1.541   0.435
11468TIP3   OH234344   5.727   0.883   0.331
11468TIP3    H134345   5.686   0.799   0.312
11468TIP3    H234346   5.661   0.932   0.379
11469TIP3   OH234347   2.052   3.729   2.437
11469TIP3    H134348   2.137   3.757   2.472
11469TIP3    H234349   2.074   3.682   2.356
11470TIP3   OH234350   3.744   5.970   5.775
11470TIP3    H134351   3.794   6.051   5.763
11470TIP3    H234352   3.661   5.986   5.732
11471TIP3   OH234353   0.876   4.913   6.552
11471TIP3    H134354   0.855   4.863   6.474
11471TIP3    H234355   0.895   4.847   6.619
11472TIP3   OH234356   0.551   0.453   6.288
11472TIP3    H134357   0.475   0.504   6.260
11472TIP3    H234358   0.626   0.497   6.248
11473TIP3   OH234359   3.047   7.323   4.857
11473TIP3    H134360   3.030   7.230   4.841
11473TIP3    H234361   2.964   7.367   4.836
11474TIP3   OH234362   7.817   4.820   6.311
11474TIP3    H134363   7.829   4.743   6.255
11474TIP3    H234364   7.777   4.885   6.253
11475TIP3   OH234365   2.463   2.432   5.566
11475TIP3    H134366   2.429   2.379   5.493
11475TIP3    H234367   2.406   2.410   5.639
11476TIP3   OH234368   2.103   4.300   6.678
11476TIP3    H134369   2.039   4.372   6.682
11476TIP3    H234370   2.071   4.244   6.608
11477TIP3   OH234371   3.105   3.396   6.089
11477TIP3    H134372   3.180   3.353   6.129
11477TIP3    H234373   3.118   3.383   5.995
11478TIP3   OH234374   8.255   3.577   1.017
11478TIP3    H134375   8.313   3.530   0.957
11478TIP3    H234376   8.314   3.626   1.074
11479TIP3   OH234377   4.078   5.068   6.555
11479TIP3    H134378   4.082   5.017   6.474
11479TIP3    H234379   3.985   5.069   6.579
11480TIP3   OH234380   1.027   3.750   3.784
11480TIP3    H134381   1.000   3.671   3.736
11480TIP3    H234382   1.039   3.815   3.715
11481TIP3   OH234383   3.793   1.471   2.521
11481TIP3    H134384   3.747   1.502   2.443
11481TIP3    H234385   3.800   1.548   2.577
11482TIP3   OH234386   0.433   7.438   2.661
11482TIP3    H134387   0.399   7.401   2.580
11482TIP3    H234388   0.419   7.370   2.727
11483TIP3   OH234389   1.829   1.020   2.792
11483TIP3    H134390   1.787   0.956   2.849
11483TIP3    H234391   1.758   1.078   2.764
11484TIP3   OH234392   3.787   1.205   3.032
11484TIP3    H134393   3.856   1.256   3.074
11484TIP3    H234394   3.776   1.129   3.088
11485TIP3   OH234395   8.102   1.544   4.655
11485TIP3    H134396   8.045   1.525   4.580
11485TIP3    H234397   8.110   1.460   4.701
11486TIP3   OH234398   0.888   1.838   6.807
11486TIP3    H134399   0.905   1.892   6.884
11486TIP3    H234400   0.919   1.889   6.733
11487TIP3   OH234401   6.939   6.356   6.533
11487TIP3    H134402   6.982   6.306   6.602
11487TIP3    H234403   6.927   6.443   6.570
11488TIP3   OH234404   3.158   2.512   5.456
11488TIP3    H134405   3.115   2.427   5.445
11488TIP3    H234406   3.187   2.512   5.547
11489TIP3   OH234407   1.971   7.541   5.053
11489TIP3    H134408   1.884   7.561   5.087
11489TIP3    H234409   1.962   7.550   4.958
11490TIP3   OH234410   0.207   4.690   4.195
11490TIP3    H134411   0.188   4.684   4.289
11490TIP3    H234412   0.155   4.765   4.165
11491TIP3   OH234413   5.892   4.254   5.281
11491TIP3    H134414   5.867   4.195   5.210
11491TIP3    H234415   5.820   4.248   5.343
11492TIP3   OH234416   1.055   2.324   5.685
11492TIP3    H134417   1.112   2.284   5.750
11492TIP3    H234418   0.983   2.262   5.675
11493TIP3   OH234419   6.906   5.030   6.522
11493TIP3    H134420   6.991   4.990   6.541
11493TIP3    H234421   6.842   4.969   6.558
11494TIP3   OH234422   3.266   0.935   5.386
11494TIP3    H134423   3.353   0.934   5.347
11494TIP3    H234424   3.278   0.978   5.471
11495TIP3   OH234425   6.852   4.290   0.243
11495TIP3    H134426   6.886   4.356   0.303
11495TIP3    H234427   6.930   4.243   0.212
11496TIP3   OH234428   4.348   0.208   4.414
11496TIP3    H134429   4.275   0.147   4.411
11496TIP3    H234430   4.308   0.294   4.401
11497TIP3   OH234431   3.427   1.657   3.322
11497TIP3    H134432   3.503   1.676   3.267
11497TIP3    H234433   3.403   1.567   3.299
11498TIP3   OH234434   0.485   4.420   0.721
11498TIP3    H134435   0.496   4.513   0.739
11498TIP3    H234436   0.510   4.410   0.629
11499TIP3   OH234437   1.170   6.468   2.145
11499TIP3    H134438   1.199   6.380   2.122
11499TIP3    H234439   1.077   6.469   2.123
11500TIP3   OH234440   8.011   2.061   5.633
11500TIP3    H134441   7.941   2.000   5.658
11500TIP3    H234442   8.015   2.122   5.707
11501TIP3   OH234443   5.444   6.624   4.472
11501TIP3    H134444   5.385   6.696   4.494
11501TIP3    H234445   5.508   6.663   4.413
11502TIP3   OH234446   3.555   4.858   6.399
11502TIP3    H134447   3.626   4.840   6.462
11502TIP3    H234448   3.543   4.774   6.354
11503TIP3   OH234449   8.330   1.744   6.421
11503TIP3    H134450   8.307   1.696   6.341
11503TIP3    H234451   8.334   1.677   6.489
11504TIP3   OH234452   6.038   7.738   4.720
11504TIP3    H134453   5.949   7.771   4.708
11504TIP3    H234454   6.079   7.749   4.634
11505TIP3   OH234455   4.197   3.203   1.793
11505TIP3    H134456   4.107   3.232   1.785
11505TIP3    H234457   4.236   3.263   1.858
11506TIP3   OH234458   6.909   2.046   6.602
11506TIP3    H134459   6.835   1.991   6.576
11506TIP3    H234460   6.878   2.136   6.585
11507TIP3   OH234461   5.840   0.040   2.741
11507TIP3    H134462   5.846   0.076   2.830
11507TIP3    H234463   5.878  -0.047   2.748
11508TIP3   OH234464   7.914   4.497   0.558
11508TIP3    H134465   7.888   4.577   0.604
11508TIP3    H234466   8.003   4.481   0.587
11509TIP3   OH234467   6.407   2.820   0.257
11509TIP3    H134468   6.387   2.852   0.345
11509TIP3    H234469   6.469   2.748   0.272
11510TIP3   OH234470   2.631   3.303   5.266
11510TIP3    H134471   2.538   3.311   5.245
11510TIP3    H234472   2.634   3.270   5.356
11511TIP3   OH234473   8.202   2.443   3.761
11511TIP3    H134474   8.124   2.388   3.774
11511TIP3    H234475   8.168   2.525   3.726
11512TIP3   OH234476   6.608   0.720   2.505
11512TIP3    H134477   6.636   0.760   2.423
11512TIP3    H234478   6.566   0.638   2.479
11513TIP3   OH234479   0.805   1.109   0.063
11513TIP3    H134480   0.734   1.134   0.004
11513TIP3    H234481   0.862   1.185   0.065
11514TIP3   OH234482   1.900   4.661   2.996
11514TIP3    H134483   1.905   4.757   2.997
11514TIP3    H234484   1.911   4.637   2.904
11515TIP3   OH234485   6.811   4.129   2.683
11515TIP3    H134486   6.755   4.142   2.606
11515TIP3    H234487   6.869   4.058   2.659
11516TIP3   OH234488   1.505   0.273   4.207
11516TIP3    H134489   1.454   0.206   4.162
11516TIP3    H234490   1.573   0.224   4.254
11517TIP3   OH234491   4.995   0.533   5.738
11517TIP3    H134492   4.991   0.480   5.817
11517TIP3    H234493   5.032   0.476   5.672
11518TIP3   OH234494   8.407   2.161   6.813
11518TIP3    H134495   8.377   2.084   6.764
11518TIP3    H234496   8.344   2.229   6.790
11519TIP3   OH234497   4.298   6.623   3.574
11519TIP3    H134498   4.299   6.577   3.490
11519TIP3    H234499   4.364   6.578   3.627
11520TIP3   OH234500   7.663   5.104   5.082
11520TIP3    H134501   7.673   5.180   5.026
11520TIP3    H234502   7.667   5.138   5.171
11521TIP3   OH234503   6.687   1.889   1.459
11521TIP3    H134504   6.623   1.956   1.434
11521TIP3    H234505   6.649   1.807   1.427
11522TIP3   OH234506   6.995   4.542   2.115
11522TIP3    H134507   6.978   4.486   2.191
11522TIP3    H234508   6.987   4.631   2.149
11523TIP3   OH234509   1.661   2.129   1.256
11523TIP3    H134510   1.630   2.143   1.167
11523TIP3    H234511   1.652   2.035   1.271
11524TIP3   OH234512   5.065   6.013   2.707
11524TIP3    H134513   5.042   6.015   2.800
11524TIP3    H234514   4.981   6.001   2.662
11525TIP3   OH234515   7.548   3.320   2.212
11525TIP3    H134516   7.538   3.359   2.125
11525TIP3    H234517   7.623   3.365   2.250
11526TIP3   OH234518   4.815   4.210   2.861
11526TIP3    H134519   4.835   4.274   2.929
11526TIP3    H234520   4.762   4.144   2.905
11527TIP3   OH234521   0.447   0.889   6.125
11527TIP3    H134522   0.423   0.843   6.205
11527TIP3    H234523   0.437   0.823   6.056
11528TIP3   OH234524   5.870   4.011   5.440
11528TIP3    H134525   5.963   4.004   5.419
11528TIP3    H234526   5.855   4.104   5.456
11529TIP3   OH234527   8.314   7.003   5.073
11529TIP3    H134528   8.328   6.960   5.158
11529TIP3    H234529   8.243   7.065   5.089
11530TIP3   OH234530   7.787   0.740   3.814
11530TIP3    H134531   7.834   0.803   3.759
11530TIP3    H234532   7.706   0.723   3.767
11531TIP3   OH234533   4.192   2.782   2.863
11531TIP3    H134534   4.104   2.817   2.875
11531TIP3    H234535   4.248   2.859   2.856
11532TIP3   OH234536   2.887   5.962   4.779
11532TIP3    H134537   2.919   5.872   4.790
11532TIP3    H234538   2.860   5.988   4.867
11533TIP3   OH234539   2.927   1.582   1.380
11533TIP3    H134540   2.871   1.613   1.450
11533TIP3    H234541   3.011   1.625   1.395
11534TIP3   OH234542   2.613   2.475   0.900
11534TIP3    H134543   2.534   2.514   0.861
11534TIP3    H234544   2.587   2.386   0.923
11535TIP3   OH234545   6.309   1.450   3.825
11535TIP3    H134546   6.244   1.380   3.827
11535TIP3    H234547   6.265   1.525   3.864
11536TIP3   OH234548   7.792   5.198   5.304
11536TIP3    H134549   7.863   5.164   5.358
11536TIP3    H234550   7.828   5.277   5.263
11537TIP3   OH234551   6.241   2.720   1.124
11537TIP3    H134552   6.145   2.722   1.128
11537TIP3    H234553   6.261   2.732   1.031
11538TIP3   OH234554   7.445   6.640   4.123
11538TIP3    H134555   7.421   6.725   4.087
11538TIP3    H234556   7.390   6.577   4.077
11539TIP3   OH234557   3.309   4.724   2.559
11539TIP3    H134558   3.330   4.647   2.612
11539TIP3    H234559   3.393   4.763   2.538
11540TIP3   OH234560   4.423   1.096   0.641
11540TIP3    H134561   4.515   1.118   0.628
11540TIP3    H234562   4.396   1.146   0.718
11541TIP3   OH234563   6.405   4.370   2.672
11541TIP3    H134564   6.485   4.423   2.675
11541TIP3    H234565   6.429   4.295   2.618
11542TIP3   OH234566   1.903   5.458   0.550
11542TIP3    H134567   1.855   5.379   0.527
11542TIP3    H234568   1.977   5.428   0.601
11543TIP3   OH234569   7.997   1.649   1.667
11543TIP3    H134570   7.997   1.553   1.667
11543TIP3    H234571   8.075   1.673   1.617
11544TIP3   OH234572   6.491   4.966   1.991
11544TIP3    H134573   6.567   4.916   2.022
11544TIP3    H234574   6.450   4.999   2.071
11545TIP3   OH234575   7.198   0.937   0.962
11545TIP3    H134576   7.276   0.972   1.005
11545TIP3    H234577   7.229   0.905   0.877
11546TIP3   OH234578   0.596   6.647   2.906
11546TIP3    H134579   0.664   6.589   2.939
11546TIP3    H234580   0.599   6.637   2.811
11547TIP3   OH234581   2.430   3.135   1.981
11547TIP3    H134582   2.377   3.072   2.030
11547TIP3    H234583   2.374   3.211   1.970
11548TIP3   OH234584   2.521   6.663   0.846
11548TIP3    H134585   2.578   6.642   0.772
11548TIP3    H234586   2.433   6.646   0.813
11549TIP3   OH234587   6.385   5.578   4.898
11549TIP3    H134588   6.463   5.618   4.859
11549TIP3    H234589   6.410   5.557   4.987
11550TIP3   OH234590   2.901   2.186   0.611
11550TIP3    H134591   2.849   2.107   0.627
11550TIP3    H234592   2.841   2.258   0.631
11551TIP3   OH234593   6.250   4.921   6.050
11551TIP3    H134594   6.244   5.013   6.024
11551TIP3    H234595   6.212   4.874   5.976
11552TIP3   OH234596   6.221   3.729   4.193
11552TIP3    H134597   6.250   3.783   4.120
11552TIP3    H234598   6.237   3.782   4.271
11553TIP3   OH234599   6.835   3.927   4.945
11553TIP3    H134600   6.779   3.849   4.954
11553TIP3    H234601   6.774   4.000   4.937
11554TIP3   OH234602   0.522   4.376   4.479
11554TIP3    H134603   0.485   4.458   4.511
11554TIP3    H234604   0.506   4.313   4.549
11555TIP3   OH234605   0.253   1.791   3.920
11555TIP3    H134606   0.225   1.851   3.990
11555TIP3    H234607   0.323   1.740   3.959
11556TIP3   OH234608   4.788   6.435   3.290
11556TIP3    H134609   4.733   6.500   3.334
11556TIP3    H234610   4.837   6.393   3.361
11557TIP3   OH234611   0.104   2.652   6.600
11557TIP3    H134612   0.038   2.663   6.532
11557TIP3    H234613   0.117   2.740   6.635
11558TIP3   OH234614   2.603   6.119   5.940
11558TIP3    H134615   2.566   6.203   5.967
11558TIP3    H234616   2.577   6.058   6.009
11559TIP3   OH234617   0.186   7.833   4.402
11559TIP3    H134618   0.266   7.838   4.350
11559TIP3    H234619   0.185   7.744   4.436
11560TIP3   OH234620   4.207   2.028   6.381
11560TIP3    H134621   4.222   2.058   6.471
11560TIP3    H234622   4.135   2.082   6.349
11561TIP3   OH234623   6.644   0.303   4.907
11561TIP3    H134624   6.592   0.289   4.828
11561TIP3    H234625   6.701   0.226   4.913
11562TIP3   OH234626   2.816   5.654   0.163
11562TIP3    H134627   2.808   5.612   0.078
11562TIP3    H234628   2.841   5.744   0.143
11563TIP3   OH234629   2.194   6.775   5.384
11563TIP3    H134630   2.285   6.790   5.358
11563TIP3    H234631   2.161   6.862   5.407
11564TIP3   OH234632   3.854   0.077   3.812
11564TIP3    H134633   3.934   0.032   3.840
11564TIP3    H234634   3.797   0.006   3.779
11565TIP3   OH234635   1.074   2.180   3.093
11565TIP3    H134636   0.979   2.187   3.103
11565TIP3    H234637   1.086   2.118   3.021
11566TIP3   OH234638   4.399   5.521   0.881
11566TIP3    H134639   4.329   5.466   0.917
11566TIP3    H234640   4.397   5.600   0.934
11567TIP3   OH234641   3.786   3.753   2.066
11567TIP3    H134642   3.745   3.833   2.099
11567TIP3    H234643   3.745   3.683   2.116
11568TIP3   OH234644   1.980   3.667   5.748
11568TIP3    H134645   1.958   3.632   5.661
11568TIP3    H234646   2.074   3.682   5.745
11569TIP3   OH234647   3.516   7.739   3.984
11569TIP3    H134648   3.570   7.792   3.927
11569TIP3    H234649   3.455   7.694   3.926
11570TIP3   OH234650   1.637   1.195   4.116
11570TIP3    H134651   1.680   1.274   4.148
11570TIP3    H234652   1.623   1.142   4.195
11571TIP3   OH234653   4.047   1.392   2.609
11571TIP3    H134654   4.036   1.298   2.623
11571TIP3    H234655   3.960   1.422   2.580
11572TIP3   OH234656   7.828   1.400   3.035
11572TIP3    H134657   7.874   1.339   3.092
11572TIP3    H234658   7.736   1.386   3.052
11573TIP3   OH234659   0.805   1.291   6.523
11573TIP3    H134660   0.880   1.334   6.565
11573TIP3    H234661   0.808   1.201   6.554
11574TIP3   OH234662   4.462   6.110   5.967
11574TIP3    H134663   4.449   6.150   5.881
11574TIP3    H234664   4.539   6.156   6.003
11575TIP3   OH234665   1.263   7.082   1.043
11575TIP3    H134666   1.322   7.156   1.056
11575TIP3    H234667   1.320   7.006   1.038
11576TIP3   OH234668   5.166   7.561   6.431
11576TIP3    H134669   5.202   7.473   6.441
11576TIP3    H234670   5.235   7.618   6.466
11577TIP3   OH234671   7.721   4.968   4.513
11577TIP3    H134672   7.780   5.035   4.548
11577TIP3    H234673   7.641   5.015   4.491
11578TIP3   OH234674   0.153   2.413   4.373
11578TIP3    H134675   0.237   2.460   4.368
11578TIP3    H234676   0.160   2.344   4.307
11579TIP3   OH234677   2.218   0.316   4.142
11579TIP3    H134678   2.139   0.289   4.190
11579TIP3    H234679   2.184   0.348   4.058
11580TIP3   OH234680   5.804   5.049   0.638
11580TIP3    H134681   5.830   5.129   0.592
11580TIP3    H234682   5.822   4.979   0.575
11581TIP3   OH234683   7.452   4.753   0.439
11581TIP3    H134684   7.474   4.822   0.501
11581TIP3    H234685   7.498   4.778   0.358
11582TIP3   OH234686   0.607   5.167   0.396
11582TIP3    H134687   0.683   5.150   0.341
11582TIP3    H234688   0.628   5.249   0.442
11583TIP3   OH234689   2.973   7.911   1.940
11583TIP3    H134690   2.942   7.843   2.000
11583TIP3    H234691   3.064   7.886   1.923
11584TIP3   OH234692   1.000   6.250   0.721
11584TIP3    H134693   1.080   6.212   0.687
11584TIP3    H234694   0.973   6.190   0.791
11585TIP3   OH234695   1.592   1.724   6.095
11585TIP3    H134696   1.679   1.761   6.111
11585TIP3    H234697   1.532   1.785   6.138
11586TIP3   OH234698   1.670   3.628   3.335
11586TIP3    H134699   1.731   3.554   3.345
11586TIP3    H234700   1.647   3.652   3.425
11587TIP3   OH234701   2.832   0.878   5.792
11587TIP3    H134702   2.827   0.811   5.723
11587TIP3    H234703   2.916   0.862   5.834
11588TIP3   OH234704   7.310   0.790   4.449
11588TIP3    H134705   7.375   0.860   4.444
11588TIP3    H234706   7.244   0.813   4.384
11589TIP3   OH234707   2.978   3.450   6.460
11589TIP3    H134708   3.062   3.490   6.483
11589TIP3    H234709   2.916   3.487   6.523
11590TIP3   OH234710   2.383   3.075   2.306
11590TIP3    H134711   2.459   3.127   2.332
11590TIP3    H234712   2.418   3.011   2.244
11591TIP3   OH234713   7.697   6.297   4.350
11591TIP3    H134714   7.675   6.212   4.312
11591TIP3    H234715   7.769   6.330   4.296
11592TIP3   OH234716   3.601   1.496   6.172
11592TIP3    H134717   3.527   1.435   6.166
11592TIP3    H234718   3.640   1.495   6.084
11593TIP3   OH234719   0.435   2.633   5.587
11593TIP3    H134720   0.355   2.584   5.566
11593TIP3    H234721   0.409   2.725   5.580
11594TIP3   OH234722   4.575   4.882   1.762
11594TIP3    H134723   4.481   4.891   1.748
11594TIP3    H234724   4.613   4.960   1.724
11595TIP3   OH234725  -0.031   2.561   1.904
11595TIP3    H134726   0.005   2.643   1.870
11595TIP3    H234727   0.020   2.543   1.983
11596TIP3   OH234728   6.544   4.643   5.524
11596TIP3    H134729   6.494   4.647   5.606
11596TIP3    H234730   6.574   4.733   5.510
11597TIP3   OH234731   6.451   0.977   6.697
11597TIP3    H134732   6.375   1.019   6.738
11597TIP3    H234733   6.526   1.030   6.724
11598TIP3   OH234734   7.537   5.025   3.646
11598TIP3    H134735   7.626   4.989   3.641
11598TIP3    H234736   7.533   5.066   3.732
11599TIP3   OH234737   5.312   4.638   3.422
11599TIP3    H134738   5.276   4.723   3.395
11599TIP3    H234739   5.406   4.646   3.408
11600TIP3   OH234740   1.990   2.524   6.397
11600TIP3    H134741   1.898   2.549   6.402
11600TIP3    H234742   2.018   2.518   6.488
11601TIP3   OH234743   1.845   3.143   2.196
11601TIP3    H134744   1.822   3.234   2.176
11601TIP3    H234745   1.935   3.134   2.164
11602TIP3   OH234746   6.997   1.851   4.801
11602TIP3    H134747   6.930   1.912   4.769
11602TIP3    H234748   7.069   1.858   4.738
11603TIP3   OH234749   2.992   5.862   3.889
11603TIP3    H134750   2.956   5.950   3.891
11603TIP3    H234751   3.078   5.871   3.930
11604TIP3   OH234752   7.955   6.107   5.402
11604TIP3    H134753   7.888   6.116   5.469
11604TIP3    H234754   7.982   6.196   5.382
11605TIP3   OH234755   0.340   6.438   5.654
11605TIP3    H134756   0.367   6.507   5.714
11605TIP3    H234757   0.388   6.456   5.573
11606TIP3   OH234758   1.071   3.068   0.744
11606TIP3    H134759   1.018   3.141   0.714
11606TIP3    H234760   1.140   3.060   0.678
11607TIP3   OH234761   4.903   2.728   2.457
11607TIP3    H134762   4.969   2.680   2.408
11607TIP3    H234763   4.949   2.762   2.534
11608TIP3   OH234764   7.183   6.784   2.089
11608TIP3    H134765   7.180   6.703   2.140
11608TIP3    H234766   7.237   6.763   2.013
11609TIP3   OH234767   6.314   3.935   4.381
11609TIP3    H134768   6.326   4.029   4.394
11609TIP3    H234769   6.347   3.895   4.462
11610TIP3   OH234770   8.438   3.952   2.286
11610TIP3    H134771   8.355   3.954   2.334
11610TIP3    H234772   8.487   3.880   2.325
11611TIP3   OH234773   0.234   3.315   5.757
11611TIP3    H134774   0.151   3.360   5.743
11611TIP3    H234775   0.222   3.230   5.713
11612TIP3   OH234776   4.880   3.202   3.585
11612TIP3    H134777   4.824   3.174   3.658
11612TIP3    H234778   4.935   3.126   3.567
11613TIP3   OH234779   6.236   2.060   2.415
11613TIP3    H134780   6.149   2.100   2.415
11613TIP3    H234781   6.237   2.004   2.493
11614TIP3   OH234782   5.040   0.093   4.237
11614TIP3    H134783   5.033  -0.002   4.242
11614TIP3    H234784   5.083   0.118   4.319
11615TIP3   OH234785   0.710   6.442   5.770
11615TIP3    H134786   0.665   6.370   5.726
11615TIP3    H234787   0.688   6.433   5.862
11616TIP3   OH234788   4.922   1.787   5.718
11616TIP3    H134789   4.971   1.847   5.662
11616TIP3    H234790   4.985   1.718   5.739
11617TIP3   OH234791   8.095   7.179   4.479
11617TIP3    H134792   8.047   7.138   4.551
11617TIP3    H234793   8.088   7.117   4.406
11618TIP3   OH234794   2.884   1.862   0.743
11618TIP3    H134795   2.952   1.829   0.684
11618TIP3    H234796   2.822   1.906   0.686
11619TIP3   OH234797   2.541   4.423   5.546
11619TIP3    H134798   2.593   4.503   5.538
11619TIP3    H234799   2.468   4.448   5.603
11620TIP3   OH234800   8.210   6.309   0.080
11620TIP3    H134801   8.196   6.359   0.161
11620TIP3    H234802   8.256   6.230   0.110
11621TIP3   OH234803   5.214   6.618   2.253
11621TIP3    H134804   5.237   6.711   2.260
11621TIP3    H234805   5.238   6.580   2.337
11622TIP3   OH234806   7.908   1.625   0.823
11622TIP3    H134807   7.968   1.690   0.860
11622TIP3    H234808   7.885   1.660   0.737
11623TIP3   OH234809   2.348   7.432   4.945
11623TIP3    H134810   2.257   7.454   4.964
11623TIP3    H234811   2.347   7.398   4.856
11624TIP3   OH234812   0.653   2.287   3.435
11624TIP3    H134813   0.702   2.206   3.424
11624TIP3    H234814   0.604   2.274   3.517
11625TIP3   OH234815   5.994   5.182   5.205
11625TIP3    H134816   5.902   5.156   5.208
11625TIP3    H234817   6.039   5.106   5.167
11626TIP3   OH234818   1.142   6.970   2.121
11626TIP3    H134819   1.053   7.001   2.137
11626TIP3    H234820   1.133   6.876   2.111
11627TIP3   OH234821   4.746   0.239   5.682
11627TIP3    H134822   4.703   0.165   5.640
11627TIP3    H234823   4.674   0.288   5.722
11628TIP3   OH234824   4.212   7.469   2.896
11628TIP3    H134825   4.212   7.455   2.990
11628TIP3    H234826   4.122   7.454   2.869
11629TIP3   OH234827   6.257   3.828   4.774
11629TIP3    H134828   6.266   3.923   4.773
11629TIP3    H234829   6.288   3.800   4.687
11630TIP3   OH234830   6.170   3.063   3.858
11630TIP3    H134831   6.256   3.106   3.853
11630TIP3    H234832   6.124   3.111   3.927
11631TIP3   OH234833   6.877   2.762   1.931
11631TIP3    H134834   6.892   2.667   1.923
11631TIP3    H234835   6.804   2.780   1.872
11632TIP3   OH234836   4.834   2.427   2.451
11632TIP3    H134837   4.846   2.469   2.537
11632TIP3    H234838   4.904   2.464   2.397
11633TIP3   OH234839   3.054   1.623   1.052
11633TIP3    H134840   2.966   1.639   1.017
11633TIP3    H234841   3.072   1.532   1.031
11634TIP3   OH234842   3.734   3.049   4.647
11634TIP3    H134843   3.713   3.080   4.736
11634TIP3    H234844   3.721   2.954   4.652
11635TIP3   OH234845   1.545   5.427   5.243
11635TIP3    H134846   1.635   5.450   5.264
11635TIP3    H234847   1.494   5.459   5.317
11636TIP3   OH234848   8.416   6.993   0.823
11636TIP3    H134849   8.423   6.956   0.735
11636TIP3    H234850   8.329   7.033   0.825
11637TIP3   OH234851   7.159   1.502   0.013
11637TIP3    H134852   7.083   1.520   0.068
11637TIP3    H234853   7.149   1.560  -0.062
11638TIP3   OH234854   5.638   1.337   4.237
11638TIP3    H134855   5.656   1.260   4.183
11638TIP3    H234856   5.720   1.387   4.236
11639TIP3   OH234857   1.603   0.507   4.478
11639TIP3    H134858   1.676   0.468   4.526
11639TIP3    H234859   1.525   0.483   4.528
11640TIP3   OH234860   2.022   5.469   6.877
11640TIP3    H134861   1.989   5.471   6.787
11640TIP3    H234862   1.944   5.477   6.931
11641TIP3   OH234863   0.431   7.802   4.162
11641TIP3    H134864   0.439   7.710   4.187
11641TIP3    H234865   0.496   7.814   4.093
11642TIP3   OH234866   4.026   3.805   4.326
11642TIP3    H134867   3.979   3.722   4.330
11642TIP3    H234868   4.101   3.787   4.269
11643TIP3   OH234869   3.778   5.731   1.064
11643TIP3    H134870   3.715   5.791   1.103
11643TIP3    H234871   3.791   5.764   0.975
11644TIP3   OH234872   7.446   4.970   2.139
11644TIP3    H134873   7.408   4.882   2.141
11644TIP3    H234874   7.493   4.978   2.222
11645TIP3   OH234875   2.542   2.089   6.280
11645TIP3    H134876   2.567   2.101   6.188
11645TIP3    H234877   2.625   2.085   6.327
11646TIP3   OH234878   3.536   4.982   4.361
11646TIP3    H134879   3.450   5.022   4.374
11646TIP3    H234880   3.517   4.898   4.319
11647TIP3   OH234881   1.224   6.776   1.865
11647TIP3    H134882   1.206   6.692   1.823
11647TIP3    H234883   1.283   6.821   1.803
11648TIP3   OH234884   4.827   7.482   6.728
11648TIP3    H134885   4.741   7.518   6.708
11648TIP3    H234886   4.886   7.557   6.726
11649TIP3   OH234887   5.391   4.192   2.758
11649TIP3    H134888   5.382   4.227   2.670
11649TIP3    H234889   5.448   4.116   2.748
11650TIP3   OH234890   6.640   0.411   3.861
11650TIP3    H134891   6.600   0.498   3.866
11650TIP3    H234892   6.568   0.353   3.835
11651TIP3   OH234893   4.599   7.406   1.023
11651TIP3    H134894   4.624   7.482   1.075
11651TIP3    H234895   4.681   7.367   0.995
11652TIP3   OH234896   2.384   3.270   1.655
11652TIP3    H134897   2.463   3.317   1.681
11652TIP3    H234898   2.348   3.323   1.584
11653TIP3   OH234899   4.762   7.895   1.927
11653TIP3    H134900   4.701   7.878   1.999
11653TIP3    H234901   4.848   7.900   1.970
11654TIP3   OH234902   1.957   5.572   4.746
11654TIP3    H134903   1.894   5.637   4.777
11654TIP3    H234904   2.007   5.619   4.678
11655TIP3   OH234905   6.773   4.278   1.291
11655TIP3    H134906   6.733   4.356   1.329
11655TIP3    H234907   6.699   4.225   1.261
11656TIP3   OH234908   1.079   0.061   4.305
11656TIP3    H134909   0.989   0.085   4.327
11656TIP3    H234910   1.086   0.075   4.211
11657TIP3   OH234911   4.797   0.328   0.294
11657TIP3    H134912   4.805   0.298   0.204
11657TIP3    H234913   4.773   0.420   0.287
11658TIP3   OH234914   1.891   5.561   1.840
11658TIP3    H134915   1.848   5.625   1.897
11658TIP3    H234916   1.972   5.605   1.812
11659TIP3   OH234917   3.233   5.460   5.130
11659TIP3    H134918   3.268   5.468   5.219
11659TIP3    H234919   3.205   5.548   5.107
11660TIP3   OH234920   4.006   2.931   1.375
11660TIP3    H134921   4.001   3.008   1.319
11660TIP3    H234922   4.036   2.965   1.460
11661TIP3   OH234923   0.193   6.804   2.150
11661TIP3    H134924   0.255   6.802   2.077
11661TIP3    H234925   0.182   6.897   2.170
11662TIP3   OH234926   1.955   2.985   1.832
11662TIP3    H134927   1.974   2.891   1.840
11662TIP3    H234928   2.033   3.021   1.790
11663TIP3   OH234929   3.093   6.334   5.598
11663TIP3    H134930   3.018   6.312   5.652
11663TIP3    H234931   3.092   6.429   5.593
11664TIP3   OH234932   2.305   2.867   3.458
11664TIP3    H134933   2.261   2.947   3.431
11664TIP3    H234934   2.370   2.851   3.389
11665TIP3   OH234935   3.236   0.068   0.171
11665TIP3    H134936   3.297   0.132   0.208
11665TIP3    H234937   3.196   0.113   0.097
11666TIP3   OH234938   6.661   3.850   5.309
11666TIP3    H134939   6.731   3.915   5.323
11666TIP3    H234940   6.706   3.775   5.270
11667TIP3   OH234941   4.752   6.003   6.786
11667TIP3    H134942   4.724   5.911   6.795
11667TIP3    H234943   4.753   6.018   6.692
11668TIP3   OH234944   7.462   1.005   4.351
11668TIP3    H134945   7.544   1.045   4.321
11668TIP3    H234946   7.456   1.030   4.443
11669TIP3   OH234947   5.934   0.303   6.187
11669TIP3    H134948   5.974   0.381   6.147
11669TIP3    H234949   5.916   0.330   6.277
11670TIP3   OH234950   1.535   4.428   2.920
11670TIP3    H134951   1.521   4.503   2.862
11670TIP3    H234952   1.447   4.391   2.933
11671TIP3   OH234953   1.800   2.052   6.850
11671TIP3    H134954   1.805   1.958   6.866
11671TIP3    H234955   1.765   2.060   6.761
11672TIP3   OH234956   1.402   6.438   3.066
11672TIP3    H134957   1.445   6.485   3.138
11672TIP3    H234958   1.474   6.412   3.008
11673TIP3   OH234959   7.476   5.543   5.933
11673TIP3    H134960   7.411   5.539   6.003
11673TIP3    H234961   7.439   5.489   5.863
11674TIP3   OH234962   7.787   5.037   2.563
11674TIP3    H134963   7.868   5.089   2.572
11674TIP3    H234964   7.719   5.102   2.544
11675TIP3   OH234965   3.702   5.812   3.202
11675TIP3    H134966   3.692   5.782   3.111
11675TIP3    H234967   3.628   5.774   3.249
11676TIP3   OH234968   1.634   0.046   1.301
11676TIP3    H134969   1.694   0.003   1.362
11676TIP3    H234970   1.555  -0.010   1.303
11677TIP3   OH234971   3.063   4.623   6.534
11677TIP3    H134972   3.113   4.541   6.545
11677TIP3    H234973   2.975   4.601   6.565
11678TIP3   OH234974   7.839   0.244   5.379
11678TIP3    H134975   7.755   0.286   5.399
11678TIP3    H234976   7.817   0.153   5.362
11679TIP3   OH234977   7.512   6.123   6.271
11679TIP3    H134978   7.528   6.079   6.188
11679TIP3    H234979   7.417   6.136   6.273
11680TIP3   OH234980   4.372   7.189   3.654
11680TIP3    H134981   4.345   7.116   3.709
11680TIP3    H234982   4.342   7.166   3.566
11681TIP3   OH234983   2.608   0.226   1.989
11681TIP3    H134984   2.553   0.155   2.021
11681TIP3    H234985   2.570   0.305   2.029
11682TIP3   OH234986   2.787   2.638   1.496
11682TIP3    H134987   2.742   2.643   1.412
11682TIP3    H234988   2.788   2.545   1.518
11683TIP3   OH234989   0.934   0.462   4.762
11683TIP3    H134990   1.015   0.447   4.810
11683TIP3    H234991   0.901   0.375   4.742
11684TIP3   OH234992   6.277   1.193   4.647
11684TIP3    H134993   6.285   1.201   4.742
11684TIP3    H234994   6.345   1.131   4.622
11685TIP3   OH234995   2.010   3.346   6.650
11685TIP3    H134996   1.999   3.406   6.576
11685TIP3    H234997   2.052   3.400   6.717
11686TIP3   OH234998   6.682   2.545   0.648
11686TIP3    H134999   6.606   2.528   0.704
11686TIP3    H235000   6.693   2.640   0.652
11687TIP3   OH235001   1.151   7.041   2.767
11687TIP3    H135002   1.123   7.018   2.856
11687TIP3    H235003   1.159   6.957   2.722
11688TIP3   OH235004   7.481   2.778   4.197
11688TIP3    H135005   7.404   2.835   4.194
11688TIP3    H235006   7.524   2.792   4.113
11689TIP3   OH235007   0.157   4.250   0.666
11689TIP3    H135008   0.137   4.287   0.752
11689TIP3    H235009   0.087   4.282   0.609
11690TIP3   OH235010   7.835   0.005   6.767
11690TIP3    H135011   7.750   0.006   6.811
11690TIP3    H235012   7.892   0.058   6.823
11691TIP3   OH235013   2.915   4.034   2.716
11691TIP3    H135014   3.001   3.993   2.714
11691TIP3    H235015   2.862   3.980   2.656
11692TIP3   OH235016   6.483   7.066   3.907
11692TIP3    H135017   6.488   7.128   3.980
11692TIP3    H235018   6.430   6.994   3.941
11693TIP3   OH235019   6.975   3.426   5.172
11693TIP3    H135020   6.974   3.374   5.092
11693TIP3    H235021   6.885   3.425   5.202
11694TIP3   OH235022   1.637   4.092   2.690
11694TIP3    H135023   1.727   4.087   2.658
11694TIP3    H235024   1.588   4.127   2.616
11695TIP3   OH235025   6.586   5.932   4.228
11695TIP3    H135026   6.637   5.907   4.151
11695TIP3    H235027   6.649   5.978   4.284
11696TIP3   OH235028   1.828   1.004   2.186
11696TIP3    H135029   1.896   1.015   2.120
11696TIP3    H235030   1.752   1.050   2.150
11697TIP3   OH235031   3.572   0.110   1.270
11697TIP3    H135032   3.606   0.127   1.182
11697TIP3    H235033   3.547   0.018   1.269
11698TIP3   OH235034   6.761   3.638   5.174
11698TIP3    H135035   6.742   3.621   5.082
11698TIP3    H235036   6.728   3.560   5.220
11699TIP3   OH235037   2.994   7.889   4.295
11699TIP3    H135038   2.933   7.902   4.368
11699TIP3    H235039   2.972   7.802   4.262
11700TIP3   OH235040   1.889   1.644   6.346
11700TIP3    H135041   1.869   1.710   6.280
11700TIP3    H235042   1.883   1.561   6.300
11701TIP3   OH235043   8.371   7.200   4.135
11701TIP3    H135044   8.395   7.118   4.178
11701TIP3    H235045   8.280   7.187   4.109
11702TIP3   OH235046   0.585   3.937   2.641
11702TIP3    H135047   0.660   3.997   2.635
11702TIP3    H235048   0.540   3.947   2.557
11703TIP3   OH235049   6.510   2.671   1.091
11703TIP3    H135050   6.557   2.588   1.090
11703TIP3    H235051   6.427   2.652   1.135
11704TIP3   OH235052   3.747   1.216   5.917
11704TIP3    H135053   3.814   1.281   5.939
11704TIP3    H235054   3.786   1.164   5.847
11705TIP3   OH235055   7.697   5.788   6.677
11705TIP3    H135056   7.647   5.839   6.740
11705TIP3    H235057   7.718   5.849   6.607
11706TIP3   OH235058   4.071   0.290   1.219
11706TIP3    H135059   4.069   0.203   1.260
11706TIP3    H235060   4.151   0.290   1.167
11707TIP3   OH235061   5.748   4.199   1.094
11707TIP3    H135062   5.664   4.218   1.136
11707TIP3    H235063   5.786   4.285   1.077
11708TIP3   OH235064   2.839   3.881   0.284
11708TIP3    H135065   2.931   3.864   0.264
11708TIP3    H235066   2.804   3.922   0.205
11709TIP3   OH235067   5.120   5.779   0.032
11709TIP3    H135068   5.162   5.693   0.043
11709TIP3    H235069   5.162   5.835   0.097
11710TIP3   OH235070   3.746   4.143   5.991
11710TIP3    H135071   3.752   4.048   5.981
11710TIP3    H235072   3.705   4.172   5.909
11711TIP3   OH235073   5.147   0.119   0.032
11711TIP3    H135074   5.206   0.053   0.070
11711TIP3    H235075   5.064   0.107   0.078
11712TIP3   OH235076   8.377   7.008   5.941
11712TIP3    H135077   8.406   7.052   5.862
11712TIP3    H235078   8.315   6.941   5.911
11713TIP3   OH235079   4.513   5.031   0.510
11713TIP3    H135080   4.594   5.081   0.516
11713TIP3    H235081   4.500   4.996   0.598
11714TIP3   OH235082   3.814   6.652   0.242
11714TIP3    H135083   3.732   6.701   0.252
11714TIP3    H235084   3.786   6.561   0.232
11715TIP3   OH235085   3.183   6.021   6.454
11715TIP3    H135086   3.088   6.024   6.451
11715TIP3    H235087   3.204   6.022   6.548
11716TIP3   OH235088   5.038   7.902   1.198
11716TIP3    H135089   5.081   7.877   1.116
11716TIP3    H235090   4.973   7.834   1.213
11717TIP3   OH235091   8.224   3.190   4.035
11717TIP3    H135092   8.176   3.270   4.014
11717TIP3    H235093   8.206   3.175   4.128
11718TIP3   OH235094   7.480   7.772   1.141
11718TIP3    H135095   7.525   7.804   1.218
11718TIP3    H235096   7.410   7.835   1.126
11719TIP3   OH235097   3.369   7.861   1.662
11719TIP3    H135098   3.405   7.937   1.616
11719TIP3    H235099   3.337   7.804   1.592
11720TIP3   OH235100   0.799   3.243   4.230
11720TIP3    H135101   0.793   3.301   4.306
11720TIP3    H235102   0.774   3.298   4.156
11721TIP3   OH235103   1.718   2.650   5.323
11721TIP3    H135104   1.716   2.694   5.408
11721TIP3    H235105   1.626   2.628   5.305
11722TIP3   OH235106   3.098   1.030   0.096
11722TIP3    H135107   3.157   1.074   0.036
11722TIP3    H235108   3.070   0.951   0.050
11723TIP3   OH235109   3.390   5.493   5.349
11723TIP3    H135110   3.343   5.426   5.400
11723TIP3    H235111   3.477   5.495   5.388
11724TIP3   OH235112   3.202   3.795   4.764
11724TIP3    H135113   3.273   3.810   4.701
11724TIP3    H235114   3.127   3.842   4.727
11725TIP3   OH235115   6.480   0.551   5.879
11725TIP3    H135116   6.509   0.589   5.962
11725TIP3    H235117   6.390   0.522   5.896
11726TIP3   OH235118   6.062   2.425   5.581
11726TIP3    H135119   6.086   2.486   5.511
11726TIP3    H235120   6.115   2.452   5.656
11727TIP3   OH235121   1.703   7.537   4.541
11727TIP3    H135122   1.703   7.442   4.557
11727TIP3    H235123   1.756   7.573   4.612
11728TIP3   OH235124   2.645   4.690   5.543
11728TIP3    H135125   2.577   4.757   5.535
11728TIP3    H235126   2.724   4.740   5.564
11729TIP3   OH235127   5.539   2.766   1.006
11729TIP3    H135128   5.558   2.716   1.085
11729TIP3    H235129   5.592   2.845   1.014
11730TIP3   OH235130   7.950   4.510   0.286
11730TIP3    H135131   7.895   4.578   0.246
11730TIP3    H235132   7.918   4.502   0.376
11731TIP3   OH235133   1.393   0.115   1.734
11731TIP3    H135134   1.457   0.087   1.799
11731TIP3    H235135   1.318   0.056   1.747
11732TIP3   OH235136   2.414   5.821   4.952
11732TIP3    H135137   2.403   5.888   5.020
11732TIP3    H235138   2.341   5.761   4.966
11733TIP3   OH235139   1.286   0.062   0.543
11733TIP3    H135140   1.324   0.105   0.619
11733TIP3    H235141   1.217   0.121   0.513
11734TIP3   OH235142   5.475   5.244   4.089
11734TIP3    H135143   5.418   5.317   4.064
11734TIP3    H235144   5.420   5.189   4.145
11735TIP3   OH235145   4.035   5.355   1.498
11735TIP3    H135146   3.994   5.441   1.507
11735TIP3    H235147   3.972   5.303   1.447
11736TIP3   OH235148  -0.047   6.508   3.805
11736TIP3    H135149   0.022   6.575   3.809
11736TIP3    H235150  -0.013   6.443   3.743
11737TIP3   OH235151   6.038   0.402   1.843
11737TIP3    H135152   6.091   0.375   1.917
11737TIP3    H235153   5.952   0.364   1.859
11738TIP3   OH235154   4.503   4.039   5.003
11738TIP3    H135155   4.485   3.946   5.013
11738TIP3    H235156   4.588   4.043   4.960
11739TIP3   OH235157   3.375   4.015   5.817
11739TIP3    H135158   3.430   4.092   5.829
11739TIP3    H235159   3.349   3.990   5.906
11740TIP3   OH235160   1.094   3.429   0.331
11740TIP3    H135161   1.159   3.416   0.263
11740TIP3    H235162   1.105   3.520   0.358
11741TIP3   OH235163   5.144   4.939   1.894
11741TIP3    H135164   5.100   4.948   1.809
11741TIP3    H235165   5.181   4.851   1.892
11742TIP3   OH235166   6.463   0.960   4.902
11742TIP3    H135167   6.492   1.010   4.826
11742TIP3    H235168   6.544   0.926   4.941
11743TIP3   OH235169   7.960   4.999   2.136
11743TIP3    H135170   7.897   4.930   2.114
11743TIP3    H235171   7.970   5.049   2.055
11744TIP3   OH235172   0.599   7.567   5.157
11744TIP3    H135173   0.580   7.474   5.147
11744TIP3    H235174   0.533   7.598   5.219
11745TIP3   OH235175   6.908   4.739   0.429
11745TIP3    H135176   6.862   4.816   0.461
11745TIP3    H235177   7.001   4.759   0.441
11746TIP3   OH235178   5.848   0.089   4.031
11746TIP3    H135179   5.939   0.109   4.054
11746TIP3    H235180   5.807   0.067   4.115
11747TIP3   OH235181   5.862   2.013   1.284
11747TIP3    H135182   5.946   1.984   1.248
11747TIP3    H235183   5.824   2.067   1.215
11748TIP3   OH235184   4.305   6.732   5.815
11748TIP3    H135185   4.359   6.677   5.758
11748TIP3    H235186   4.319   6.821   5.784
11749TIP3   OH235187   2.449   7.581   1.410
11749TIP3    H135188   2.448   7.625   1.495
11749TIP3    H235189   2.468   7.651   1.347
11750TIP3   OH235190   3.512   1.645   6.870
11750TIP3    H135191   3.491   1.587   6.796
11750TIP3    H235192   3.463   1.725   6.852
11751TIP3   OH235193   7.751   3.477   0.590
11751TIP3    H135194   7.718   3.387   0.582
11751TIP3    H235195   7.679   3.531   0.558
11752TIP3   OH235196   1.554   6.774   5.292
11752TIP3    H135197   1.470   6.789   5.249
11752TIP3    H235198   1.535   6.781   5.386
11753TIP3   OH235199   3.384   6.586   6.366
11753TIP3    H135200   3.380   6.507   6.420
11753TIP3    H235201   3.426   6.557   6.285
11754TIP3   OH235202   0.171   6.692   3.117
11754TIP3    H135203   0.144   6.633   3.188
11754TIP3    H235204   0.267   6.689   3.119
11755TIP3   OH235205   8.113   1.061   4.584
11755TIP3    H135206   8.172   1.058   4.508
11755TIP3    H235207   8.140   0.987   4.638
11756TIP3   OH235208   2.117   5.445   2.511
11756TIP3    H135209   2.117   5.497   2.431
11756TIP3    H235210   2.037   5.393   2.506
11757TIP3   OH235211   2.408   6.149   1.965
11757TIP3    H135212   2.436   6.239   1.981
11757TIP3    H235213   2.431   6.132   1.874
11758TIP3   OH235214   7.627   0.807   6.775
11758TIP3    H135215   7.543   0.842   6.805
11758TIP3    H235216   7.643   0.732   6.832
11759TIP3   OH235217   0.295   6.469   2.618
11759TIP3    H135218   0.287   6.507   2.706
11759TIP3    H235219   0.205   6.464   2.586
11760TIP3   OH235220   4.244   1.112   4.579
11760TIP3    H135221   4.322   1.134   4.631
11760TIP3    H235222   4.231   1.188   4.522
11761TIP3   OH235223   5.138   3.845   2.325
11761TIP3    H135224   5.063   3.787   2.328
11761TIP3    H235225   5.112   3.921   2.377
11762TIP3   OH235226   1.465   4.763   3.564
11762TIP3    H135227   1.556   4.751   3.537
11762TIP3    H235228   1.420   4.790   3.484
11763TIP3   OH235229   5.804   2.265   5.230
11763TIP3    H135230   5.837   2.329   5.293
11763TIP3    H235231   5.858   2.280   5.152
11764TIP3   OH235232   6.047   0.790   5.131
11764TIP3    H135233   6.122   0.841   5.100
11764TIP3    H235234   5.971   0.833   5.093
11765TIP3   OH235235   8.185   7.411   1.685
11765TIP3    H135236   8.155   7.321   1.667
11765TIP3    H235237   8.262   7.422   1.630
11766TIP3   OH235238   1.396   2.634   2.785
11766TIP3    H135239   1.437   2.720   2.775
11766TIP3    H235240   1.402   2.615   2.879
11767TIP3   OH235241   5.498   4.611   5.031
11767TIP3    H135242   5.465   4.539   5.085
11767TIP3    H235243   5.558   4.658   5.088
11768TIP3   OH235244   6.702   2.809   5.710
11768TIP3    H135245   6.746   2.841   5.789
11768TIP3    H235246   6.744   2.855   5.638
11769TIP3   OH235247   6.045   3.081   0.146
11769TIP3    H135248   6.047   2.995   0.187
11769TIP3    H235249   6.011   3.140   0.214
11770TIP3   OH235250   5.994   6.351   2.198
11770TIP3    H135251   6.057   6.284   2.171
11770TIP3    H235252   5.953   6.316   2.277
11771TIP3   OH235253   1.111   5.656   1.147
11771TIP3    H135254   1.096   5.568   1.112
11771TIP3    H235255   1.049   5.664   1.219
11772TIP3   OH235256   1.707   7.204   0.478
11772TIP3    H135257   1.655   7.151   0.418
11772TIP3    H235258   1.753   7.141   0.533
11773TIP3   OH235259   5.378   1.502   4.360
11773TIP3    H135260   5.403   1.517   4.451
11773TIP3    H235261   5.461   1.495   4.313
11774TIP3   OH235262   1.373   4.465   4.012
11774TIP3    H135263   1.371   4.547   3.963
11774TIP3    H235264   1.290   4.422   3.989
11775TIP3   OH235265   0.488   3.679   2.630
11775TIP3    H135266   0.520   3.768   2.645
11775TIP3    H235267   0.552   3.622   2.674
11776TIP3   OH235268   4.419   1.540   1.005
11776TIP3    H135269   4.503   1.549   0.961
11776TIP3    H235270   4.367   1.485   0.946
11777TIP3   OH235271   7.795   6.893   3.691
11777TIP3    H135272   7.717   6.900   3.635
11777TIP3    H235273   7.868   6.889   3.631
11778TIP3   OH235274   1.441   4.083   2.882
11778TIP3    H135275   1.390   4.140   2.825
11778TIP3    H235276   1.521   4.065   2.833
11779TIP3   OH235277   2.333   0.664   6.358
11779TIP3    H135278   2.393   0.738   6.369
11779TIP3    H235279   2.375   0.592   6.407
11780TIP3   OH235280   0.218   7.811   2.063
11780TIP3    H135281   0.155   7.846   2.126
11780TIP3    H235282   0.168   7.802   1.982
11781TIP3   OH235283   7.554   0.285   3.708
11781TIP3    H135284   7.529   0.349   3.775
11781TIP3    H235285   7.471   0.244   3.683
11782TIP3   OH235286   6.261   6.595   1.381
11782TIP3    H135287   6.351   6.564   1.374
11782TIP3    H235288   6.245   6.642   1.300
11783TIP3   OH235289   4.856   4.746   2.708
11783TIP3    H135290   4.817   4.679   2.652
11783TIP3    H235291   4.936   4.706   2.741
11784TIP3   OH235292   4.244   0.898   1.420
11784TIP3    H135293   4.211   0.817   1.380
11784TIP3    H235294   4.194   0.908   1.501
11785TIP3   OH235295   6.963   1.867   5.090
11785TIP3    H135296   6.965   1.827   5.003
11785TIP3    H235297   6.966   1.961   5.074
11786TIP3   OH235298   2.838   6.266   5.853
11786TIP3    H135299   2.773   6.196   5.854
11786TIP3    H235300   2.892   6.249   5.931
11787TIP3   OH235301   7.684   6.253   5.253
11787TIP3    H135302   7.763   6.229   5.204
11787TIP3    H235303   7.645   6.169   5.278
11788TIP3   OH235304   1.757   6.050   5.184
11788TIP3    H135305   1.718   6.016   5.104
11788TIP3    H235306   1.842   6.085   5.157
11789TIP3   OH235307   4.085   5.000   0.073
11789TIP3    H135308   4.019   4.958   0.128
11789TIP3    H235309   4.145   5.041   0.135
11790TIP3   OH235310   6.715   3.383   0.095
11790TIP3    H135311   6.665   3.354   0.171
11790TIP3    H235312   6.792   3.428   0.132
11791TIP3   OH235313   3.474   4.083   4.507
11791TIP3    H135314   3.472   4.017   4.438
11791TIP3    H235315   3.461   4.166   4.461
11792TIP3   OH235316   2.459   5.942   4.675
11792TIP3    H135317   2.427   5.931   4.764
11792TIP3    H235318   2.523   6.013   4.680
11793TIP3   OH235319   7.486   5.756   6.391
11793TIP3    H135320   7.490   5.829   6.452
11793TIP3    H235321   7.393   5.749   6.368
11794TIP3   OH235322   4.789   2.209   3.048
11794TIP3    H135323   4.734   2.135   3.075
11794TIP3    H235324   4.850   2.220   3.121
11795TIP3   OH235325   4.085   1.264   5.250
11795TIP3    H135326   4.064   1.173   5.229
11795TIP3    H235327   4.143   1.292   5.179
11796TIP3   OH235328   6.660   2.763   4.643
11796TIP3    H135329   6.661   2.668   4.647
11796TIP3    H235330   6.631   2.783   4.554
11797TIP3   OH235331   3.583   0.910   3.144
11797TIP3    H135332   3.538   0.942   3.066
11797TIP3    H235333   3.515   0.904   3.211
11798TIP3   OH235334   6.554   5.778   2.063
11798TIP3    H135335   6.614   5.839   2.105
11798TIP3    H235336   6.547   5.705   2.125
11799TIP3   OH235337   7.516   1.470   4.080
11799TIP3    H135338   7.456   1.511   4.017
11799TIP3    H235339   7.575   1.541   4.106
11800TIP3   OH235340   0.067   5.399   3.096
11800TIP3    H135341   0.106   5.318   3.131
11800TIP3    H235342   0.101   5.468   3.152
11801TIP3   OH235343   8.382   4.070   5.986
11801TIP3    H135344   8.394   4.013   5.911
11801TIP3    H235345   8.381   4.158   5.949
11802TIP3   OH235346   0.771   3.578   6.279
11802TIP3    H135347   0.862   3.601   6.259
11802TIP3    H235348   0.777   3.525   6.359
11803TIP3   OH235349   0.112   1.192   4.587
11803TIP3    H135350   0.080   1.162   4.672
11803TIP3    H235351   0.033   1.198   4.533
11804TIP3   OH235352   0.587   1.509   2.290
11804TIP3    H135353   0.531   1.431   2.285
11804TIP3    H235354   0.672   1.480   2.259
11805TIP3   OH235355   5.973   4.889   5.472
11805TIP3    H135356   6.039   4.950   5.503
11805TIP3    H235357   5.891   4.938   5.478
11806TIP3   OH235358   5.662   0.990   2.717
11806TIP3    H135359   5.752   0.971   2.744
11806TIP3    H235360   5.647   0.933   2.642
11807TIP3   OH235361   6.203   0.680   0.965
11807TIP3    H135362   6.137   0.621   0.928
11807TIP3    H235363   6.161   0.766   0.966
11808TIP3   OH235364   7.979   7.468   4.385
11808TIP3    H135365   7.998   7.557   4.416
11808TIP3    H235366   8.025   7.411   4.446
11809TIP3   OH235367   3.545   6.963   5.166
11809TIP3    H135368   3.575   6.901   5.099
11809TIP3    H235369   3.609   6.954   5.237
11810TIP3   OH235370   6.832   5.755   0.644
11810TIP3    H135371   6.772   5.706   0.588
11810TIP3    H235372   6.850   5.697   0.718
11811TIP3   OH235373   3.857   3.596   2.864
11811TIP3    H135374   3.788   3.654   2.833
11811TIP3    H235375   3.856   3.606   2.959
11812TIP3   OH235376   1.322   0.997   3.740
11812TIP3    H135377   1.356   0.957   3.660
11812TIP3    H235378   1.400   1.018   3.791
11813TIP3   OH235379   4.082   4.852   4.305
11813TIP3    H135380   4.177   4.853   4.317
11813TIP3    H235381   4.047   4.870   4.392
11814TIP3   OH235382   7.132   6.172   2.533
11814TIP3    H135383   7.063   6.109   2.556
11814TIP3    H235384   7.126   6.181   2.438
11815TIP3   OH235385   2.985   4.283   5.285
11815TIP3    H135386   2.926   4.212   5.312
11815TIP3    H235387   2.931   4.362   5.293
11816TIP3   OH235388   0.178   3.574   4.784
11816TIP3    H135389   0.085   3.556   4.795
11816TIP3    H235390   0.184   3.616   4.698
11817TIP3   OH235391   2.137   1.876   1.182
11817TIP3    H135392   2.144   1.885   1.277
11817TIP3    H235393   2.066   1.934   1.157
11818TIP3   OH235394   4.700   7.365   5.736
11818TIP3    H135395   4.715   7.334   5.825
11818TIP3    H235396   4.605   7.378   5.731
11819TIP3   OH235397   3.238   7.212   1.892
11819TIP3    H135398   3.270   7.289   1.845
11819TIP3    H235399   3.207   7.245   1.975
11820TIP3   OH235400   3.679   1.553   4.451
11820TIP3    H135401   3.754   1.498   4.474
11820TIP3    H235402   3.689   1.631   4.504
11821TIP3   OH235403   5.677   4.977   1.321
11821TIP3    H135404   5.713   5.061   1.350
11821TIP3    H235405   5.713   4.964   1.233
11822TIP3   OH235406   3.262   4.728   1.353
11822TIP3    H135407   3.233   4.809   1.394
11822TIP3    H235408   3.198   4.663   1.382
11823TIP3   OH235409   0.990   6.473   1.081
11823TIP3    H135410   0.950   6.401   1.130
11823TIP3    H235411   1.062   6.502   1.136
11824TIP3   OH235412   8.343   7.598   4.168
11824TIP3    H135413   8.435   7.573   4.178
11824TIP3    H235414   8.337   7.685   4.208
11825TIP3   OH235415   5.136   0.162   5.234
11825TIP3    H135416   5.092   0.172   5.319
11825TIP3    H235417   5.065   0.141   5.173
11826TIP3   OH235418   5.250   2.894   4.846
11826TIP3    H135419   5.319   2.854   4.898
11826TIP3    H235420   5.263   2.988   4.857
11827TIP3   OH235421   7.938   2.333   6.625
11827TIP3    H135422   7.965   2.294   6.542
11827TIP3    H235423   7.848   2.302   6.637
11828TIP3   OH235424   3.534   5.269   2.793
11828TIP3    H135425   3.609   5.319   2.760
11828TIP3    H235426   3.467   5.279   2.725
11829TIP3   OH235427   6.571   7.761   2.551
11829TIP3    H135428   6.643   7.785   2.609
11829TIP3    H235429   6.600   7.790   2.464
11830TIP3   OH235430   5.646   7.126   5.416
11830TIP3    H135431   5.669   7.219   5.417
11830TIP3    H235432   5.600   7.112   5.498
11831TIP3   OH235433   4.611   2.972   5.957
11831TIP3    H135434   4.522   3.004   5.939
11831TIP3    H235435   4.631   3.008   6.044
11832TIP3   OH235436   2.967   3.077   5.944
11832TIP3    H135437   2.922   3.122   6.015
11832TIP3    H235438   2.973   3.141   5.874
11833TIP3   OH235439   6.924   2.895   0.125
11833TIP3    H135440   6.984   2.885   0.051
11833TIP3    H235441   6.849   2.942   0.088
11834TIP3   OH235442   3.771   7.737   4.344
11834TIP3    H135443   3.679   7.726   4.320
11834TIP3    H235444   3.781   7.831   4.358
11835TIP3   OH235445   1.815   7.809   1.610
11835TIP3    H135446   1.901   7.769   1.620
11835TIP3    H235447   1.833   7.898   1.579
11836TIP3   OH235448   4.988   3.013   5.625
11836TIP3    H135449   5.008   3.098   5.663
11836TIP3    H235450   4.892   3.011   5.620
11837TIP3   OH235451   5.460   5.009   2.289
11837TIP3    H135452   5.368   4.986   2.300
11837TIP3    H235453   5.496   5.008   2.377
11838TIP3   OH235454   7.460   4.696   6.117
11838TIP3    H135455   7.514   4.680   6.040
11838TIP3    H235456   7.510   4.760   6.169
11839TIP3   OH235457   1.569   7.146   4.957
11839TIP3    H135458   1.621   7.218   4.922
11839TIP3    H235459   1.492   7.142   4.900
11840TIP3   OH235460   1.370   2.393   1.643
11840TIP3    H135461   1.388   2.438   1.561
11840TIP3    H235462   1.447   2.337   1.657
11841TIP3   OH235463   4.380   5.761   3.290
11841TIP3    H135464   4.442   5.747   3.361
11841TIP3    H235465   4.366   5.856   3.289
11842TIP3   OH235466   4.905   2.864   1.343
11842TIP3    H135467   4.886   2.790   1.286
11842TIP3    H235468   4.844   2.932   1.315
11843TIP3   OH235469   6.066   2.737   3.259
11843TIP3    H135470   6.133   2.805   3.270
11843TIP3    H235471   6.015   2.741   3.339
11844TIP3   OH235472   3.635   5.595   5.050
11844TIP3    H135473   3.633   5.541   5.129
11844TIP3    H235474   3.691   5.669   5.073
11845TIP3   OH235475   8.225   0.672   3.339
11845TIP3    H135476   8.238   0.757   3.381
11845TIP3    H235477   8.268   0.680   3.254
11846TIP3   OH235478   1.140   0.136   0.229
11846TIP3    H135479   1.161   0.219   0.186
11846TIP3    H235480   1.103   0.161   0.313
11847TIP3   OH235481   5.790   1.953   5.287
11847TIP3    H135482   5.821   1.983   5.372
11847TIP3    H235483   5.865   1.966   5.229
11848TIP3   OH235484   3.960   7.786   0.848
11848TIP3    H135485   3.920   7.847   0.910
11848TIP3    H235486   4.029   7.837   0.805
11849TIP3   OH235487   2.954   5.108   0.071
11849TIP3    H135488   2.869   5.103   0.115
11849TIP3    H235489   2.948   5.046  -0.001
11850TIP3   OH235490   1.493   2.272   3.792
11850TIP3    H135491   1.540   2.209   3.847
11850TIP3    H235492   1.496   2.234   3.704
11851TIP3   OH235493   4.645   6.366   0.559
11851TIP3    H135494   4.635   6.443   0.615
11851TIP3    H235495   4.673   6.402   0.475
11852TIP3   OH235496   6.005   0.560   6.094
11852TIP3    H135497   5.944   0.613   6.042
11852TIP3    H235498   6.030   0.617   6.167
11853TIP3   OH235499   1.428   1.086   3.962
11853TIP3    H135500   1.343   1.075   4.004
11853TIP3    H235501   1.479   1.138   4.024
11854TIP3   OH235502   1.872   2.364   0.413
11854TIP3    H135503   1.866   2.395   0.503
11854TIP3    H235504   1.959   2.323   0.407
11855TIP3   OH235505   7.365   5.665   5.325
11855TIP3    H135506   7.311   5.618   5.389
11855TIP3    H235507   7.442   5.693   5.374
11856TIP3   OH235508   0.160   6.346   1.779
11856TIP3    H135509   0.222   6.375   1.712
11856TIP3    H235510   0.207   6.354   1.861
11857TIP3   OH235511   0.062   2.902   2.460
11857TIP3    H135512   0.109   2.974   2.417
11857TIP3    H235513   0.128   2.833   2.469
11858TIP3   OH235514   8.405   1.726   0.741
11858TIP3    H135515   8.367   1.693   0.823
11858TIP3    H235516   8.469   1.659   0.716
11859TIP3   OH235517   6.748   6.504   4.752
11859TIP3    H135518   6.815   6.438   4.768
11859TIP3    H235519   6.788   6.586   4.783
11860TIP3   OH235520   1.519   1.464   2.546
11860TIP3    H135521   1.477   1.381   2.570
11860TIP3    H235522   1.597   1.437   2.497
11861TIP3   OH235523   1.172   6.543   4.125
11861TIP3    H135524   1.142   6.479   4.060
11861TIP3    H235525   1.092   6.568   4.172
11862TIP3   OH235526   0.106   7.943   3.536
11862TIP3    H135527   0.162   7.940   3.613
11862TIP3    H235528   0.038   7.878   3.553
11863TIP3   OH235529   7.797   3.471   0.947
11863TIP3    H135530   7.848   3.552   0.940
11863TIP3    H235531   7.740   3.471   0.871
11864TIP3   OH235532   3.168   3.423   5.802
11864TIP3    H135533   3.237   3.456   5.745
11864TIP3    H235534   3.088   3.434   5.751
11865TIP3   OH235535   0.467   4.964   0.039
11865TIP3    H135536   0.559   4.981   0.054
11865TIP3    H235537   0.421   5.016   0.105
11866TIP3   OH235538   6.491   2.511   2.460
11866TIP3    H135539   6.417   2.554   2.503
11866TIP3    H235540   6.462   2.422   2.444
11867TIP3   OH235541   0.826   7.413   5.782
11867TIP3    H135542   0.836   7.341   5.845
11867TIP3    H235543   0.915   7.432   5.753
11868TIP3   OH235544   5.367   1.106   2.090
11868TIP3    H135545   5.391   1.104   2.183
11868TIP3    H235546   5.292   1.166   2.086
11869TIP3   OH235547   3.467   4.054   4.799
11869TIP3    H135548   3.437   4.130   4.849
11869TIP3    H235549   3.443   4.074   4.709
11870TIP3   OH235550   4.696   0.081   3.136
11870TIP3    H135551   4.602   0.079   3.116
11870TIP3    H235552   4.739   0.065   3.052
11871TIP3   OH235553   1.762   2.940   2.527
11871TIP3    H135554   1.706   2.948   2.450
11871TIP3    H235555   1.806   3.025   2.534
11872TIP3   OH235556   0.781   2.207   6.164
11872TIP3    H135557   0.746   2.213   6.253
11872TIP3    H235558   0.717   2.155   6.116
11873TIP3   OH235559   6.461   1.200   1.882
11873TIP3    H135560   6.397   1.141   1.922
11873TIP3    H235561   6.411   1.250   1.817
11874TIP3   OH235562   1.220   4.728   5.853
11874TIP3    H135563   1.198   4.682   5.934
11874TIP3    H235564   1.168   4.684   5.786
11875TIP3   OH235565   4.330   1.598   3.126
11875TIP3    H135566   4.339   1.502   3.122
11875TIP3    H235567   4.301   1.616   3.215
11876TIP3   OH235568   6.797   3.131   5.294
11876TIP3    H135569   6.870   3.111   5.235
11876TIP3    H235570   6.799   3.061   5.359
11877TIP3   OH235571   0.403   7.080   2.386
11877TIP3    H135572   0.337   7.034   2.438
11877TIP3    H235573   0.467   7.112   2.450
11878TIP3   OH235574   0.256   7.347   2.089
11878TIP3    H135575   0.209   7.423   2.054
11878TIP3    H235576   0.349   7.367   2.074
11879TIP3   OH235577   2.639   6.910   6.751
11879TIP3    H135578   2.663   6.818   6.747
11879TIP3    H235579   2.608   6.923   6.840
11880TIP3   OH235580   3.018   5.026   1.383
11880TIP3    H135581   3.017   5.105   1.329
11880TIP3    H235582   3.110   5.007   1.396
11881TIP3   OH235583   3.295   2.560   4.356
11881TIP3    H135584   3.363   2.613   4.398
11881TIP3    H235585   3.314   2.470   4.383
11882TIP3   OH235586   0.664   1.145   5.313
11882TIP3    H135587   0.627   1.212   5.370
11882TIP3    H235588   0.623   1.160   5.228
11883TIP3   OH235589   4.279   2.002   1.931
11883TIP3    H135590   4.209   2.001   1.996
11883TIP3    H235591   4.264   2.083   1.882
11884TIP3   OH235592   8.217   5.145   3.698
11884TIP3    H135593   8.155   5.160   3.628
11884TIP3    H235594   8.211   5.051   3.716
11885TIP3   OH235595   2.641   5.626   0.377
11885TIP3    H135596   2.685   5.643   0.460
11885TIP3    H235597   2.699   5.665   0.311
11886TIP3   OH235598   4.004   4.513   0.618
11886TIP3    H135599   4.070   4.580   0.636
11886TIP3    H235600   4.050   4.447   0.566
11887TIP3   OH235601   6.018   2.007   4.082
11887TIP3    H135602   5.931   2.042   4.101
11887TIP3    H235603   6.076   2.084   4.086
11888TIP3   OH235604   2.435   0.684   4.488
11888TIP3    H135605   2.409   0.614   4.427
11888TIP3    H235606   2.366   0.750   4.480
11889TIP3   OH235607   4.350   1.702   3.682
11889TIP3    H135608   4.287   1.636   3.711
11889TIP3    H235609   4.435   1.667   3.706
11890TIP3   OH235610   5.027   1.243   5.109
11890TIP3    H135611   5.102   1.241   5.050
11890TIP3    H235612   4.951   1.228   5.051
11891TIP3   OH235613   4.992   1.763   2.973
11891TIP3    H135614   4.999   1.758   2.877
11891TIP3    H235615   5.076   1.798   3.001
11892TIP3   OH235616   2.202   5.628   1.978
11892TIP3    H135617   2.247   5.693   2.031
11892TIP3    H235618   2.202   5.664   1.889
11893TIP3   OH235619   7.823   6.647   2.672
11893TIP3    H135620   7.887   6.660   2.742
11893TIP3    H235621   7.873   6.602   2.603
11894TIP3   OH235622   8.199   7.871   4.389
11894TIP3    H135623   8.260   7.808   4.427
11894TIP3    H235624   8.227   7.880   4.298
11895TIP3   OH235625   4.473   0.555   0.747
11895TIP3    H135626   4.553   0.504   0.732
11895TIP3    H235627   4.411   0.491   0.783
11896TIP3   OH235628   6.587   2.347   5.436
11896TIP3    H135629   6.663   2.369   5.490
11896TIP3    H235630   6.619   2.355   5.346
11897TIP3   OH235631   4.896   7.491   3.917
11897TIP3    H135632   4.982   7.528   3.939
11897TIP3    H235633   4.910   7.396   3.919
11898TIP3   OH235634   2.917   2.191   6.642
11898TIP3    H135635   2.930   2.285   6.656
11898TIP3    H235636   3.003   2.153   6.660
11899TIP3   OH235637   3.150   6.908   0.457
11899TIP3    H135638   3.182   6.850   0.526
11899TIP3    H235639   3.065   6.871   0.432
11900TIP3   OH235640   3.433   2.987   1.572
11900TIP3    H135641   3.518   3.014   1.539
11900TIP3    H235642   3.385   2.958   1.495
11901TIP3   OH235643   1.809   5.025   4.540
11901TIP3    H135644   1.733   4.975   4.511
11901TIP3    H235645   1.842   5.067   4.461
11902TIP3   OH235646   3.140   6.048   3.012
11902TIP3    H135647   3.098   6.101   3.080
11902TIP3    H235648   3.147   6.107   2.937
11903TIP3   OH235649   2.845   2.527   5.053
11903TIP3    H135650   2.786   2.452   5.046
11903TIP3    H235651   2.806   2.581   5.122
11904TIP3   OH235652   5.832   3.328   2.232
11904TIP3    H135653   5.888   3.361   2.302
11904TIP3    H235654   5.761   3.283   2.278
11905TIP3   OH235655   5.117   1.424   0.985
11905TIP3    H135656   5.041   1.368   0.999
11905TIP3    H235657   5.175   1.406   1.059
11906TIP3   OH235658   1.912   2.631   3.892
11906TIP3    H135659   1.977   2.621   3.823
11906TIP3    H235660   1.936   2.713   3.935
11907TIP3   OH235661   5.953   0.386   2.665
11907TIP3    H135662   5.902   0.340   2.598
11907TIP3    H235663   5.931   0.340   2.746
11908TIP3   OH235664   8.181   3.252   1.337
11908TIP3    H135665   8.085   3.256   1.335
11908TIP3    H235666   8.202   3.159   1.334
11909TIP3   OH235667   5.176   6.118   5.916
11909TIP3    H135668   5.230   6.100   5.993
11909TIP3    H235669   5.237   6.117   5.843
11910TIP3   OH235670   3.291   7.440   4.777
11910TIP3    H135671   3.346   7.361   4.773
11910TIP3    H235672   3.204   7.410   4.753
11911TIP3   OH235673   7.184   0.187   3.111
11911TIP3    H135674   7.252   0.232   3.060
11911TIP3    H235675   7.136   0.257   3.155
11912TIP3   OH235676   4.474   7.531   2.909
11912TIP3    H135677   4.501   7.479   2.984
11912TIP3    H235678   4.401   7.482   2.871
11913TIP3   OH235679   4.669   7.195   4.829
11913TIP3    H135680   4.758   7.227   4.820
11913TIP3    H235681   4.616   7.273   4.846
11914TIP3   OH235682   1.005   2.459   2.073
11914TIP3    H135683   1.072   2.526   2.087
11914TIP3    H235684   1.033   2.411   1.995
11915TIP3   OH235685   4.207   1.157   3.706
11915TIP3    H135686   4.142   1.225   3.724
11915TIP3    H235687   4.240   1.133   3.792
11916TIP3   OH235688   3.337   0.986   6.005
11916TIP3    H135689   3.312   1.065   5.957
11916TIP3    H235690   3.432   0.979   5.992
11917TIP3   OH235691   2.346   2.680   5.486
11917TIP3    H135692   2.430   2.674   5.532
11917TIP3    H235693   2.281   2.656   5.552
11918TIP3   OH235694   1.510   7.284   6.755
11918TIP3    H135695   1.567   7.349   6.714
11918TIP3    H235696   1.440   7.270   6.692
11919TIP3   OH235697   0.518   1.135   2.141
11919TIP3    H135698   0.610   1.149   2.165
11919TIP3    H235699   0.519   1.128   2.045
11920TIP3   OH235700   6.534   5.075   6.099
11920TIP3    H135701   6.460   5.089   6.159
11920TIP3    H235702   6.524   4.984   6.071
11921TIP3   OH235703   0.592   7.136   6.553
11921TIP3    H135704   0.563   7.176   6.471
11921TIP3    H235705   0.686   7.151   6.555
11922TIP3   OH235706   7.347   4.820   5.221
11922TIP3    H135707   7.331   4.786   5.309
11922TIP3    H235708   7.321   4.912   5.226
11923TIP3   OH235709   1.892   1.082   3.219
11923TIP3    H135710   1.924   1.080   3.310
11923TIP3    H235711   1.828   1.011   3.215
11924TIP3   OH235712   7.983   1.188   5.541
11924TIP3    H135713   8.035   1.199   5.621
11924TIP3    H235714   7.927   1.266   5.538
11925TIP3   OH235715   6.144   5.410   5.228
11925TIP3    H135716   6.214   5.420   5.293
11925TIP3    H235717   6.091   5.337   5.260
11926TIP3   OH235718   2.344   4.785   3.714
11926TIP3    H135719   2.424   4.834   3.695
11926TIP3    H235720   2.354   4.759   3.806
11927TIP3   OH235721   2.222   5.119   3.664
11927TIP3    H135722   2.267   5.082   3.740
11927TIP3    H235723   2.135   5.079   3.667
11928TIP3   OH235724   6.461   4.200   3.327
11928TIP3    H135725   6.391   4.265   3.339
11928TIP3    H235726   6.484   4.173   3.416
11929TIP3   OH235727   4.888   2.952   4.517
11929TIP3    H135728   4.913   3.042   4.499
11929TIP3    H235729   4.939   2.927   4.594
11930TIP3   OH235730   2.588   7.269   5.906
11930TIP3    H135731   2.617   7.332   5.841
11930TIP3    H235732   2.501   7.300   5.931
11931TIP3   OH235733   7.525   6.894   6.806
11931TIP3    H135734   7.590   6.825   6.818
11931TIP3    H235735   7.545   6.959   6.874
11932TIP3   OH235736   8.328   5.436   3.437
11932TIP3    H135737   8.277   5.471   3.509
11932TIP3    H235738   8.264   5.411   3.371
11933TIP3   OH235739   1.155   1.292   4.286
11933TIP3    H135740   1.097   1.360   4.320
11933TIP3    H235741   1.136   1.289   4.192
11934TIP3   OH235742   5.876   2.482   4.225
11934TIP3    H135743   5.797   2.535   4.230
11934TIP3    H235744   5.938   2.535   4.175
11935TIP3   OH235745   0.960   7.309   6.244
11935TIP3    H135746   0.933   7.379   6.304
11935TIP3    H235747   0.961   7.230   6.298
11936TIP3   OH235748   6.372   6.115   4.662
11936TIP3    H135749   6.323   6.185   4.705
11936TIP3    H235750   6.451   6.157   4.628
11937TIP3   OH235751   5.904   0.511   3.683
11937TIP3    H135752   5.843   0.463   3.739
11937TIP3    H235753   5.941   0.578   3.740
11938TIP3   OH235754   6.015   0.708   3.382
11938TIP3    H135755   6.025   0.797   3.347
11938TIP3    H235756   6.026   0.719   3.476
11939TIP3   OH235757   0.382   6.495   5.363
11939TIP3    H135758   0.308   6.538   5.320
11939TIP3    H235759   0.401   6.419   5.308
11940TIP3   OH235760   3.672   3.757   2.731
11940TIP3    H135761   3.702   3.834   2.683
11940TIP3    H235762   3.593   3.787   2.777
11941TIP3   OH235763   4.683   6.554   1.019
11941TIP3    H135764   4.645   6.516   0.940
11941TIP3    H235765   4.671   6.487   1.086
11942TIP3   OH235766   4.881   7.578   3.018
11942TIP3    H135767   4.868   7.581   3.113
11942TIP3    H235768   4.953   7.639   3.002
11943TIP3   OH235769   8.230   1.287   3.455
11943TIP3    H135770   8.246   1.360   3.395
11943TIP3    H235771   8.305   1.287   3.514
11944TIP3   OH235772   1.960   2.737   1.523
11944TIP3    H135773   1.980   2.727   1.616
11944TIP3    H235774   2.011   2.812   1.495
11945TIP3   OH235775   3.072   1.569   0.721
11945TIP3    H135776   3.086   1.656   0.683
11945TIP3    H235777   3.104   1.576   0.811
11946TIP3   OH235778   5.393   4.967   6.138
11946TIP3    H135779   5.335   5.028   6.092
11946TIP3    H235780   5.342   4.939   6.215
11947TIP3   OH235781   5.515   6.437   4.078
11947TIP3    H135782   5.518   6.396   4.165
11947TIP3    H235783   5.578   6.387   4.026
11948TIP3   OH235784   4.766   7.666   2.356
11948TIP3    H135785   4.733   7.709   2.435
11948TIP3    H235786   4.817   7.592   2.388
11949TIP3   OH235787   0.346   4.615   1.236
11949TIP3    H135788   0.321   4.566   1.314
11949TIP3    H235789   0.413   4.560   1.194
11950TIP3   OH235790   0.500   2.549   1.370
11950TIP3    H135791   0.594   2.540   1.386
11950TIP3    H235792   0.487   2.509   1.285
11951TIP3   OH235793   0.635   4.122   5.500
11951TIP3    H135794   0.596   4.098   5.416
11951TIP3    H235795   0.641   4.040   5.549
11952TIP3   OH235796   8.162   4.017   4.809
11952TIP3    H135797   8.181   4.029   4.716
11952TIP3    H235798   8.099   4.085   4.830
11953TIP3   OH235799   1.014   3.246   4.462
11953TIP3    H135800   0.980   3.260   4.374
11953TIP3    H235801   0.960   3.175   4.498
11954TIP3   OH235802   0.836   3.335   5.156
11954TIP3    H135803   0.848   3.289   5.239
11954TIP3    H235804   0.925   3.355   5.127
11955TIP3   OH235805   5.612   7.856   6.301
11955TIP3    H135806   5.658   7.834   6.220
11955TIP3    H235807   5.681   7.888   6.360
11956TIP3   OH235808   7.421   3.519   1.617
11956TIP3    H135809   7.349   3.539   1.677
11956TIP3    H235810   7.382   3.526   1.530
11957TIP3   OH235811   0.562   1.537   0.491
11957TIP3    H135812   0.494   1.589   0.534
11957TIP3    H235813   0.643   1.563   0.535
11958TIP3   OH235814   3.627   1.460   3.424
11958TIP3    H135815   3.652   1.465   3.332
11958TIP3    H235816   3.660   1.542   3.462
11959TIP3   OH235817   1.621   7.408   5.449
11959TIP3    H135818   1.641   7.314   5.447
11959TIP3    H235819   1.540   7.414   5.499
11960TIP3   OH235820   6.860   3.592   2.809
11960TIP3    H135821   6.936   3.561   2.760
11960TIP3    H235822   6.897   3.640   2.883
11961TIP3   OH235823   1.102   1.477   4.758
11961TIP3    H135824   1.031   1.491   4.820
11961TIP3    H235825   1.181   1.472   4.812
11962TIP3   OH235826   3.661   2.862   0.709
11962TIP3    H135827   3.605   2.784   0.709
11962TIP3    H235828   3.749   2.828   0.694
11963TIP3   OH235829   5.006   7.277   4.279
11963TIP3    H135830   4.914   7.272   4.254
11963TIP3    H235831   5.045   7.197   4.245
11964TIP3   OH235832   0.008   2.489   2.796
11964TIP3    H135833   0.054   2.405   2.790
11964TIP3    H235834  -0.071   2.477   2.743
11965TIP3   OH235835   6.000   5.182   3.007
11965TIP3    H135836   6.060   5.109   3.025
11965TIP3    H235837   5.913   5.147   3.028
11966TIP3   OH235838   1.914   4.640   2.540
11966TIP3    H135839   1.959   4.657   2.623
11966TIP3    H235840   1.836   4.695   2.544
11967TIP3   OH235841   8.369   2.347   6.450
11967TIP3    H135842   8.433   2.411   6.480
11967TIP3    H235843   8.410   2.262   6.468
11968TIP3   OH235844   7.965   1.928   4.327
11968TIP3    H135845   7.880   1.970   4.321
11968TIP3    H235846   8.011   1.978   4.395
11969TIP3   OH235847   6.022   5.234   2.307
11969TIP3    H135848   5.991   5.214   2.395
11969TIP3    H235849   6.024   5.329   2.303
11970TIP3   OH235850   0.087   6.277   3.227
11970TIP3    H135851   0.139   6.352   3.256
11970TIP3    H235852   0.151   6.213   3.195
11971TIP3   OH235853   6.402   5.369   1.557
11971TIP3    H135854   6.315   5.349   1.523
11971TIP3    H235855   6.431   5.288   1.600
11972TIP3   OH235856   4.833   7.961   0.745
11972TIP3    H135857   4.824   7.926   0.657
11972TIP3    H235858   4.838   7.885   0.802
11973TIP3   OH235859   1.094   6.564   3.336
11973TIP3    H135860   1.091   6.622   3.260
11973TIP3    H235861   1.110   6.623   3.410
11974TIP3   OH235862   2.804   1.473   5.599
11974TIP3    H135863   2.827   1.566   5.600
11974TIP3    H235864   2.793   1.451   5.506
11975TIP3   OH235865   0.495   5.097   4.060
11975TIP3    H135866   0.463   5.185   4.083
11975TIP3    H235867   0.591   5.104   4.068
11976TIP3   OH235868   7.002   1.113   5.544
11976TIP3    H135869   6.977   1.126   5.636
11976TIP3    H235870   7.097   1.108   5.546
11977TIP3   OH235871   3.084   1.749   3.740
11977TIP3    H135872   3.082   1.754   3.835
11977TIP3    H235873   3.178   1.751   3.718
11978TIP3   OH235874   2.984   3.000   4.753
11978TIP3    H135875   2.905   2.956   4.784
11978TIP3    H235876   2.956   3.089   4.733
11979TIP3   OH235877   5.791   7.281   2.870
11979TIP3    H135878   5.821   7.196   2.839
11979TIP3    H235879   5.815   7.342   2.800
11980TIP3   OH235880   3.550   6.684   5.342
11980TIP3    H135881   3.500   6.625   5.400
11980TIP3    H235882   3.487   6.709   5.274
11981TIP3   OH235883   4.673   6.695   3.462
11981TIP3    H135884   4.718   6.687   3.546
11981TIP3    H235885   4.612   6.768   3.474
11982TIP3   OH235886   1.442   1.669   2.749
11982TIP3    H135887   1.499   1.657   2.673
11982TIP3    H235888   1.371   1.607   2.736
11983TIP3   OH235889   8.338   4.849   2.297
11983TIP3    H135890   8.388   4.811   2.370
11983TIP3    H235891   8.396   4.841   2.222
11984TIP3   OH235892   3.254   3.333   4.367
11984TIP3    H135893   3.199   3.269   4.323
11984TIP3    H235894   3.252   3.306   4.459
11985TIP3   OH235895   3.682   1.469   1.746
11985TIP3    H135896   3.669   1.414   1.669
11985TIP3    H235897   3.625   1.431   1.812
11986TIP3   OH235898   7.046   1.500   0.500
11986TIP3    H135899   6.964   1.471   0.539
11986TIP3    H235900   7.067   1.582   0.545
11987TIP3   OH235901   6.385   4.566   3.855
11987TIP3    H135902   6.425   4.604   3.777
11987TIP3    H235903   6.453   4.574   3.923
11988TIP3   OH235904   5.786   0.122   0.392
11988TIP3    H135905   5.812   0.146   0.481
11988TIP3    H235906   5.760   0.030   0.398
11989TIP3   OH235907   1.199   5.294   1.900
11989TIP3    H135908   1.259   5.368   1.886
11989TIP3    H235909   1.175   5.266   1.811
11990TIP3   OH235910   8.056   4.523   6.640
11990TIP3    H135911   8.048   4.475   6.557
11990TIP3    H235912   8.076   4.455   6.705
11991TIP3   OH235913   2.276   3.661   0.377
11991TIP3    H135914   2.302   3.573   0.349
11991TIP3    H235915   2.235   3.648   0.463
11992TIP3   OH235916   3.957   4.504   2.018
11992TIP3    H135917   3.878   4.523   1.967
11992TIP3    H235918   4.026   4.552   1.973
11993TIP3   OH235919   6.285   4.692   2.673
11993TIP3    H135920   6.288   4.649   2.759
11993TIP3    H235921   6.192   4.706   2.657
11994TIP3   OH235922   6.803   5.525   2.918
11994TIP3    H135923   6.727   5.487   2.962
11994TIP3    H235924   6.767   5.590   2.859
11995TIP3   OH235925   3.429   6.277   0.877
11995TIP3    H135926   3.438   6.276   0.973
11995TIP3    H235927   3.423   6.370   0.855
11996TIP3   OH235928   3.589   7.717   6.336
11996TIP3    H135929   3.581   7.644   6.275
11996TIP3    H235930   3.529   7.783   6.303
11997TIP3   OH235931   5.913   1.560   5.314
11997TIP3    H135932   5.981   1.493   5.318
11997TIP3    H235933   5.948   1.625   5.252
11998TIP3   OH235934   3.469  -0.027   6.252
11998TIP3    H135935   3.467   0.068   6.266
11998TIP3    H235936   3.429  -0.039   6.166
11999TIP3   OH235937   3.893   7.137   3.113
11999TIP3    H135938   3.973   7.190   3.116
11999TIP3    H235939   3.830   7.186   3.166
12000TIP3   OH235940   5.201   1.286   3.554
12000TIP3    H135941   5.122   1.277   3.605
12000TIP3    H235942   5.212   1.381   3.543
12001TIP3   OH235943   3.959   3.095   4.283
12001TIP3    H135944   3.882   3.057   4.241
12001TIP3    H235945   4.014   3.020   4.304
12002TIP3   OH235946   5.065   5.872   5.829
12002TIP3    H135947   4.980   5.848   5.791
12002TIP3    H235948   5.063   5.967   5.834
12003TIP3   OH235949   0.812   0.125   4.383
12003TIP3    H135950   0.796   0.185   4.310
12003TIP3    H235951   0.744   0.146   4.446
12004TIP3   OH235952   2.935   0.050   1.050
12004TIP3    H135953   2.975   0.074   1.133
12004TIP3    H235954   2.961   0.120   0.990
12005TIP3   OH235955   0.027   6.933   5.611
12005TIP3    H135956   0.110   6.929   5.659
12005TIP3    H235957   0.034   6.864   5.545
12006TIP3   OH235958   7.612   7.682   1.852
12006TIP3    H135959   7.622   7.590   1.878
12006TIP3    H235960   7.614   7.679   1.756
12007TIP3   OH235961   7.751   6.221   3.511
12007TIP3    H135962   7.672   6.268   3.535
12007TIP3    H235963   7.720   6.138   3.474
12008TIP3   OH235964   5.041   6.835   6.129
12008TIP3    H135965   5.118   6.786   6.160
12008TIP3    H235966   4.970   6.806   6.186
12009TIP3   OH235967   0.544   7.489   1.454
12009TIP3    H135968   0.625   7.538   1.465
12009TIP3    H235969   0.552   7.448   1.368
12010TIP3   OH235970   1.943   2.528   3.131
12010TIP3    H135971   1.889   2.544   3.208
12010TIP3    H235972   2.025   2.575   3.148
12011TIP3   OH235973   7.075   2.807   6.023
12011TIP3    H135974   7.034   2.755   5.953
12011TIP3    H235975   7.129   2.871   5.977
12012TIP3   OH235976   5.021   3.668   2.949
12012TIP3    H135977   4.990   3.591   2.997
12012TIP3    H235978   5.104   3.691   2.992
12013TIP3   OH235979   0.658   3.376   5.689
12013TIP3    H135980   0.661   3.406   5.598
12013TIP3    H235981   0.662   3.457   5.741
12014TIP3   OH235982   3.051   7.295   2.104
12014TIP3    H135983   2.984   7.280   2.171
12014TIP3    H235984   3.101   7.370   2.137
12015TIP3   OH235985   4.623   3.897   6.236
12015TIP3    H135986   4.604   3.969   6.176
12015TIP3    H235987   4.683   3.840   6.187
12016TIP3   OH235988   5.750   0.085   4.979
12016TIP3    H135989   5.760  -0.003   4.943
12016TIP3    H235990   5.795   0.141   4.917
12017TIP3   OH235991   6.535   3.197   0.623
12017TIP3    H135992   6.560   3.268   0.564
12017TIP3    H235993   6.453   3.227   0.663
12018TIP3   OH235994   4.115   1.691   2.515
12018TIP3    H135995   4.088   1.600   2.504
12018TIP3    H235996   4.198   1.697   2.468
12019TIP3   OH235997   7.747   3.685   1.947
12019TIP3    H135998   7.654   3.671   1.968
12019TIP3    H235999   7.746   3.753   1.879
12020TIP3   OH236000   0.524   6.191   4.687
12020TIP3    H136001   0.530   6.280   4.722
12020TIP3    H236002   0.608   6.177   4.644
12021TIP3   OH236003   3.999   3.743   0.586
12021TIP3    H136004   3.981   3.653   0.562
12021TIP3    H236005   4.073   3.738   0.646
12022TIP3   OH236006   2.893   6.560   1.230
12022TIP3    H136007   2.815   6.603   1.195
12022TIP3    H236008   2.943   6.534   1.152
12023TIP3   OH236009   7.376   1.424   3.572
12023TIP3    H136010   7.366   1.515   3.545
12023TIP3    H236011   7.325   1.374   3.509
12024TIP3   OH236012   5.310   0.323   0.317
12024TIP3    H136013   5.361   0.314   0.397
12024TIP3    H236014   5.365   0.378   0.260
12025TIP3   OH236015   0.074   2.765   2.869
12025TIP3    H136016   0.037   2.782   2.782
12025TIP3    H236017   0.063   2.671   2.882
12026TIP3   OH236018   1.536   3.755   4.164
12026TIP3    H136019   1.468   3.703   4.122
12026TIP3    H236020   1.616   3.734   4.115
12027TIP3   OH236021   2.922   5.024   2.966
12027TIP3    H136022   2.954   4.985   2.885
12027TIP3    H236023   2.917   4.951   3.027
12028TIP3   OH236024   6.717   3.279   1.161
12028TIP3    H136025   6.755   3.250   1.244
12028TIP3    H236026   6.768   3.356   1.137
12029TIP3   OH236027   4.608   4.650   0.354
12029TIP3    H136028   4.514   4.660   0.370
12029TIP3    H236029   4.613   4.600   0.273
12030TIP3   OH236030   5.401   6.902   0.801
12030TIP3    H136031   5.425   6.864   0.716
12030TIP3    H236032   5.315   6.866   0.820
12031TIP3   OH236033   4.539   0.573   2.684
12031TIP3    H136034   4.530   0.604   2.594
12031TIP3    H236035   4.449   0.563   2.715
12032TIP3   OH236036   3.636   3.496   5.985
12032TIP3    H136037   3.628   3.590   5.998
12032TIP3    H236038   3.644   3.459   6.073
12033TIP3   OH236039   4.032   3.933   4.562
12033TIP3    H136040   4.029   3.906   4.470
12033TIP3    H236041   3.943   3.962   4.581
12034TIP3   OH236042   7.429   0.648   4.175
12034TIP3    H136043   7.519   0.634   4.146
12034TIP3    H236044   7.429   0.623   4.267
12035TIP3   OH236045   5.726   7.626   2.936
12035TIP3    H136046   5.677   7.571   2.875
12035TIP3    H236047   5.733   7.574   3.016
12036TIP3   OH236048   2.067   3.089   4.729
12036TIP3    H136049   2.157   3.116   4.712
12036TIP3    H236050   2.071   2.994   4.731
12037TIP3   OH236051   6.834   6.443   0.561
12037TIP3    H136052   6.800   6.391   0.488
12037TIP3    H236053   6.762   6.447   0.624
12038TIP3   OH236054   5.760   5.275   2.029
12038TIP3    H136055   5.683   5.264   1.974
12038TIP3    H236056   5.821   5.326   1.974
12039TIP3   OH236057   3.974   5.554   2.231
12039TIP3    H136058   4.049   5.503   2.261
12039TIP3    H236059   3.956   5.522   2.143
12040TIP3   OH236060   7.793   5.357   1.527
12040TIP3    H136061   7.884   5.376   1.550
12040TIP3    H236062   7.798   5.290   1.460
12041TIP3   OH236063   7.467   5.417   1.935
12041TIP3    H136064   7.388   5.369   1.910
12041TIP3    H236065   7.525   5.409   1.858
12042TIP3   OH236066   1.460   4.960   1.091
12042TIP3    H136067   1.424   4.951   1.179
12042TIP3    H236068   1.384   4.963   1.033
12043TIP3   OH236069   6.486   0.083   0.509
12043TIP3    H136070   6.512   0.158   0.564
12043TIP3    H236071   6.452   0.123   0.429
12044TIP3   OH236072   2.562   6.969   1.606
12044TIP3    H136073   2.598   6.953   1.519
12044TIP3    H236074   2.480   6.920   1.607
12045TIP3   OH236075   5.426   5.256   3.576
12045TIP3    H136076   5.420   5.351   3.590
12045TIP3    H236077   5.427   5.245   3.481
12046TIP3   OH236078   7.809   5.107   1.384
12046TIP3    H136079   7.854   5.028   1.355
12046TIP3    H236080   7.787   5.089   1.475
12047TIP3   OH236081   1.496   0.589   0.717
12047TIP3    H136082   1.442   0.592   0.796
12047TIP3    H236083   1.577   0.548   0.745
12048TIP3   OH236084   5.788   1.325   6.024
12048TIP3    H136085   5.778   1.401   5.966
12048TIP3    H236086   5.761   1.251   5.970
12049TIP3   OH236087   8.327   1.602   2.282
12049TIP3    H136088   8.330   1.668   2.212
12049TIP3    H236089   8.242   1.560   2.270
12050TIP3   OH236090   5.566   1.937   5.901
12050TIP3    H136091   5.569   2.025   5.863
12050TIP3    H236092   5.602   1.948   5.990
12051TIP3   OH236093   2.750   1.318   6.112
12051TIP3    H136094   2.677   1.346   6.056
12051TIP3    H236095   2.800   1.258   6.057
12052TIP3   OH236096   7.024   2.130   1.020
12052TIP3    H136097   7.070   2.099   1.098
12052TIP3    H236098   7.088   2.185   0.974
12053TIP3   OH236099   5.952   3.014   0.806
12053TIP3    H136100   5.992   2.939   0.762
12053TIP3    H236101   5.980   3.089   0.755
12054TIP3   OH236102   2.835   3.970   1.802
12054TIP3    H136103   2.763   3.938   1.747
12054TIP3    H236104   2.851   4.058   1.771
12055TIP3   OH236105   1.037   0.818   1.727
12055TIP3    H136106   1.015   0.803   1.635
12055TIP3    H236107   1.069   0.733   1.757
12056TIP3   OH236108   8.325   7.308   4.605
12056TIP3    H136109   8.242   7.267   4.581
12056TIP3    H236110   8.361   7.339   4.523
12057TIP3   OH236111   5.419   7.779   6.083
12057TIP3    H136112   5.430   7.827   6.165
12057TIP3    H236113   5.464   7.833   6.017
12058TIP3   OH236114   7.688   4.365   4.217
12058TIP3    H136115   7.763   4.326   4.262
12058TIP3    H236116   7.625   4.384   4.286
12059TIP3   OH236117   7.966   6.183   5.826
12059TIP3    H136118   7.944   6.121   5.896
12059TIP3    H236119   7.993   6.128   5.752
12060TIP3   OH236120   3.395   3.222   5.859
12060TIP3    H136121   3.373   3.313   5.839
12060TIP3    H236122   3.479   3.227   5.905
12061TIP3   OH236123   0.162   1.358   0.120
12061TIP3    H136124   0.188   1.450   0.117
12061TIP3    H236125   0.166   1.329   0.028
12062TIP3   OH236126   3.635   6.181   0.471
12062TIP3    H136127   3.555   6.198   0.421
12062TIP3    H236128   3.661   6.266   0.505
12063TIP3   OH236129   7.402   0.509   6.273
12063TIP3    H136130   7.319   0.499   6.226
12063TIP3    H236131   7.465   0.534   6.205
12064TIP3   OH236132   6.567   2.989   4.829
12064TIP3    H136133   6.614   3.061   4.872
12064TIP3    H236134   6.516   3.031   4.760
12065TIP3   OH236135   0.913   0.857   2.508
12065TIP3    H136136   0.912   0.857   2.604
12065TIP3    H236137   0.949   0.943   2.484
12066TIP3   OH236138   5.245   1.919   3.674
12066TIP3    H136139   5.180   1.854   3.646
12066TIP3    H236140   5.236   1.922   3.770
12067TIP3   OH236141   0.365   4.675   1.794
12067TIP3    H136142   0.353   4.728   1.873
12067TIP3    H236143   0.293   4.702   1.736
12068TIP3   OH236144   2.132   7.190   1.104
12068TIP3    H136145   2.144   7.102   1.069
12068TIP3    H236146   2.115   7.244   1.026
12069TIP3   OH236147   4.015   0.067   4.650
12069TIP3    H136148   4.001   0.056   4.744
12069TIP3    H236149   3.941   0.023   4.609
12070TIP3   OH236150   2.788   1.125   3.442
12070TIP3    H136151   2.697   1.094   3.439
12070TIP3    H236152   2.837   1.052   3.478
12071TIP3   OH236153   3.233   2.047   2.128
12071TIP3    H136154   3.293   2.085   2.064
12071TIP3    H236155   3.264   1.957   2.139
12072TIP3   OH236156   4.311   0.409   2.009
12072TIP3    H136157   4.343   0.416   1.919
12072TIP3    H236158   4.254   0.332   2.008
12073TIP3   OH236159   5.490   2.000   4.823
12073TIP3    H136160   5.565   2.050   4.790
12073TIP3    H236161   5.431   1.994   4.748
12074TIP3   OH236162   0.995   6.287   4.635
12074TIP3    H136163   1.032   6.257   4.552
12074TIP3    H236164   1.028   6.377   4.645
12075TIP3   OH236165   1.088   6.841   5.149
12075TIP3    H136166   1.092   6.850   5.054
12075TIP3    H236167   1.074   6.931   5.181
12076TIP3   OH236168   2.342   6.678   5.941
12076TIP3    H136169   2.377   6.740   5.876
12076TIP3    H236170   2.420   6.633   5.975
12077TIP3   OH236171   4.712   7.864   4.127
12077TIP3    H136172   4.708   7.889   4.219
12077TIP3    H236173   4.662   7.932   4.082
12078TIP3   OH236174   7.003   6.057   0.891
12078TIP3    H136175   7.019   5.973   0.934
12078TIP3    H236176   7.015   6.039   0.798
12079TIP3   OH236177   4.235   7.514   2.000
12079TIP3    H136178   4.181   7.462   2.060
12079TIP3    H236179   4.319   7.468   1.997
12080TIP3   OH236180   1.310   2.384   4.182
12080TIP3    H136181   1.402   2.378   4.158
12080TIP3    H236182   1.263   2.390   4.099
12081TIP3   OH236183   4.639   2.359   4.060
12081TIP3    H136184   4.636   2.333   4.152
12081TIP3    H236185   4.600   2.285   4.013
12082TIP3   OH236186   2.835   6.963   5.687
12082TIP3    H136187   2.812   6.960   5.780
12082TIP3    H236188   2.927   6.935   5.684
12083TIP3   OH236189   7.172   7.709   2.648
12083TIP3    H136190   7.228   7.734   2.574
12083TIP3    H236191   7.096   7.766   2.641
12084TIP3   OH236192   6.572   6.032   1.772
12084TIP3    H136193   6.606   5.950   1.735
12084TIP3    H236194   6.542   6.082   1.696
12085TIP3   OH236195   0.854   4.035   2.652
12085TIP3    H136196   0.865   4.060   2.744
12085TIP3    H236197   0.939   4.053   2.612
12086TIP3   OH236198   3.316   1.060   6.551
12086TIP3    H136199   3.343   0.979   6.593
12086TIP3    H236200   3.309   1.038   6.458
12087TIP3   OH236201   4.329   3.276   0.089
12087TIP3    H136202   4.331   3.252  -0.004
12087TIP3    H236203   4.239   3.302   0.106
12088TIP3   OH236204   2.732   4.951   1.017
12088TIP3    H136205   2.818   4.910   1.007
12088TIP3    H236206   2.711   4.944   1.110
12089TIP3   OH236207   1.740   4.694   5.455
12089TIP3    H136208   1.799   4.635   5.409
12089TIP3    H236209   1.653   4.655   5.442
12090TIP3   OH236210   8.362   4.558   2.517
12090TIP3    H136211   8.327   4.538   2.430
12090TIP3    H236212   8.285   4.560   2.574
12091TIP3   OH236213   4.299   1.439   1.224
12091TIP3    H136214   4.301   1.357   1.274
12091TIP3    H236215   4.360   1.424   1.151
12092TIP3   OH236216   7.687   5.154   6.596
12092TIP3    H136217   7.750   5.195   6.655
12092TIP3    H236218   7.610   5.137   6.651
12093TIP3   OH236219   2.790   4.125   3.210
12093TIP3    H136220   2.703   4.165   3.217
12093TIP3    H236221   2.818   4.145   3.121
12094TIP3   OH236222   3.445   6.394   1.130
12094TIP3    H136223   3.506   6.456   1.089
12094TIP3    H236224   3.431   6.429   1.218
12095TIP3   OH236225   3.173   3.845   5.458
12095TIP3    H136226   3.144   3.754   5.458
12095TIP3    H236227   3.149   3.878   5.545
12096TIP3   OH236228   2.004   0.037   3.652
12096TIP3    H136229   1.927   0.093   3.639
12096TIP3    H236230   1.970  -0.041   3.695
12097TIP3   OH236231   3.365   6.226   0.334
12097TIP3    H136232   3.364   6.249   0.427
12097TIP3    H236233   3.348   6.132   0.332
12098TIP3   OH236234   3.188   7.754   0.986
12098TIP3    H136235   3.212   7.835   0.941
12098TIP3    H236236   3.234   7.685   0.938
12099TIP3   OH236237   4.277   0.802   2.290
12099TIP3    H136238   4.235   0.826   2.373
12099TIP3    H236239   4.365   0.775   2.315
12100TIP3   OH236240   8.421   6.105   5.755
12100TIP3    H136241   8.328   6.090   5.738
12100TIP3    H236242   8.435   6.197   5.732
12101TIP3   OH236243   3.518   4.449   4.766
12101TIP3    H136244   3.605   4.483   4.785
12101TIP3    H236245   3.533   4.363   4.727
12102TIP3   OH236246   2.606   3.757   4.952
12102TIP3    H136247   2.653   3.768   4.870
12102TIP3    H236248   2.538   3.824   4.951
12103TIP3   OH236249   2.904   7.779   6.352
12103TIP3    H136250   2.972   7.840   6.381
12103TIP3    H236251   2.836   7.835   6.313
12104TIP3   OH236252   6.710   1.180   5.939
12104TIP3    H136253   6.798   1.209   5.961
12104TIP3    H236254   6.712   1.165   5.845
12105TIP3   OH236255   4.360   7.284   1.101
12105TIP3    H136256   4.349   7.210   1.041
12105TIP3    H236257   4.449   7.316   1.084
12106TIP3   OH236258   3.069   0.893   5.990
12106TIP3    H136259   3.157   0.900   6.026
12106TIP3    H236260   3.031   0.980   6.004
12107TIP3   OH236261   6.898   4.457   2.784
12107TIP3    H136262   6.916   4.512   2.708
12107TIP3    H236263   6.969   4.393   2.785
12108TIP3   OH236264   0.365   4.494   4.892
12108TIP3    H136265   0.324   4.536   4.967
12108TIP3    H236266   0.316   4.527   4.817
12109TIP3   OH236267   6.431   1.675   2.399
12109TIP3    H136268   6.381   1.615   2.343
12109TIP3    H236269   6.398   1.762   2.377
12110TIP3   OH236270   0.082   2.620   0.182
12110TIP3    H136271   0.090   2.706   0.141
12110TIP3    H236272   0.001   2.625   0.232
12111TIP3   OH236273   3.345   5.295   4.426
12111TIP3    H136274   3.347   5.309   4.521
12111TIP3    H236275   3.295   5.215   4.415
12112TIP3   OH236276   5.138   2.636   0.903
12112TIP3    H136277   5.229   2.657   0.883
12112TIP3    H236278   5.137   2.542   0.917
12113TIP3   OH236279   6.487   1.876   5.917
12113TIP3    H136280   6.395   1.898   5.909
12113TIP3    H236281   6.531   1.929   5.850
12114TIP3   OH236282   6.332   2.113   3.135
12114TIP3    H136283   6.404   2.060   3.102
12114TIP3    H236284   6.293   2.153   3.058
12115TIP3   OH236285   6.212   1.581   5.708
12115TIP3    H136286   6.235   1.509   5.650
12115TIP3    H236287   6.159   1.640   5.654
12116TIP3   OH236288   0.895   4.211   6.196
12116TIP3    H136289   0.972   4.167   6.231
12116TIP3    H236290   0.895   4.190   6.103
12117TIP3   OH236291   7.697   3.958   4.471
12117TIP3    H136292   7.643   3.935   4.547
12117TIP3    H236293   7.785   3.927   4.493
12118TIP3   OH236294   2.670   5.618   5.639
12118TIP3    H136295   2.726   5.545   5.665
12118TIP3    H236296   2.731   5.688   5.616
12119TIP3   OH236297   6.849   0.365   1.100
12119TIP3    H136298   6.845   0.451   1.059
12119TIP3    H236299   6.792   0.371   1.176
12120TIP3   OH236300   1.263   3.697   6.889
12120TIP3    H136301   1.234   3.649   6.811
12120TIP3    H236302   1.333   3.754   6.858
12121TIP3   OH236303   5.842   7.865   4.248
12121TIP3    H136304   5.936   7.859   4.231
12121TIP3    H236305   5.835   7.929   4.320
12122TIP3   OH236306   7.391   0.374   0.385
12122TIP3    H136307   7.339   0.371   0.465
12122TIP3    H236308   7.478   0.401   0.413
12123TIP3   OH236309   8.089   6.083   1.004
12123TIP3    H136310   7.997   6.074   0.980
12123TIP3    H236311   8.128   5.999   0.982
12124TIP3   OH236312   0.980   2.627   4.751
12124TIP3    H136313   0.940   2.582   4.676
12124TIP3    H236314   1.005   2.713   4.716
12125TIP3   OH236315   0.265   5.008   4.940
12125TIP3    H136316   0.213   4.988   5.017
12125TIP3    H236317   0.288   5.101   4.949
12126TIP3   OH236318   0.806   3.864   2.051
12126TIP3    H136319   0.845   3.781   2.079
12126TIP3    H236320   0.878   3.913   2.012
12127TIP3   OH236321   3.192   5.842   6.118
12127TIP3    H136322   3.181   5.935   6.098
12127TIP3    H236323   3.254   5.840   6.191
12128TIP3   OH236324   7.889   4.714   6.007
12128TIP3    H136325   7.867   4.653   5.936
12128TIP3    H236326   7.817   4.776   6.009
12129TIP3   OH236327   0.121   0.138   4.081
12129TIP3    H136328   0.099   0.088   4.002
12129TIP3    H236329   0.153   0.071   4.142
12130TIP3   OH236330   0.116   1.219   6.038
12130TIP3    H136331   0.163   1.286   6.088
12130TIP3    H236332   0.089   1.265   5.958
12131TIP3   OH236333   7.780   0.801   6.222
12131TIP3    H136334   7.717   0.781   6.153
12131TIP3    H236335   7.785   0.721   6.275
12132TIP3   OH236336   4.112   3.987   2.814
12132TIP3    H136337   4.170   3.912   2.799
12132TIP3    H236338   4.059   3.961   2.889
12133TIP3   OH236339   4.838   2.807   4.882
12133TIP3    H136340   4.905   2.802   4.813
12133TIP3    H236341   4.888   2.801   4.964
12134TIP3   OH236342   8.073   2.563   5.262
12134TIP3    H136343   8.021   2.624   5.314
12134TIP3    H236344   8.042   2.575   5.172
12135TIP3   OH236345   5.138   2.280   5.064
12135TIP3    H136346   5.087   2.200   5.056
12135TIP3    H236347   5.076   2.345   5.097
12136TIP3   OH236348   6.397   0.193   2.480
12136TIP3    H136349   6.383   0.260   2.547
12136TIP3    H236350   6.310   0.179   2.443
12137TIP3   OH236351   1.300   3.965   4.048
12137TIP3    H136352   1.320   3.978   4.140
12137TIP3    H236353   1.211   3.931   4.046
12138TIP3   OH236354   6.633   4.430   1.654
12138TIP3    H136355   6.698   4.466   1.715
12138TIP3    H236356   6.607   4.346   1.694
12139TIP3   OH236357   3.365   7.239   3.510
12139TIP3    H136358   3.393   7.200   3.593
12139TIP3    H236359   3.354   7.165   3.451
12140TIP3   OH236360   1.732   2.895   0.752
12140TIP3    H136361   1.637   2.902   0.758
12140TIP3    H236362   1.753   2.923   0.662
12141TIP3   OH236363   7.241   5.694   0.795
12141TIP3    H136364   7.215   5.608   0.762
12141TIP3    H236365   7.159   5.734   0.825
12142TIP3   OH236366   2.053   2.290   5.198
12142TIP3    H136367   1.971   2.310   5.155
12142TIP3    H236368   2.103   2.240   5.134
12143TIP3   OH236369   3.242   0.170   5.738
12143TIP3    H136370   3.282   0.239   5.685
12143TIP3    H236371   3.182   0.217   5.796
12144TIP3   OH236372   0.300   0.826   1.147
12144TIP3    H136373   0.241   0.900   1.133
12144TIP3    H236374   0.319   0.827   1.240
12145TIP3   OH236375   4.705   2.465   2.127
12145TIP3    H136376   4.668   2.484   2.041
12145TIP3    H236377   4.671   2.379   2.150
12146TIP3   OH236378   3.044   0.728   3.322
12146TIP3    H136379   3.109   0.724   3.251
12146TIP3    H236380   2.960   0.734   3.277
12147TIP3   OH236381   4.883   5.588   4.111
12147TIP3    H136382   4.886   5.559   4.020
12147TIP3    H236383   4.909   5.681   4.108
12148TIP3   OH236384   5.593   7.497   2.057
12148TIP3    H136385   5.582   7.567   2.121
12148TIP3    H236386   5.682   7.509   2.024
12149TIP3   OH236387   7.287   4.505   2.530
12149TIP3    H136388   7.274   4.440   2.599
12149TIP3    H236389   7.349   4.567   2.567
12150TIP3   OH236390   4.929   7.728   6.547
12150TIP3    H136391   4.999   7.665   6.566
12150TIP3    H236392   4.911   7.769   6.632
12151TIP3   OH236393   3.880   5.357   0.580
12151TIP3    H136394   3.952   5.298   0.604
12151TIP3    H236395   3.903   5.441   0.620
12152TIP3   OH236396   1.904   5.692   6.379
12152TIP3    H136397   1.908   5.699   6.284
12152TIP3    H236398   1.969   5.756   6.410
12153TIP3   OH236399   5.214   1.215   4.416
12153TIP3    H136400   5.309   1.207   4.425
12153TIP3    H236401   5.201   1.238   4.324
12154TIP3   OH236402   0.723   7.747   1.214
12154TIP3    H136403   0.756   7.714   1.297
12154TIP3    H236404   0.628   7.742   1.222
12155TIP3   OH236405   5.121   6.303   5.029
12155TIP3    H136406   5.210   6.289   4.997
12155TIP3    H236407   5.072   6.334   4.952
12156TIP3   OH236408   5.010   7.649   4.930
12156TIP3    H136409   5.097   7.609   4.925
12156TIP3    H236410   4.967   7.625   4.848
12157TIP3   OH236411   7.057   7.485   5.572
12157TIP3    H136412   7.126   7.550   5.554
12157TIP3    H236413   6.976   7.536   5.572
12158TIP3   OH236414   8.355   4.135   5.636
12158TIP3    H136415   8.427   4.178   5.591
12158TIP3    H236416   8.315   4.079   5.569
12159TIP3   OH236417   1.570   4.694   0.410
12159TIP3    H136418   1.554   4.665   0.500
12159TIP3    H236419   1.522   4.777   0.403
12160TIP3   OH236420   4.551   5.721   3.484
12160TIP3    H136421   4.528   5.656   3.550
12160TIP3    H236422   4.585   5.795   3.534
12161TIP3   OH236423   1.137   1.698   6.074
12161TIP3    H136424   1.140   1.649   6.156
12161TIP3    H236425   1.214   1.668   6.025
12162TIP3   OH236426   0.493   1.380   5.365
12162TIP3    H136427   0.501   1.474   5.351
12162TIP3    H236428   0.409   1.370   5.411
12163TIP3   OH236429   5.761   1.046   3.491
12163TIP3    H136430   5.787   1.109   3.424
12163TIP3    H236431   5.701   1.094   3.547
12164TIP3   OH236432   3.392   5.780   5.897
12164TIP3    H136433   3.334   5.819   5.963
12164TIP3    H236434   3.333   5.747   5.829
12165TIP3   OH236435   3.006   6.091   1.938
12165TIP3    H136436   2.933   6.120   1.884
12165TIP3    H236437   3.008   5.996   1.925
12166TIP3   OH236438   3.782   5.398   1.057
12166TIP3    H136439   3.856   5.459   1.052
12166TIP3    H236440   3.727   5.432   1.127
12167TIP3   OH236441   7.170   1.435   2.700
12167TIP3    H136442   7.096   1.397   2.651
12167TIP3    H236443   7.139   1.522   2.725
12168TIP3   OH236444  -0.008   1.159   1.912
12168TIP3    H136445   0.079   1.142   1.876
12168TIP3    H236446  -0.029   1.081   1.963
12169TIP3   OH236447   7.681   0.514   5.210
12169TIP3    H136448   7.613   0.561   5.162
12169TIP3    H236449   7.761   0.530   5.161
12170TIP3   OH236450   0.334   1.577   2.827
12170TIP3    H136451   0.284   1.497   2.840
12170TIP3    H236452   0.423   1.548   2.810
12171TIP3   OH236453   0.866   5.381   6.120
12171TIP3    H136454   0.784   5.332   6.113
12171TIP3    H236455   0.881   5.387   6.215
12172TIP3   OH236456   4.228   1.812   4.952
12172TIP3    H136457   4.213   1.750   4.881
12172TIP3    H236458   4.229   1.758   5.031
12173TIP3   OH236459   7.237   7.299   5.390
12173TIP3    H136460   7.176   7.332   5.456
12173TIP3    H236461   7.240   7.369   5.324
12174TIP3   OH236462   6.667   5.538   2.436
12174TIP3    H136463   6.704   5.458   2.399
12174TIP3    H236464   6.740   5.579   2.483
12175TIP3   OH236465   3.800   0.483   0.302
12175TIP3    H136466   3.885   0.467   0.344
12175TIP3    H236467   3.762   0.554   0.354
12176TIP3   OH236468   1.682   6.730   6.034
12176TIP3    H136469   1.742   6.690   6.098
12176TIP3    H236470   1.634   6.656   5.997
12177TIP3   OH236471   3.728   5.987   3.479
12177TIP3    H136472   3.713   5.929   3.404
12177TIP3    H236473   3.794   6.049   3.447
12178TIP3   OH236474   7.156   3.036   1.697
12178TIP3    H136475   7.063   3.056   1.685
12178TIP3    H236476   7.157   2.967   1.762
12179TIP3   OH236477   1.939   2.432   1.359
12179TIP3    H136478   1.903   2.442   1.447
12179TIP3    H236479   2.005   2.500   1.352
12180TIP3   OH236480   1.592   7.396   2.469
12180TIP3    H136481   1.547   7.425   2.390
12180TIP3    H236482   1.670   7.351   2.436
12181TIP3   OH236483   0.872   3.860   5.412
12181TIP3    H136484   0.944   3.812   5.372
12181TIP3    H236485   0.851   3.928   5.348
12182TIP3   OH236486   1.346   7.690   1.071
12182TIP3    H136487   1.269   7.633   1.069
12182TIP3    H236488   1.421   7.632   1.060
12183TIP3   OH236489   4.417   0.855   4.201
12183TIP3    H136490   4.416   0.762   4.223
12183TIP3    H236491   4.327   0.884   4.214
12184TIP3   OH236492  -0.016   5.526   4.699
12184TIP3    H136493  -0.003   5.479   4.781
12184TIP3    H236494  -0.068   5.603   4.724
12185TIP3   OH236495   4.082   0.687   5.411
12185TIP3    H136496   4.055   0.762   5.358
12185TIP3    H236497   4.168   0.711   5.444
12186TIP3   OH236498   7.084   0.268   1.200
12186TIP3    H136499   7.084   0.181   1.161
12186TIP3    H236500   6.999   0.305   1.177
12187TIP3   OH236501   7.700   7.459   3.396
12187TIP3    H136502   7.789   7.442   3.366
12187TIP3    H236503   7.673   7.537   3.348
12188TIP3   OH236504   7.426   7.126   2.438
12188TIP3    H136505   7.444   7.199   2.379
12188TIP3    H236506   7.385   7.060   2.383
12189TIP3   OH236507   4.368   2.355   5.944
12189TIP3    H136508   4.306   2.356   6.017
12189TIP3    H236509   4.322   2.401   5.874
12190TIP3   OH236510   6.828   7.354   1.870
12190TIP3    H136511   6.866   7.284   1.924
12190TIP3    H236512   6.736   7.358   1.898
12191TIP3   OH236513   5.805   5.712   5.908
12191TIP3    H136514   5.772   5.793   5.948
12191TIP3    H236515   5.750   5.700   5.830
12192TIP3   OH236516   4.989   2.222   6.490
12192TIP3    H136517   5.040   2.142   6.497
12192TIP3    H236518   4.971   2.231   6.396
12193TIP3   OH236519   0.593   7.145   1.221
12193TIP3    H136520   0.569   7.238   1.215
12193TIP3    H236521   0.562   7.107   1.138
12194TIP3   OH236522   5.168   5.814   3.260
12194TIP3    H136523   5.134   5.774   3.181
12194TIP3    H236524   5.260   5.830   3.242
12195TIP3   OH236525   1.552   7.753   6.841
12195TIP3    H136526   1.631   7.719   6.799
12195TIP3    H236527   1.516   7.678   6.888
12196TIP3   OH236528   1.187   2.947   5.669
12196TIP3    H136529   1.150   3.009   5.606
12196TIP3    H236530   1.113   2.917   5.721
12197TIP3   OH236531   5.708   4.145   4.634
12197TIP3    H136532   5.765   4.168   4.561
12197TIP3    H236533   5.712   4.049   4.638
12198TIP3   OH236534   2.596   4.772   4.668
12198TIP3    H136535   2.546   4.853   4.663
12198TIP3    H236536   2.541   4.706   4.625
12199TIP3   OH236537   4.304   0.852   4.640
12199TIP3    H136538   4.260   0.780   4.595
12199TIP3    H236539   4.290   0.928   4.583
12200TIP3   OH236540   7.198   2.280   0.849
12200TIP3    H136541   7.243   2.296   0.766
12200TIP3    H236542   7.224   2.353   0.905
12201TIP3   OH236543   7.828   7.667   4.656
12201TIP3    H136544   7.863   7.580   4.674
12201TIP3    H236545   7.876   7.697   4.579
12202TIP3   OH236546   3.802   3.669   5.038
12202TIP3    H136547   3.893   3.640   5.030
12202TIP3    H236548   3.772   3.680   4.948
12203TIP3   OH236549   0.091   5.385   5.815
12203TIP3    H136550   0.073   5.473   5.849
12203TIP3    H236551   0.184   5.387   5.792
12204TIP3   OH236552   4.641   5.876   2.756
12204TIP3    H136553   4.575   5.836   2.700
12204TIP3    H236554   4.668   5.806   2.816
12205TIP3   OH236555   6.242   4.004   3.390
12205TIP3    H136556   6.320   3.954   3.414
12205TIP3    H236557   6.230   4.066   3.462
12206TIP3   OH236558   1.544   6.393   5.008
12206TIP3    H136559   1.482   6.335   5.052
12206TIP3    H236560   1.494   6.435   4.939
12207TIP3   OH236561   6.310   0.152   6.249
12207TIP3    H136562   6.250   0.099   6.301
12207TIP3    H236563   6.329   0.228   6.304
12208TIP3   OH236564   7.224   3.750   2.091
12208TIP3    H136565   7.217   3.837   2.051
12208TIP3    H236566   7.141   3.708   2.072
12209TIP3   OH236567   2.586   4.064   6.552
12209TIP3    H136568   2.617   4.153   6.536
12209TIP3    H236569   2.647   4.028   6.617
12210TIP3   OH236570   2.689   2.928   3.663
12210TIP3    H136571   2.711   2.941   3.571
12210TIP3    H236572   2.727   2.843   3.685
12211TIP3   OH236573   2.108   3.599   0.586
12211TIP3    H136574   2.053   3.581   0.662
12211TIP3    H236575   2.081   3.686   0.556
12212TIP3   OH236576   2.547   2.047   2.624
12212TIP3    H136577   2.598   2.106   2.568
12212TIP3    H236578   2.456   2.062   2.597
12213TIP3   OH236579   0.495   5.751   4.972
12213TIP3    H136580   0.458   5.681   5.025
12213TIP3    H236581   0.523   5.817   5.036
12214TIP3   OH236582   6.992   0.311   6.466
12214TIP3    H136583   7.022   0.395   6.431
12214TIP3    H236584   7.038   0.301   6.549
12215TIP3   OH236585   0.947   2.101   5.398
12215TIP3    H136586   1.001   2.098   5.477
12215TIP3    H236587   0.958   2.189   5.365
12216TIP3   OH236588   0.746   0.269   4.162
12216TIP3    H136589   0.660   0.231   4.144
12216TIP3    H236590   0.748   0.349   4.111
12217TIP3   OH236591   1.676   2.789   5.545
12217TIP3    H136592   1.584   2.807   5.527
12217TIP3    H236593   1.704   2.860   5.602
12218TIP3   OH236594   6.917   0.993   1.031
12218TIP3    H136595   6.867   0.944   0.966
12218TIP3    H236596   7.008   0.981   1.005
12219TIP3   OH236597   7.026   7.516   4.951
12219TIP3    H136598   6.983   7.472   5.024
12219TIP3    H236599   7.083   7.449   4.913
12220TIP3   OH236600   6.923   5.992   2.601
12220TIP3    H136601   6.919   5.938   2.680
12220TIP3    H236602   6.833   6.023   2.589
12221TIP3   OH236603   0.617   0.600   3.410
12221TIP3    H136604   0.562   0.544   3.465
12221TIP3    H236605   0.687   0.542   3.379
12222TIP3   OH236606   1.458   2.987   2.050
12222TIP3    H136607   1.370   2.969   2.016
12222TIP3    H236608   1.489   3.061   1.999
12223TIP3   OH236609   1.200   2.025   1.961
12223TIP3    H136610   1.250   2.105   1.946
12223TIP3    H236611   1.259   1.954   1.935
12224TIP3   OH236612   7.943   5.070   3.515
12224TIP3    H136613   7.966   5.075   3.423
12224TIP3    H236614   7.957   4.979   3.539
12225TIP3   OH236615   4.232   0.240   4.743
12225TIP3    H136616   4.165   0.305   4.761
12225TIP3    H236617   4.189   0.175   4.687
12226TIP3   OH236618   2.910   1.116   1.650
12226TIP3    H136619   2.917   1.023   1.672
12226TIP3    H236620   2.972   1.128   1.579
12227TIP3   OH236621   6.456   4.642   1.816
12227TIP3    H136622   6.420   4.730   1.823
12227TIP3    H236623   6.441   4.616   1.725
12228TIP3   OH236624   5.801   4.329   6.213
12228TIP3    H136625   5.841   4.300   6.295
12228TIP3    H236626   5.861   4.298   6.145
12229TIP3   OH236627   7.838   2.529   4.282
12229TIP3    H136628   7.907   2.556   4.221
12229TIP3    H236629   7.858   2.439   4.304
12230TIP3   OH236630   3.155   5.019   5.398
12230TIP3    H136631   3.105   4.947   5.436
12230TIP3    H236632   3.152   5.004   5.304
12231TIP3   OH236633   0.481   0.756   3.245
12231TIP3    H136634   0.518   0.699   3.312
12231TIP3    H236635   0.450   0.833   3.292
12232TIP3   OH236636   6.650   5.810   0.970
12232TIP3    H136637   6.671   5.882   0.911
12232TIP3    H236638   6.632   5.852   1.054
12233TIP3   OH236639   5.564   2.884   4.100
12233TIP3    H136640   5.629   2.946   4.131
12233TIP3    H236641   5.481   2.916   4.134
12234TIP3   OH236642   4.401   7.612   0.382
12234TIP3    H136643   4.430   7.600   0.472
12234TIP3    H236644   4.311   7.582   0.381
12235TIP3   OH236645   7.364   4.409   3.315
12235TIP3    H136646   7.451   4.434   3.345
12235TIP3    H236647   7.351   4.320   3.348
12236TIP3   OH236648   7.466   2.000   6.115
12236TIP3    H136649   7.506   1.927   6.163
12236TIP3    H236650   7.509   1.998   6.029
12237TIP3   OH236651   2.124   6.669   6.076
12237TIP3    H136652   2.209   6.672   6.032
12237TIP3    H236653   2.078   6.747   6.043
12238TIP3   OH236654   7.191   0.404   5.083
12238TIP3    H136655   7.229   0.433   5.166
12238TIP3    H236656   7.103   0.374   5.105
12239TIP3   OH236657   6.979   0.881   3.664
12239TIP3    H136658   6.945   0.816   3.602
12239TIP3    H236659   6.913   0.884   3.734
12240TIP3   OH236660   3.821   1.662   3.867
12240TIP3    H136661   3.903   1.695   3.903
12240TIP3    H236662   3.757   1.731   3.888
12241TIP3   OH236663   3.492   6.120   1.168
12241TIP3    H136664   3.571   6.113   1.221
12241TIP3    H236665   3.478   6.214   1.158
12242TIP3   OH236666   0.543   2.466   1.102
12242TIP3    H136667   0.592   2.384   1.096
12242TIP3    H236668   0.605   2.534   1.076
12243TIP3   OH236669   2.280   1.963   4.507
12243TIP3    H136670   2.305   2.049   4.542
12243TIP3    H236671   2.363   1.921   4.484
12244TIP3   OH236672   3.964   6.995   0.748
12244TIP3    H136673   3.990   6.916   0.701
12244TIP3    H236674   3.930   7.053   0.680
12245TIP3   OH236675   8.197   1.683   6.168
12245TIP3    H136676   8.182   1.734   6.088
12245TIP3    H236677   8.146   1.604   6.156
12246TIP3   OH236678   5.004   4.389   3.542
12246TIP3    H136679   4.964   4.476   3.548
12246TIP3    H236680   5.090   4.400   3.582
12247TIP3   OH236681   1.573   3.295   4.502
12247TIP3    H136682   1.613   3.216   4.467
12247TIP3    H236683   1.575   3.283   4.597
12248TIP3   OH236684   6.976   7.913   2.620
12248TIP3    H136685   6.967   7.922   2.525
12248TIP3    H236686   7.045   7.976   2.643
12249TIP3   OH236687   5.116   0.431   4.162
12249TIP3    H136688   5.096   0.341   4.138
12249TIP3    H236689   5.060   0.484   4.106
12250TIP3   OH236690   4.105   1.868   4.241
12250TIP3    H136691   4.153   1.858   4.323
12250TIP3    H236692   4.067   1.955   4.245
12251TIP3   OH236693   5.175   2.204   5.760
12251TIP3    H136694   5.218   2.237   5.839
12251TIP3    H236695   5.246   2.164   5.709
12252TIP3   OH236696   7.889   0.003   6.268
12252TIP3    H136697   7.982   0.019   6.287
12252TIP3    H236698   7.842   0.070   6.317
12253TIP3   OH236699   4.342   7.743   2.678
12253TIP3    H136700   4.359   7.804   2.750
12253TIP3    H236701   4.398   7.668   2.697
12254TIP3   OH236702   5.569   6.921   2.957
12254TIP3    H136703   5.525   6.898   2.875
12254TIP3    H236704   5.574   6.838   3.005
12255TIP3   OH236705   0.445   0.704   0.130
12255TIP3    H136706   0.476   0.709   0.220
12255TIP3    H236707   0.503   0.640   0.088
12256TIP3   OH236708   1.362   6.591   4.306
12256TIP3    H136709   1.318   6.562   4.226
12256TIP3    H236710   1.453   6.565   4.294
12257TIP3   OH236711   6.596   1.523   4.845
12257TIP3    H136712   6.688   1.548   4.839
12257TIP3    H236713   6.597   1.434   4.879
12258TIP3   OH236714   7.551   5.575   4.320
12258TIP3    H136715   7.473   5.626   4.297
12258TIP3    H236716   7.523   5.521   4.394
12259TIP3   OH236717   5.242   1.936   0.899
12259TIP3    H136718   5.286   1.915   0.981
12259TIP3    H236719   5.176   2.002   0.923
12260TIP3   OH236720   1.560   7.294   4.455
12260TIP3    H136721   1.510   7.224   4.412
12260TIP3    H236722   1.651   7.273   4.437
12261TIP3   OH236723   2.424   4.879   1.632
12261TIP3    H136724   2.502   4.829   1.608
12261TIP3    H236725   2.411   4.938   1.557
12262TIP3   OH236726   7.919   5.878   2.141
12262TIP3    H136727   7.844   5.928   2.174
12262TIP3    H236728   7.901   5.867   2.048
12263TIP3   OH236729   4.830   5.818   1.647
12263TIP3    H136730   4.807   5.725   1.655
12263TIP3    H236731   4.907   5.829   1.702
12264TIP3   OH236732   5.585   4.961   0.781
12264TIP3    H136733   5.529   5.036   0.762
12264TIP3    H236734   5.668   4.982   0.737
12265TIP3   OH236735   4.647   5.284   5.311
12265TIP3    H136736   4.600   5.205   5.339
12265TIP3    H236737   4.732   5.251   5.281
12266TIP3   OH236738   3.225   6.499   0.623
12266TIP3    H136739   3.271   6.542   0.695
12266TIP3    H236740   3.278   6.421   0.604
12267TIP3   OH236741   5.592   6.238   4.273
12267TIP3    H136742   5.627   6.158   4.233
12267TIP3    H236743   5.663   6.270   4.329
12268TIP3   OH236744   1.914   1.003   0.414
12268TIP3    H136745   1.983   1.011   0.349
12268TIP3    H236746   1.945   0.934   0.474
12269TIP3   OH236747   4.993   5.424   6.012
12269TIP3    H136748   4.942   5.504   6.001
12269TIP3    H236749   4.937   5.355   5.977
12270TIP3   OH236750   0.717   0.120   0.600
12270TIP3    H136751   0.719   0.209   0.636
12270TIP3    H236752   0.728   0.063   0.676
12271TIP3   OH236753   0.849   2.839   0.962
12271TIP3    H136754   0.835   2.744   0.968
12271TIP3    H236755   0.761   2.876   0.968
12272TIP3   OH236756   8.022   2.826   4.325
12272TIP3    H136757   8.079   2.849   4.251
12272TIP3    H236758   7.935   2.855   4.298
12273TIP3   OH236759   7.412   4.357   0.822
12273TIP3    H136760   7.473   4.283   0.821
12273TIP3    H236761   7.453   4.423   0.767
12274TIP3   OH236762   5.807   6.569   5.622
12274TIP3    H136763   5.761   6.517   5.689
12274TIP3    H236764   5.892   6.589   5.662
12275TIP3   OH236765   0.246   7.600   0.259
12275TIP3    H136766   0.218   7.512   0.286
12275TIP3    H236767   0.266   7.644   0.341
12276TIP3   OH236768   4.387   5.319   1.322
12276TIP3    H136769   4.384   5.227   1.296
12276TIP3    H236770   4.345   5.321   1.408
12277TIP3   OH236771   4.224   7.030   3.797
12277TIP3    H136772   4.150   7.085   3.824
12277TIP3    H236773   4.191   6.940   3.809
12278TIP3   OH236774   5.549   6.564   2.760
12278TIP3    H136775   5.604   6.549   2.837
12278TIP3    H236776   5.459   6.565   2.794
12279TIP3   OH236777   3.679   4.058   3.973
12279TIP3    H136778   3.643   4.075   3.887
12279TIP3    H236779   3.615   4.093   4.034
12280TIP3   OH236780   6.051   7.727   2.633
12280TIP3    H136781   6.118   7.718   2.564
12280TIP3    H236782   6.081   7.803   2.684
12281TIP3   OH236783   3.835   7.092   5.045
12281TIP3    H136784   3.815   7.146   4.969
12281TIP3    H236785   3.751   7.085   5.091
12282TIP3   OH236786   7.912   2.278   4.414
12282TIP3    H136787   7.878   2.331   4.486
12282TIP3    H236788   7.883   2.189   4.433
12283TIP3   OH236789   2.354   6.738   0.267
12283TIP3    H136790   2.296   6.768   0.197
12283TIP3    H236791   2.337   6.798   0.340
12284TIP3   OH236792   1.753   5.534   2.833
12284TIP3    H136793   1.725   5.508   2.746
12284TIP3    H236794   1.675   5.521   2.888
12285TIP3   OH236795   6.799   5.790   3.242
12285TIP3    H136796   6.886   5.791   3.281
12285TIP3    H236797   6.749   5.728   3.296
12286TIP3   OH236798   1.175   1.356   1.396
12286TIP3    H136799   1.118   1.383   1.468
12286TIP3    H236800   1.241   1.425   1.391
12287TIP3   OH236801   4.949   7.645   0.353
12287TIP3    H136802   4.929   7.554   0.376
12287TIP3    H236803   5.035   7.640   0.311
12288TIP3   OH236804   1.264   0.409   4.415
12288TIP3    H136805   1.278   0.314   4.421
12288TIP3    H236806   1.184   0.425   4.465
12289TIP3   OH236807   3.648   4.879   4.024
12289TIP3    H136808   3.599   4.939   4.079
12289TIP3    H236809   3.665   4.803   4.080
12290TIP3   OH236810   1.991   7.366   4.089
12290TIP3    H136811   1.909   7.385   4.134
12290TIP3    H236812   1.976   7.392   3.998
12291TIP3   OH236813   1.271   7.832   3.286
12291TIP3    H136814   1.176   7.838   3.296
12291TIP3    H236815   1.297   7.760   3.345
12292TIP3   OH236816   3.823   0.112   5.567
12292TIP3    H136817   3.763   0.064   5.509
12292TIP3    H236818   3.818   0.065   5.650
12293TIP3   OH236819   3.102   3.454   5.150
12293TIP3    H136820   3.134   3.407   5.227
12293TIP3    H236821   3.009   3.432   5.147
12294TIP3   OH236822   7.008   5.051   0.106
12294TIP3    H136823   7.022   5.106   0.029
12294TIP3    H236824   6.967   4.972   0.071
12295TIP3   OH236825   0.345   4.511   2.850
12295TIP3    H136826   0.273   4.466   2.805
12295TIP3    H236827   0.347   4.598   2.809
12296TIP3   OH236828   3.949   2.407   4.174
12296TIP3    H136829   3.864   2.450   4.163
12296TIP3    H236830   3.970   2.419   4.266
12297TIP3   OH236831   4.425   7.178   5.869
12297TIP3    H136832   4.382   7.133   5.941
12297TIP3    H236833   4.517   7.153   5.876
12298TIP3   OH236834   4.338   6.266   6.790
12298TIP3    H136835   4.361   6.258   6.882
12298TIP3    H236836   4.421   6.265   6.744
12299TIP3   OH236837   6.223   5.392   6.311
12299TIP3    H136838   6.209   5.379   6.404
12299TIP3    H236839   6.149   5.348   6.269
12300TIP3   OH236840   0.134   7.328   6.069
12300TIP3    H136841   0.202   7.283   6.019
12300TIP3    H236842   0.127   7.414   6.029
12301TIP3   OH236843   8.103   4.760   0.704
12301TIP3    H136844   8.112   4.754   0.799
12301TIP3    H236845   8.009   4.748   0.688
12302TIP3   OH236846   0.159   0.609   4.931
12302TIP3    H136847   0.129   0.520   4.909
12302TIP3    H236848   0.133   0.621   5.022
12303TIP3   OH236849   5.138   7.327   4.000
12303TIP3    H136850   5.161   7.270   4.074
12303TIP3    H236851   5.084   7.271   3.943
12304TIP3   OH236852   5.781   6.386   4.932
12304TIP3    H136853   5.782   6.384   4.836
12304TIP3    H236854   5.872   6.369   4.956
12305TIP3   OH236855   0.563   7.401   5.456
12305TIP3    H136856   0.525   7.455   5.525
12305TIP3    H236857   0.491   7.343   5.429
12306TIP3   OH236858   5.708   3.953   0.614
12306TIP3    H136859   5.634   4.000   0.574
12306TIP3    H236860   5.716   3.991   0.701
12307TIP3   OH236861   1.687   0.121   4.306
12307TIP3    H136862   1.704   0.137   4.399
12307TIP3    H236863   1.765   0.153   4.261
12308TIP3   OH236864   0.775   6.287   0.580
12308TIP3    H136865   0.858   6.269   0.624
12308TIP3    H236866   0.783   6.378   0.549
12309TIP3   OH236867   5.847   1.002   0.655
12309TIP3    H136868   5.812   1.059   0.586
12309TIP3    H236869   5.940   1.024   0.660
12310TIP3   OH236870   4.182   2.844   1.820
12310TIP3    H136871   4.271   2.814   1.838
12310TIP3    H236872   4.175   2.927   1.867
12311TIP3   OH236873   4.928   3.605   4.570
12311TIP3    H136874   4.939   3.525   4.519
12311TIP3    H236875   5.004   3.659   4.548
12312TIP3   OH236876   4.583   0.237   2.156
12312TIP3    H136877   4.568   0.148   2.124
12312TIP3    H236878   4.496   0.269   2.181
12313TIP3   OH236879   8.221   5.261   6.275
12313TIP3    H136880   8.301   5.238   6.229
12313TIP3    H236881   8.182   5.177   6.300
12314TIP3   OH236882   8.100   1.904   1.121
12314TIP3    H136883   8.045   1.961   1.174
12314TIP3    H236884   8.053   1.896   1.038
12315TIP3   OH236885   7.217   1.627   6.280
12315TIP3    H136886   7.299   1.603   6.323
12315TIP3    H236887   7.218   1.723   6.278
12316TIP3   OH236888   1.547   7.193   1.960
12316TIP3    H136889   1.583   7.159   1.878
12316TIP3    H236890   1.492   7.123   1.994
12317TIP3   OH236891   6.240   0.358   2.096
12317TIP3    H136892   6.310   0.310   2.052
12317TIP3    H236893   6.286   0.423   2.150
12318TIP3   OH236894   7.222   6.278   5.027
12318TIP3    H136895   7.296   6.246   4.976
12318TIP3    H236896   7.154   6.211   5.016
12319TIP3   OH236897   8.262   5.823   2.897
12319TIP3    H136898   8.298   5.912   2.898
12319TIP3    H236899   8.320   5.774   2.955
12320TIP3   OH236900   7.146   2.331   2.038
12320TIP3    H136901   7.101   2.306   1.957
12320TIP3    H236902   7.220   2.271   2.043
12321TIP3   OH236903   1.087   5.691   4.876
12321TIP3    H136904   1.149   5.624   4.848
12321TIP3    H236905   1.036   5.711   4.797
12322TIP3   OH236906   4.688   4.387   6.169
12322TIP3    H136907   4.755   4.449   6.199
12322TIP3    H236908   4.610   4.410   6.220
12323TIP3   OH236909   5.341   4.750   1.830
12323TIP3    H136910   5.378   4.671   1.790
12323TIP3    H236911   5.365   4.744   1.922
12324TIP3   OH236912   0.735   1.014   0.325
12324TIP3    H136913   0.791   0.948   0.366
12324TIP3    H236914   0.761   1.015   0.233
12325TIP3   OH236915   6.208   7.714   6.724
12325TIP3    H136916   6.181   7.791   6.675
12325TIP3    H236917   6.291   7.687   6.682
12326TIP3   OH236918   3.110   5.419   2.297
12326TIP3    H136919   3.157   5.502   2.309
12326TIP3    H236920   3.035   5.425   2.356
12327TIP3   OH236921   1.072   1.395   1.095
12327TIP3    H136922   1.084   1.351   1.179
12327TIP3    H236923   1.044   1.484   1.118
12328TIP3   OH236924   3.948   2.295   5.578
12328TIP3    H136925   3.975   2.378   5.540
12328TIP3    H236926   3.969   2.303   5.671
12329TIP3   OH236927   4.458   4.976   6.397
12329TIP3    H136928   4.408   5.028   6.460
12329TIP3    H236929   4.477   5.036   6.325
12330TIP3   OH236930   0.308   6.485   4.941
12330TIP3    H136931   0.331   6.543   5.014
12330TIP3    H236932   0.290   6.401   4.982
12331TIP3   OH236933   3.916   7.471   5.697
12331TIP3    H136934   3.993   7.444   5.647
12331TIP3    H236935   3.950   7.527   5.767
12332TIP3   OH236936   3.102   2.344   1.755
12332TIP3    H136937   3.120   2.413   1.819
12332TIP3    H236938   3.118   2.385   1.670
12333TIP3   OH236939   2.127   4.406   1.323
12333TIP3    H136940   2.126   4.493   1.283
12333TIP3    H236941   2.098   4.420   1.413
12334TIP3   OH236942   2.299   1.326   1.952
12334TIP3    H136943   2.367   1.305   2.017
12334TIP3    H236944   2.227   1.362   2.004
12335TIP3   OH236945   8.138   7.717   5.954
12335TIP3    H136946   8.200   7.731   6.026
12335TIP3    H236947   8.140   7.623   5.938
12336TIP3   OH236948   1.944   7.031   4.233
12336TIP3    H136949   2.037   7.009   4.225
12336TIP3    H236950   1.925   7.082   4.154
12337TIP3   OH236951   2.358   7.769   4.929
12337TIP3    H136952   2.319   7.786   5.015
12337TIP3    H236953   2.421   7.699   4.944
12338TIP3   OH236954   6.114   4.570   4.900
12338TIP3    H136955   6.097   4.635   4.968
12338TIP3    H236956   6.185   4.516   4.936
12339TIP3   OH236957   1.106   1.674   3.907
12339TIP3    H136958   1.031   1.722   3.942
12339TIP3    H236959   1.177   1.691   3.969
12340TIP3   OH236960   0.337   0.245   3.207
12340TIP3    H136961   0.314   0.299   3.132
12340TIP3    H236962   0.260   0.189   3.221
12341TIP3   OH236963   2.913   7.062   4.446
12341TIP3    H136964   2.866   7.003   4.387
12341TIP3    H236965   2.845   7.113   4.489
12342TIP3   OH236966   1.446   5.859   1.792
12342TIP3    H136967   1.369   5.828   1.744
12342TIP3    H236968   1.470   5.941   1.748
12343TIP3   OH236969   4.672   5.599   4.961
12343TIP3    H136970   4.760   5.565   4.982
12343TIP3    H236971   4.666   5.680   5.011
12344TIP3   OH236972   4.481   5.665   4.412
12344TIP3    H136973   4.397   5.634   4.378
12344TIP3    H236974   4.533   5.586   4.423
12345TIP3   OH236975   7.122   6.586   6.115
12345TIP3    H136976   7.084   6.611   6.030
12345TIP3    H236977   7.156   6.668   6.151
12346TIP3   OH236978   0.882   6.262   1.201
12346TIP3    H136979   0.797   6.260   1.244
12346TIP3    H236980   0.933   6.194   1.245
12347TIP3   OH236981   6.845   0.108   4.891
12347TIP3    H136982   6.907   0.052   4.845
12347TIP3    H236983   6.810   0.053   4.960
12348TIP3   OH236984   8.280   2.820   1.043
12348TIP3    H136985   8.338   2.746   1.026
12348TIP3    H236986   8.192   2.786   1.027
12349TIP3   OH236987   4.098   4.820   5.224
12349TIP3    H136988   4.179   4.774   5.207
12349TIP3    H236989   4.088   4.881   5.151
12350TIP3   OH236990   8.234   1.873   0.528
12350TIP3    H136991   8.316   1.861   0.575
12350TIP3    H236992   8.222   1.791   0.479
12351TIP3   OH236993   3.467   4.884   5.620
12351TIP3    H136994   3.466   4.870   5.525
12351TIP3    H236995   3.409   4.959   5.633
12352TIP3   OH236996   7.226   0.929   4.202
12352TIP3    H136997   7.255   0.840   4.220
12352TIP3    H236998   7.304   0.983   4.216
12353TIP3   OH236999   4.053   6.819   2.839
12353TIP3    H137000   4.097   6.865   2.910
12353TIP3    H237001   3.980   6.877   2.814
12354TIP3   OH237002   1.811   1.685   1.307
12354TIP3    H137003   1.834   1.626   1.236
12354TIP3    H237004   1.729   1.727   1.278
12355TIP3   OH237005   2.294   1.165   0.506
12355TIP3    H137006   2.267   1.086   0.553
12355TIP3    H237007   2.386   1.177   0.527
12356TIP3   OH237008   1.603   2.428   4.739
12356TIP3    H137009   1.647   2.465   4.662
12356TIP3    H237010   1.674   2.405   4.798
12357TIP3   OH237011   7.393   0.437   0.112
12357TIP3    H137012   7.373   0.425   0.205
12357TIP3    H237013   7.392   0.349   0.075
12358TIP3   OH237014   0.273   4.473   1.458
12358TIP3    H137015   0.248   4.385   1.428
12358TIP3    H237016   0.207   4.495   1.524
12359TIP3   OH237017   5.601   3.439   5.285
12359TIP3    H137018   5.672   3.441   5.222
12359TIP3    H237019   5.570   3.529   5.290
12360TIP3   OH237020   2.323   1.251   6.446
12360TIP3    H137021   2.384   1.228   6.516
12360TIP3    H237022   2.261   1.177   6.443
12361TIP3   OH237023   1.051   4.861   3.909
12361TIP3    H137024   1.060   4.771   3.942
12361TIP3    H237025   1.138   4.899   3.920
12362TIP3   OH237026   8.120   5.516   3.599
12362TIP3    H137027   8.108   5.466   3.680
12362TIP3    H237028   8.175   5.590   3.625
12363TIP3   OH237029   4.451   0.048   6.021
12363TIP3    H137030   4.365   0.058   5.981
12363TIP3    H237031   4.503   0.001   5.956
12364TIP3   OH237032   7.832   1.340   5.293
12364TIP3    H137033   7.846   1.386   5.376
12364TIP3    H237034   7.753   1.288   5.307
12365TIP3   OH237035   1.513   0.769   1.729
12365TIP3    H137036   1.446   0.756   1.796
12365TIP3    H237037   1.596   0.758   1.776
12366TIP3   OH237038   2.379   3.299   3.782
12366TIP3    H137039   2.388   3.208   3.752
12366TIP3    H237040   2.285   3.312   3.791
12367TIP3   OH237041   8.044   3.089   1.761
12367TIP3    H137042   8.086   3.128   1.837
12367TIP3    H237043   7.953   3.119   1.765
12368TIP3   OH237044   5.069   0.316   3.043
12368TIP3    H137045   5.004   0.387   3.052
12368TIP3    H237046   5.107   0.309   3.131
12369TIP3   OH237047   5.787   6.501   0.577
12369TIP3    H137048   5.843   6.483   0.501
12369TIP3    H237049   5.845   6.546   0.638
12370TIP3   OH237050   3.082   7.494   1.385
12370TIP3    H137051   3.013   7.448   1.432
12370TIP3    H237052   3.036   7.553   1.326
12371TIP3   OH237053   8.410   5.326   1.377
12371TIP3    H137054   8.358   5.269   1.434
12371TIP3    H237055   8.352   5.345   1.303
12372TIP3   OH237056   7.575   7.376   6.778
12372TIP3    H137057   7.650   7.324   6.807
12372TIP3    H237058   7.603   7.413   6.694
12373TIP3   OH237059   5.826   5.832   1.804
12373TIP3    H137060   5.780   5.914   1.786
12373TIP3    H237061   5.905   5.859   1.851
12374TIP3   OH237062   0.454   0.862   5.464
12374TIP3    H137063   0.548   0.879   5.456
12374TIP3    H237064   0.442   0.777   5.420
12375TIP3   OH237065   3.953   4.607   5.064
12375TIP3    H137066   3.865   4.576   5.086
12375TIP3    H237067   3.992   4.630   5.148
12376TIP3   OH237068   5.652   5.425   3.989
12376TIP3    H137069   5.703   5.378   3.923
12376TIP3    H237070   5.589   5.360   4.022
12377TIP3   OH237071   0.775   2.207   4.556
12377TIP3    H137072   0.796   2.116   4.533
12377TIP3    H237073   0.843   2.232   4.619
12378TIP3   OH237074   5.800   0.916   6.420
12378TIP3    H137075   5.862   0.884   6.354
12378TIP3    H237076   5.855   0.959   6.485
12379TIP3   OH237077   4.245   4.441   3.255
12379TIP3    H137078   4.180   4.448   3.324
12379TIP3    H237079   4.256   4.347   3.240
12380TIP3   OH237080   7.573   7.475   5.328
12380TIP3    H137081   7.528   7.425   5.259
12380TIP3    H237082   7.663   7.442   5.326
12381TIP3   OH237083   7.464   1.314   4.890
12381TIP3    H137084   7.461   1.405   4.861
12381TIP3    H237085   7.543   1.309   4.944
12382TIP3   OH237086  -0.008   2.097   1.811
12382TIP3    H137087  -0.083   2.089   1.870
12382TIP3    H237088   0.061   2.136   1.865
12383TIP3   OH237089   2.721   7.788   1.861
12383TIP3    H137090   2.759   7.701   1.873
12383TIP3    H237091   2.796   7.848   1.870
12384TIP3   OH237092   0.115   1.034   1.211
12384TIP3    H137093   0.181   1.081   1.262
12384TIP3    H237094   0.060   0.990   1.276
12385TIP3   OH237095   7.828   5.752   3.088
12385TIP3    H137096   7.881   5.760   3.008
12385TIP3    H237097   7.798   5.841   3.105
12386TIP3   OH237098   0.895   4.270   5.895
12386TIP3    H137099   0.904   4.364   5.880
12386TIP3    H237100   0.959   4.230   5.836
12387TIP3   OH237101   7.038   6.108   4.927
12387TIP3    H137102   7.012   6.039   4.989
12387TIP3    H237103   7.093   6.063   4.863
12388TIP3   OH237104   0.411   4.397   4.221
12388TIP3    H137105   0.431   4.400   4.314
12388TIP3    H237106   0.319   4.372   4.217
12389TIP3   OH237107   8.218   6.159   2.807
12389TIP3    H137108   8.143   6.125   2.759
12389TIP3    H237109   8.185   6.235   2.854
12390TIP3   OH237110   2.275   4.834   5.946
12390TIP3    H137111   2.230   4.913   5.976
12390TIP3    H237112   2.214   4.792   5.886
12391TIP3   OH237113   0.941   2.236   2.237
12391TIP3    H137114   0.981   2.311   2.193
12391TIP3    H237115   0.938   2.262   2.329
12392TIP3   OH237116   0.951   7.677   4.016
12392TIP3    H137117   0.884   7.629   3.967
12392TIP3    H237118   0.985   7.741   3.954
12393TIP3   OH237119   1.823   3.781   6.221
12393TIP3    H137120   1.775   3.782   6.139
12393TIP3    H237121   1.798   3.699   6.263
12394TIP3   OH237122   1.165   4.642   1.511
12394TIP3    H137123   1.089   4.593   1.542
12394TIP3    H237124   1.128   4.709   1.454
12395TIP3   OH237125   7.490   1.503   0.250
12395TIP3    H137126   7.535   1.472   0.328
12395TIP3    H237127   7.440   1.428   0.219
12396TIP3   OH237128   6.687   0.145   6.288
12396TIP3    H137129   6.674   0.231   6.327
12396TIP3    H237130   6.672   0.083   6.360
12397TIP3   OH237131   5.701   5.746   0.808
12397TIP3    H137132   5.613   5.761   0.774
12397TIP3    H237133   5.688   5.723   0.900
12398TIP3   OH237134   6.473   6.128   2.007
12398TIP3    H137135   6.523   6.066   1.956
12398TIP3    H237136   6.502   6.214   1.976
12399TIP3   OH237137   8.318   2.705   3.374
12399TIP3    H137138   8.398   2.696   3.323
12399TIP3    H237139   8.248   2.689   3.311
12400TIP3   OH237140   5.273   6.803   2.624
12400TIP3    H137141   5.267   6.896   2.604
12400TIP3    H237142   5.193   6.766   2.588
12401TIP3   OH237143   8.009   3.989   4.294
12401TIP3    H137144   8.097   4.003   4.259
12401TIP3    H237145   7.960   3.951   4.221
12402TIP3   OH237146   2.521   1.340   2.113
12402TIP3    H137147   2.515   1.434   2.099
12402TIP3    H237148   2.604   1.314   2.071
12403TIP3   OH237149   1.768   0.905   5.502
12403TIP3    H137150   1.686   0.945   5.473
12403TIP3    H237151   1.763   0.908   5.598
12404TIP3   OH237152   4.816   3.222   6.191
12404TIP3    H137153   4.765   3.302   6.175
12404TIP3    H237154   4.750   3.153   6.199
12405TIP3   OH237155   6.231   1.276   0.003
12405TIP3    H137156   6.191   1.288  -0.083
12405TIP3    H237157   6.191   1.344   0.057
12406TIP3   OH237158   1.256   0.226   5.690
12406TIP3    H137159   1.260   0.311   5.735
12406TIP3    H237160   1.194   0.175   5.742
12407TIP3   OH237161   0.530   4.054   4.253
12407TIP3    H137162   0.589   4.073   4.326
12407TIP3    H237163   0.589   4.031   4.181
12408TIP3   OH237164   6.464   1.390   6.737
12408TIP3    H137165   6.518   1.323   6.778
12408TIP3    H237166   6.468   1.371   6.643
12409TIP3   OH237167   5.385   3.269   5.183
12409TIP3    H137168   5.447   3.326   5.228
12409TIP3    H237169   5.436   3.230   5.111
12410TIP3   OH237170   2.203   0.024   6.028
12410TIP3    H137171   2.258   0.100   6.048
12410TIP3    H237172   2.180   0.035   5.936
12411TIP3   OH237173   7.005   6.761   2.795
12411TIP3    H137174   7.063   6.692   2.827
12411TIP3    H237175   6.926   6.753   2.848
12412TIP3   OH237176   1.247   0.613   0.938
12412TIP3    H137177   1.182   0.676   0.907
12412TIP3    H237178   1.317   0.668   0.975
12413TIP3   OH237179   3.062   0.792   5.292
12413TIP3    H137180   3.017   0.810   5.375
12413TIP3    H237181   3.142   0.845   5.296
12414TIP3   OH237182   1.436   2.258   5.392
12414TIP3    H137183   1.423   2.245   5.486
12414TIP3    H237184   1.405   2.177   5.352
12415TIP3   OH237185   7.813   6.989   1.198
12415TIP3    H137186   7.722   7.017   1.193
12415TIP3    H237187   7.863   7.066   1.169
12416TIP3   OH237188   4.914   0.922   6.329
12416TIP3    H137189   4.877   0.864   6.262
12416TIP3    H237190   5.002   0.941   6.298
12417TIP3   OH237191   4.400   2.987   3.208
12417TIP3    H137192   4.321   2.978   3.260
12417TIP3    H237193   4.468   3.010   3.271
12418TIP3   OH237194   6.449   1.344   1.220
12418TIP3    H137195   6.425   1.435   1.238
12418TIP3    H237196   6.524   1.327   1.277
12419TIP3   OH237197   6.330   0.457   6.666
12419TIP3    H137198   6.276   0.391   6.711
12419TIP3    H237199   6.272   0.533   6.658
12420TIP3   OH237200   6.650   6.731   6.647
12420TIP3    H137201   6.587   6.659   6.649
12420TIP3    H237202   6.669   6.749   6.739
12421TIP3   OH237203   3.668   0.846   0.057
12421TIP3    H137204   3.645   0.784  -0.012
12421TIP3    H237205   3.762   0.861   0.045
12422TIP3   OH237206   7.847   7.768   1.976
12422TIP3    H137207   7.848   7.701   1.907
12422TIP3    H237208   7.756   7.794   1.983
12423TIP3   OH237209   5.670   7.071   6.702
12423TIP3    H137210   5.683   7.166   6.702
12423TIP3    H237211   5.708   7.042   6.785
12424TIP3   OH237212   5.145   7.582   1.018
12424TIP3    H137213   5.136   7.667   0.976
12424TIP3    H237214   5.152   7.520   0.945
12425TIP3   OH237215   1.817   5.702   2.517
12425TIP3    H137216   1.865   5.721   2.437
12425TIP3    H237217   1.796   5.609   2.512
12426TIP3   OH237218   6.264   1.464   1.847
12426TIP3    H137219   6.281   1.549   1.889
12426TIP3    H237220   6.199   1.484   1.779
12427TIP3   OH237221   4.059   3.647   2.670
12427TIP3    H137222   4.011   3.689   2.598
12427TIP3    H237223   3.990   3.614   2.729
12428TIP3   OH237224   1.999   5.177   2.468
12428TIP3    H137225   1.927   5.241   2.466
12428TIP3    H237226   1.967   5.107   2.525
12429TIP3   OH237227   7.150   4.933   1.282
12429TIP3    H137228   7.113   4.845   1.292
12429TIP3    H237229   7.175   4.939   1.190
12430TIP3   OH237230   3.984   0.972   0.029
12430TIP3    H137231   4.057   0.927  -0.014
12430TIP3    H237232   4.016   0.992   0.116
12431TIP3   OH237233   1.648   2.481   3.009
12431TIP3    H137234   1.667   2.429   2.931
12431TIP3    H237235   1.682   2.568   2.989
12432TIP3   OH237236   2.162   5.321   5.086
12432TIP3    H137237   2.141   5.264   5.159
12432TIP3    H237238   2.254   5.345   5.101
12433TIP3   OH237239   5.104   2.499   5.607
12433TIP3    H137240   5.193   2.521   5.635
12433TIP3    H237241   5.110   2.407   5.581
12434TIP3   OH237242   4.738   4.962   5.732
12434TIP3    H137243   4.654   4.970   5.688
12434TIP3    H237244   4.756   4.868   5.733
12435TIP3   OH237245   2.185   5.989   4.159
12435TIP3    H137246   2.091   6.004   4.158
12435TIP3    H237247   2.215   6.031   4.239
12436TIP3   OH237248   3.879   4.040   0.337
12436TIP3    H137249   3.814   4.045   0.407
12436TIP3    H237250   3.959   4.013   0.381
12437TIP3   OH237251   6.287   2.186   0.176
12437TIP3    H137252   6.363   2.128   0.181
12437TIP3    H237253   6.323   2.274   0.185
12438TIP3   OH237254   8.101   3.875   1.139
12438TIP3    H137255   8.031   3.810   1.145
12438TIP3    H237256   8.062   3.950   1.095
12439TIP3   OH237257   1.915   3.538   5.471
12439TIP3    H137258   1.823   3.513   5.462
12439TIP3    H237259   1.944   3.493   5.551
12440TIP3   OH237260   6.503   5.863   6.044
12440TIP3    H137261   6.410   5.883   6.031
12440TIP3    H237262   6.548   5.944   6.022
12441TIP3   OH237263   3.664   3.699   4.201
12441TIP3    H137264   3.634   3.628   4.258
12441TIP3    H237265   3.661   3.662   4.113
12442TIP3   OH237266   7.834   6.009   2.865
12442TIP3    H137267   7.813   6.099   2.891
12442TIP3    H237268   7.748   5.966   2.856
12443TIP3   OH237269   4.356   3.047   4.724
12443TIP3    H137270   4.376   3.139   4.706
12443TIP3    H237271   4.439   3.009   4.752
12444TIP3   OH237272   6.564   6.114   5.987
12444TIP3    H137273   6.555   6.206   5.964
12444TIP3    H237274   6.608   6.114   6.072
12445TIP3   OH237275   6.722   2.336   3.835
12445TIP3    H137276   6.711   2.266   3.771
12445TIP3    H237277   6.641   2.335   3.886
12446TIP3   OH237278   0.948   4.903   2.919
12446TIP3    H137279   0.868   4.942   2.883
12446TIP3    H237280   1.009   4.899   2.845
12447TIP3   OH237281   6.701   6.937   5.946
12447TIP3    H137282   6.725   7.018   5.899
12447TIP3    H237283   6.656   6.968   6.024
12448TIP3   OH237284   7.115   5.157   3.642
12448TIP3    H137285   7.140   5.064   3.636
12448TIP3    H237286   7.188   5.203   3.601
12449TIP3   OH237287   2.627   3.563   4.330
12449TIP3    H137288   2.588   3.578   4.416
12449TIP3    H237289   2.692   3.495   4.344
12450TIP3   OH237290   4.939   7.335   4.528
12450TIP3    H137291   4.996   7.321   4.453
12450TIP3    H237292   4.943   7.253   4.577
12451TIP3   OH237293   2.102   0.764   2.152
12451TIP3    H137294   2.041   0.815   2.205
12451TIP3    H237295   2.183   0.764   2.202
12452TIP3   OH237296   7.241   6.712   5.858
12452TIP3    H137297   7.277   6.776   5.797
12452TIP3    H237298   7.160   6.681   5.815
12453TIP3   OH237299   5.953   6.041   2.526
12453TIP3    H137300   5.960   6.101   2.600
12453TIP3    H237301   5.904   6.089   2.460
12454TIP3   OH237302   6.962   4.739   2.547
12454TIP3    H137303   6.918   4.766   2.628
12454TIP3    H237304   7.053   4.765   2.561
12455TIP3   OH237305   7.513   6.238   2.573
12455TIP3    H137306   7.443   6.235   2.508
12455TIP3    H237307   7.469   6.219   2.656
12456TIP3   OH237308   7.153   0.893   5.818
12456TIP3    H137309   7.080   0.953   5.804
12456TIP3    H237310   7.230   0.950   5.816
12457TIP3   OH237311   2.718   0.490   6.611
12457TIP3    H137312   2.780   0.417   6.604
12457TIP3    H237313   2.687   0.485   6.701
12458TIP3   OH237314   0.078   5.945   4.739
12458TIP3    H137315   0.109   6.032   4.763
12458TIP3    H237316   0.152   5.905   4.694
12459TIP3   OH237317   0.074   4.801   2.063
12459TIP3    H137318   0.026   4.803   1.981
12459TIP3    H237319   0.156   4.847   2.045
12460TIP3   OH237320   8.390   6.982   4.328
12460TIP3    H137321   8.432   6.999   4.412
12460TIP3    H237322   8.297   6.971   4.350
12461TIP3   OH237323   5.899   7.460   4.768
12461TIP3    H137324   5.812   7.426   4.749
12461TIP3    H237325   5.916   7.523   4.698
12462TIP3   OH237326   2.514   4.451   0.670
12462TIP3    H137327   2.466   4.390   0.726
12462TIP3    H237328   2.527   4.528   0.724
12463TIP3   OH237329   7.753   3.930   6.507
12463TIP3    H137330   7.736   4.023   6.525
12463TIP3    H237331   7.784   3.895   6.590
12464TIP3   OH237332   4.521   6.547   5.764
12464TIP3    H137333   4.502   6.453   5.766
12464TIP3    H237334   4.527   6.568   5.671
12465TIP3   OH237335   6.581   7.645   4.237
12465TIP3    H137336   6.518   7.666   4.306
12465TIP3    H237337   6.608   7.555   4.256
12466TIP3   OH237338   3.967   4.914   3.930
12466TIP3    H137339   4.051   4.903   3.975
12466TIP3    H237340   3.924   4.986   3.976
12467TIP3   OH237341   6.301   4.172   0.964
12467TIP3    H137342   6.237   4.200   1.030
12467TIP3    H237343   6.268   4.087   0.935
12468TIP3   OH237344   0.773   0.696   3.815
12468TIP3    H137345   0.748   0.736   3.898
12468TIP3    H237346   0.764   0.765   3.751
12469TIP3   OH237347   1.868   6.398   2.003
12469TIP3    H137348   1.790   6.453   1.995
12469TIP3    H237349   1.859   6.356   2.089
12470TIP3   OH237350   1.514   1.759   1.710
12470TIP3    H137351   1.527   1.764   1.805
12470TIP3    H237352   1.589   1.708   1.678
12471TIP3   OH237353   5.840   7.304   3.178
12471TIP3    H137354   5.901   7.232   3.193
12471TIP3    H237355   5.767   7.264   3.131
12472TIP3   OH237356   2.668   1.371   6.364
12472TIP3    H137357   2.682   1.374   6.270
12472TIP3    H237358   2.708   1.289   6.393
12473TIP3   OH237359   1.868   1.978   4.374
12473TIP3    H137360   1.913   2.058   4.346
12473TIP3    H237361   1.897   1.965   4.465
12474TIP3   OH237362   2.650   5.957   3.531
12474TIP3    H137363   2.563   5.922   3.554
12474TIP3    H237364   2.707   5.880   3.532
12475TIP3   OH237365   0.504   2.124   5.606
12475TIP3    H137366   0.502   2.219   5.609
12475TIP3    H237367   0.519   2.103   5.514
12476TIP3   OH237368   6.506   4.182   3.604
12476TIP3    H137369   6.598   4.161   3.617
12476TIP3    H237370   6.479   4.223   3.686
12477TIP3   OH237371   3.231   1.527   5.809
12477TIP3    H137372   3.259   1.594   5.747
12477TIP3    H237373   3.191   1.576   5.881
12478TIP3   OH237374   0.150   7.660   4.930
12478TIP3    H137375   0.195   7.740   4.904
12478TIP3    H237376   0.061   7.671   4.897
12479TIP3   OH237377   4.387   0.873   1.797
12479TIP3    H137378   4.464   0.821   1.820
12479TIP3    H237379   4.386   0.945   1.860
12480TIP3   OH237380   3.631   2.304   6.475
12480TIP3    H137381   3.688   2.353   6.534
12480TIP3    H237382   3.690   2.247   6.426
12481TIP3   OH237383   3.239   1.565   2.888
12481TIP3    H137384   3.242   1.539   2.795
12481TIP3    H237385   3.146   1.579   2.906
12482TIP3   OH237386   6.846   7.647   5.605
12482TIP3    H137387   6.754   7.659   5.626
12482TIP3    H237388   6.875   7.732   5.571
12483TIP3   OH237389   1.708   1.320   2.460
12483TIP3    H137390   1.644   1.260   2.422
12483TIP3    H237391   1.789   1.268   2.464
12484TIP3   OH237392   3.376   6.872   6.758
12484TIP3    H137393   3.454   6.854   6.706
12484TIP3    H237394   3.305   6.878   6.694
12485TIP3   OH237395   0.371   4.525   2.158
12485TIP3    H137396   0.420   4.456   2.113
12485TIP3    H237397   0.423   4.545   2.236
12486TIP3   OH237398   0.128   0.589   1.336
12486TIP3    H137399   0.072   0.544   1.399
12486TIP3    H237400   0.117   0.540   1.254
12487TIP3   OH237401   2.922   4.328   4.441
12487TIP3    H137402   2.989   4.275   4.484
12487TIP3    H237403   2.933   4.415   4.480
12488TIP3   OH237404   6.105   2.506   2.316
12488TIP3    H137405   6.124   2.417   2.285
12488TIP3    H237406   6.015   2.501   2.348
12489TIP3   OH237407   4.837   5.262   6.709
12489TIP3    H137408   4.822   5.171   6.685
12489TIP3    H237409   4.931   5.276   6.692
12490TIP3   OH237410   8.355   5.207   4.013
12490TIP3    H137411   8.319   5.252   4.090
12490TIP3    H237412   8.311   5.122   4.012
12491TIP3   OH237413   7.392   1.350   1.789
12491TIP3    H137414   7.357   1.390   1.869
12491TIP3    H237415   7.484   1.332   1.810
12492TIP3   OH237416   1.311   3.675   2.365
12492TIP3    H137417   1.230   3.725   2.364
12492TIP3    H237418   1.370   3.724   2.308
12493TIP3   OH237419   7.314   0.117   3.391
12493TIP3    H137420   7.226   0.086   3.370
12493TIP3    H237421   7.369   0.084   3.319
12494TIP3   OH237422   4.406   4.899   1.419
12494TIP3    H137423   4.409   4.962   1.491
12494TIP3    H237424   4.347   4.830   1.449
12495TIP3   OH237425   6.518   2.351   1.049
12495TIP3    H137426   6.553   2.294   1.117
12495TIP3    H237427   6.574   2.336   0.973
12496TIP3   OH237428   0.425   6.614   3.113
12496TIP3    H137429   0.495   6.635   3.052
12496TIP3    H237430   0.429   6.519   3.123
12497TIP3   OH237431   6.841   7.201   4.392
12497TIP3    H137432   6.873   7.163   4.310
12497TIP3    H237433   6.756   7.239   4.369
12498TIP3   OH237434   4.041   6.425   1.534
12498TIP3    H137435   4.026   6.511   1.574
12498TIP3    H237436   4.123   6.435   1.487
12499TIP3   OH237437   7.738   7.337   4.471
12499TIP3    H137438   7.780   7.345   4.557
12499TIP3    H237439   7.810   7.335   4.409
12500TIP3   OH237440   5.181   2.788   1.881
12500TIP3    H137441   5.161   2.702   1.845
12500TIP3    H237442   5.263   2.776   1.928
12501TIP3   OH237443   6.782   6.141   6.474
12501TIP3    H137444   6.836   6.220   6.487
12501TIP3    H237445   6.769   6.107   6.563
12502TIP3   OH237446   6.010   5.081   4.399
12502TIP3    H137447   6.068   5.152   4.371
12502TIP3    H237448   6.067   5.022   4.449
12503TIP3   OH237449   3.426   7.771   5.270
12503TIP3    H137450   3.346   7.742   5.227
12503TIP3    H237451   3.396   7.836   5.334
12504TIP3   OH237452   6.975   3.616   0.600
12504TIP3    H137453   7.019   3.546   0.648
12504TIP3    H237454   7.036   3.690   0.605
12505TIP3   OH237455   4.978   4.589   6.561
12505TIP3    H137456   5.010   4.606   6.649
12505TIP3    H237457   5.017   4.658   6.507
12506TIP3   OH237458   3.610   4.408   6.118
12506TIP3    H137459   3.556   4.389   6.041
12506TIP3    H237460   3.700   4.394   6.088
12507TIP3   OH237461   4.364   4.408   0.940
12507TIP3    H137462   4.391   4.398   1.031
12507TIP3    H237463   4.430   4.466   0.902
12508TIP3   OH237464   1.995   2.254   3.093
12508TIP3    H137465   1.959   2.208   3.169
12508TIP3    H237466   2.002   2.345   3.121
12509TIP3   OH237467   5.445   1.163   6.533
12509TIP3    H137468   5.482   1.089   6.485
12509TIP3    H237469   5.431   1.129   6.622
12510TIP3   OH237470   4.198   3.249   4.971
12510TIP3    H137471   4.180   3.196   5.049
12510TIP3    H237472   4.273   3.303   4.995
12511TIP3   OH237473   8.021   4.009   0.048
12511TIP3    H137474   8.097   3.992  -0.007
12511TIP3    H237475   8.049   4.080   0.107
12512TIP3   OH237476   4.967   3.370   1.600
12512TIP3    H137477   4.965   3.338   1.510
12512TIP3    H237478   5.039   3.433   1.601
12513TIP3   OH237479   7.375   2.593   5.365
12513TIP3    H137480   7.349   2.570   5.454
12513TIP3    H237481   7.382   2.689   5.366
12514TIP3   OH237482   0.979   6.110   0.957
12514TIP3    H137483   0.994   6.016   0.956
12514TIP3    H237484   0.912   6.124   1.024
12515TIP3   OH237485   1.908   7.336   6.030
12515TIP3    H137486   1.823   7.346   5.987
12515TIP3    H237487   1.963   7.402   5.989
12516TIP3   OH237488   7.745   5.345   0.550
12516TIP3    H137489   7.709   5.433   0.560
12516TIP3    H237490   7.697   5.307   0.476
12517TIP3   OH237491   4.824   0.205   0.062
12517TIP3    H137492   4.804   0.182  -0.028
12517TIP3    H237493   4.871   0.129   0.097
12518TIP3   OH237494   0.169   4.047   0.363
12518TIP3    H137495   0.163   3.952   0.352
12518TIP3    H237496   0.172   4.060   0.458
12519TIP3   OH237497   1.227   3.664   5.492
12519TIP3    H137498   1.188   3.589   5.538
12519TIP3    H237499   1.288   3.625   5.430
12520TIP3   OH237500   1.752   0.561   5.506
12520TIP3    H137501   1.742   0.654   5.484
12520TIP3    H237502   1.686   0.517   5.454
12521TIP3   OH237503   0.418   7.695   3.272
12521TIP3    H137504   0.389   7.782   3.245
12521TIP3    H237505   0.339   7.652   3.305
12522TIP3   OH237506   5.912   2.305   4.974
12522TIP3    H137507   5.912   2.255   4.892
12522TIP3    H237508   5.864   2.385   4.953
12523TIP3   OH237509   1.385   3.108   3.065
12523TIP3    H137510   1.389   3.035   3.127
12523TIP3    H237511   1.476   3.120   3.036
12524TIP3   OH237512   4.542   0.843   5.416
12524TIP3    H137513   4.589   0.788   5.354
12524TIP3    H237514   4.565   0.933   5.391
12525TIP3   OH237515   3.390   6.177   4.373
12525TIP3    H137516   3.423   6.113   4.309
12525TIP3    H237517   3.364   6.124   4.448
12526TIP3   OH237518   3.398   2.498   5.269
12526TIP3    H137519   3.332   2.432   5.247
12526TIP3    H237520   3.349   2.580   5.277
12527TIP3   OH237521   3.492   4.410   2.561
12527TIP3    H137522   3.586   4.405   2.577
12527TIP3    H237523   3.473   4.336   2.503
12528TIP3   OH237524   0.924   4.722   2.524
12528TIP3    H137525   0.842   4.740   2.571
12528TIP3    H237526   0.991   4.769   2.574
12529TIP3   OH237527   4.701   1.143   0.852
12529TIP3    H137528   4.650   1.220   0.827
12529TIP3    H237529   4.727   1.103   0.769
12530TIP3   OH237530   5.612   7.692   3.245
12530TIP3    H137531   5.642   7.678   3.335
12530TIP3    H237532   5.645   7.779   3.222
12531TIP3   OH237533   5.316   4.083   1.050
12531TIP3    H137534   5.227   4.091   1.016
12531TIP3    H237535   5.372   4.089   0.973
12532TIP3   OH237536   6.932   7.876   4.672
12532TIP3    H137537   7.007   7.822   4.647
12532TIP3    H237538   6.856   7.827   4.639
12533TIP3   OH237539   3.053   5.119   5.156
12533TIP3    H137540   3.099   5.148   5.077
12533TIP3    H237541   3.009   5.198   5.189
12534TIP3   OH237542   3.830   1.151   4.603
12534TIP3    H137543   3.739   1.120   4.604
12534TIP3    H237544   3.870   1.111   4.680
12535TIP3   OH237545   0.787   2.044   3.448
12535TIP3    H137546   0.738   1.982   3.503
12535TIP3    H237547   0.856   1.991   3.408
12536TIP3   OH237548   3.194   7.140   6.743
12536TIP3    H137549   3.244   7.058   6.749
12536TIP3    H237550   3.188   7.157   6.648
12537TIP3   OH237551   0.392   5.140   0.262
12537TIP3    H137552   0.457   5.117   0.328
12537TIP3    H237553   0.416   5.228   0.234
12538TIP3   OH237554   6.016   3.323   5.422
12538TIP3    H137555   5.925   3.330   5.451
12538TIP3    H237556   6.027   3.230   5.403
12539TIP3   OH237557   5.304   1.174   0.816
12539TIP3    H137558   5.273   1.114   0.884
12539TIP3    H237559   5.374   1.225   0.857
12540TIP3   OH237560   4.541   2.209   4.848
12540TIP3    H137561   4.462   2.250   4.883
12540TIP3    H237562   4.536   2.118   4.878
12541TIP3   OH237563   2.621   3.731   2.494
12541TIP3    H137564   2.603   3.822   2.516
12541TIP3    H237565   2.705   3.734   2.447
12542TIP3   OH237566   8.375   5.640   1.929
12542TIP3    H137567   8.307   5.583   1.964
12542TIP3    H237568   8.331   5.725   1.917
12543TIP3   OH237569   5.225   5.095   6.773
12543TIP3    H137570   5.313   5.111   6.739
12543TIP3    H237571   5.181   5.179   6.765
12544TIP3   OH237572   1.027   1.006   1.138
12544TIP3    H137573   1.093   1.065   1.173
12544TIP3    H237574   1.035   0.926   1.192
12545TIP3   OH237575   5.725   5.655   0.072
12545TIP3    H137576   5.687   5.590   0.014
12545TIP3    H237577   5.675   5.647   0.154
12546TIP3   OH237578   0.616   2.991   4.288
12546TIP3    H137579   0.676   3.064   4.274
12546TIP3    H237580   0.533   3.032   4.312
12547TIP3   OH237581   2.643   4.776   4.300
12547TIP3    H137582   2.623   4.700   4.246
12547TIP3    H237583   2.600   4.849   4.256
12548TIP3   OH237584   1.515   4.550   0.643
12548TIP3    H137585   1.489   4.458   0.638
12548TIP3    H237586   1.600   4.548   0.688
12549TIP3   OH237587   3.328   4.603   2.256
12549TIP3    H137588   3.306   4.696   2.248
12549TIP3    H237589   3.364   4.595   2.344
12550TIP3   OH237590   8.029   0.656   0.188
12550TIP3    H137591   8.061   0.670   0.277
12550TIP3    H237592   7.986   0.739   0.165
12551TIP3   OH237593   4.310   4.603   3.888
12551TIP3    H137594   4.338   4.694   3.879
12551TIP3    H237595   4.366   4.567   3.957
12552TIP3   OH237596   3.119   6.218   4.267
12552TIP3    H137597   3.212   6.206   4.282
12552TIP3    H237598   3.080   6.216   4.355
12553TIP3   OH237599   7.259   6.783   0.763
12553TIP3    H137600   7.267   6.867   0.718
12553TIP3    H237601   7.342   6.738   0.744
12554TIP3   OH237602   2.052   3.528   6.397
12554TIP3    H137603   2.017   3.499   6.313
12554TIP3    H237604   1.995   3.600   6.423
12555TIP3   OH237605   1.851   5.762   5.396
12555TIP3    H137606   1.876   5.854   5.391
12555TIP3    H237607   1.830   5.748   5.488
12556TIP3   OH237608   7.872   6.641   3.046
12556TIP3    H137609   7.935   6.672   2.982
12556TIP3    H237610   7.843   6.556   3.012
12557TIP3   OH237611   8.148   5.118   5.761
12557TIP3    H137612   8.079   5.152   5.704
12557TIP3    H237613   8.228   5.161   5.731
12558TIP3   OH237614   2.736   0.477   0.582
12558TIP3    H137615   2.816   0.429   0.564
12558TIP3    H237616   2.737   0.491   0.676
12559TIP3   OH237617   1.713   0.262   0.178
12559TIP3    H137618   1.743   0.283   0.266
12559TIP3    H237619   1.724   0.343   0.128
12560TIP3   OH237620   1.606   6.368   6.402
12560TIP3    H137621   1.529   6.368   6.459
12560TIP3    H237622   1.592   6.439   6.341
12561TIP3   OH237623   6.796   2.878   1.441
12561TIP3    H137624   6.721   2.866   1.382
12561TIP3    H237625   6.869   2.897   1.383
12562TIP3   OH237626   2.183   7.788   5.180
12562TIP3    H137627   2.103   7.745   5.210
12562TIP3    H237628   2.155   7.874   5.149
12563TIP3   OH237629   2.394   5.252   5.247
12563TIP3    H137630   2.448   5.287   5.318
12563TIP3    H237631   2.342   5.184   5.288
12564TIP3   OH237632   5.096   6.571   5.874
12564TIP3    H137633   5.091   6.491   5.821
12564TIP3    H237634   5.061   6.545   5.959
12565TIP3   OH237635   3.837   3.064   1.616
12565TIP3    H137636   3.891   3.011   1.558
12565TIP3    H237637   3.844   3.022   1.702
12566TIP3   OH237638   5.280   3.090   0.073
12566TIP3    H137639   5.318   3.177   0.075
12566TIP3    H237640   5.323   3.043   0.144
12567TIP3   OH237641   2.038   4.540   5.576
12567TIP3    H137642   2.091   4.613   5.608
12567TIP3    H237643   2.002   4.571   5.493
12568TIP3   OH237644   1.552   0.867   4.865
12568TIP3    H137645   1.633   0.889   4.820
12568TIP3    H237646   1.503   0.948   4.869
12569TIP3   OH237647   2.522   0.088   0.563
12569TIP3    H137648   2.503   0.048   0.647
12569TIP3    H237649   2.521   0.182   0.580
12570TIP3   OH237650   0.557   1.235   6.411
12570TIP3    H137651   0.574   1.327   6.428
12570TIP3    H237652   0.587   1.190   6.490
12571TIP3   OH237653   1.044   0.368   1.909
12571TIP3    H137654   1.026   0.274   1.905
12571TIP3    H237655   1.093   0.379   1.990
12572TIP3   OH237656   7.389   0.805   2.413
12572TIP3    H137657   7.410   0.724   2.459
12572TIP3    H237658   7.317   0.782   2.355
12573TIP3   OH237659   2.924   5.165   2.481
12573TIP3    H137660   2.947   5.151   2.573
12573TIP3    H237661   3.007   5.157   2.435
12574TIP3   OH237662   2.694   5.225   0.897
12574TIP3    H137663   2.691   5.145   0.950
12574TIP3    H237664   2.750   5.201   0.823
12575TIP3   OH237665   5.870   1.351   4.995
12575TIP3    H137666   5.914   1.266   5.003
12575TIP3    H237667   5.805   1.351   5.064
12576TIP3   OH237668   8.094   5.815   5.418
12576TIP3    H137669   8.062   5.799   5.507
12576TIP3    H237670   8.102   5.728   5.379
12577TIP3   OH237671   1.031   5.616   3.507
12577TIP3    H137672   1.037   5.630   3.602
12577TIP3    H237673   1.049   5.702   3.469
12578TIP3   OH237674   1.617   5.115   3.907
12578TIP3    H137675   1.592   5.110   3.814
12578TIP3    H237676   1.673   5.039   3.921
12579TIP3   OH237677   1.870   5.897   3.341
12579TIP3    H137678   1.957   5.925   3.310
12579TIP3    H237679   1.888   5.826   3.402
12580TIP3   OH237680   4.798   6.960   6.451
12580TIP3    H137681   4.827   7.045   6.484
12580TIP3    H237682   4.866   6.899   6.478
12581TIP3   OH237683   4.545   6.268   4.984
12581TIP3    H137684   4.499   6.232   5.060
12581TIP3    H237685   4.632   6.291   5.016
12582TIP3   OH237686   3.182   1.660   1.990
12582TIP3    H137687   3.269   1.700   1.988
12582TIP3    H237688   3.198   1.567   1.974
12583TIP3   OH237689   7.652   1.695   0.518
12583TIP3    H137690   7.741   1.730   0.513
12583TIP3    H237691   7.603   1.761   0.566
12584TIP3   OH237692   2.453   3.295   6.168
12584TIP3    H137693   2.412   3.382   6.168
12584TIP3    H237694   2.459   3.271   6.076
12585TIP3   OH237695   2.528   7.066   3.915
12585TIP3    H137696   2.526   6.971   3.932
12585TIP3    H237697   2.536   7.105   4.002
12586TIP3   OH237698   1.624   7.169   4.113
12586TIP3    H137699   1.584   7.155   4.198
12586TIP3    H237700   1.678   7.247   4.124
12587TIP3   OH237701   5.314   7.077   3.013
12587TIP3    H137702   5.388   7.112   2.963
12587TIP3    H237703   5.265   7.024   2.950
12588TIP3   OH237704   2.123   6.750   5.702
12588TIP3    H137705   2.067   6.783   5.632
12588TIP3    H237706   2.200   6.807   5.700
12589TIP3   OH237707   5.713   2.035   1.508
12589TIP3    H137708   5.736   1.975   1.579
12589TIP3    H237709   5.772   2.012   1.436
12590TIP3   OH237710   7.196   2.224   5.952
12590TIP3    H137711   7.186   2.179   6.036
12590TIP3    H237712   7.237   2.159   5.895
12591TIP3   OH237713   2.791   1.223   4.477
12591TIP3    H137714   2.793   1.128   4.490
12591TIP3    H237715   2.862   1.256   4.532
12592TIP3   OH237716   5.950   4.227   5.991
12592TIP3    H137717   6.001   4.237   5.910
12592TIP3    H237718   5.990   4.151   6.034
12593TIP3   OH237719   6.000   3.270   0.711
12593TIP3    H137720   5.910   3.243   0.731
12593TIP3    H237721   5.993   3.318   0.628
12594TIP3   OH237722   6.753   1.674   4.449
12594TIP3    H137723   6.769   1.581   4.462
12594TIP3    H237724   6.693   1.678   4.375
12595TIP3   OH237725   5.583   5.582   2.733
12595TIP3    H137726   5.514   5.632   2.778
12595TIP3    H237727   5.664   5.607   2.778
12596TIP3   OH237728   6.978   5.462   4.034
12596TIP3    H137729   6.968   5.370   4.061
12596TIP3    H237730   6.977   5.511   4.116
12597TIP3   OH237731   3.049   2.322   5.700
12597TIP3    H137732   3.065   2.373   5.779
12597TIP3    H237733   3.136   2.292   5.672
12598TIP3   OH237734   3.899   6.032   4.744
12598TIP3    H137735   3.923   6.081   4.823
12598TIP3    H237736   3.901   6.096   4.673
12599TIP3   OH237737   6.350   2.879   3.241
12599TIP3    H137738   6.354   2.797   3.191
12599TIP3    H237739   6.429   2.927   3.215
12600TIP3   OH237740   7.796   7.783   6.303
12600TIP3    H137741   7.878   7.830   6.315
12600TIP3    H237742   7.786   7.775   6.208
12601TIP3   OH237743   4.548   3.176   0.271
12601TIP3    H137744   4.477   3.114   0.288
12601TIP3    H237745   4.507   3.244   0.217
12602TIP3   OH237746   8.219   4.540   3.846
12602TIP3    H137747   8.187   4.459   3.886
12602TIP3    H237748   8.194   4.608   3.908
12603TIP3   OH237749   3.486   3.070   3.721
12603TIP3    H137750   3.447   2.982   3.712
12603TIP3    H237751   3.565   3.056   3.772
12604TIP3   OH237752   2.730   5.113   2.297
12604TIP3    H137753   2.695   5.036   2.341
12604TIP3    H237754   2.791   5.151   2.359
12605TIP3   OH237755   6.427   5.845   6.641
12605TIP3    H137756   6.428   5.816   6.550
12605TIP3    H237757   6.452   5.937   6.638
12606TIP3   OH237758   7.964   5.840   4.724
12606TIP3    H137759   7.963   5.855   4.819
12606TIP3    H237760   7.881   5.795   4.707
12607TIP3   OH237761   3.342   0.401   4.366
12607TIP3    H137762   3.300   0.315   4.357
12607TIP3    H237763   3.333   0.441   4.280
12608TIP3   OH237764   0.072   7.679   1.397
12608TIP3    H137765   0.056   7.761   1.445
12608TIP3    H237766   0.016   7.615   1.440
12609TIP3   OH237767   7.341   5.463   0.491
12609TIP3    H137768   7.293   5.498   0.417
12609TIP3    H237769   7.422   5.514   0.494
12610TIP3   OH237770   8.352   1.771   5.351
12610TIP3    H137771   8.412   1.697   5.353
12610TIP3    H237772   8.307   1.763   5.267
12611TIP3   OH237773   3.067   6.714   5.277
12611TIP3    H137774   2.981   6.753   5.289
12611TIP3    H237775   3.127   6.788   5.265
12612TIP3   OH237776   5.767   4.721   3.063
12612TIP3    H137777   5.827   4.686   2.996
12612TIP3    H237778   5.696   4.657   3.066
12613TIP3   OH237779   0.827   4.789   4.213
12613TIP3    H137780   0.781   4.816   4.133
12613TIP3    H237781   0.903   4.740   4.182
12614TIP3   OH237782   6.373   7.240   3.723
12614TIP3    H137783   6.421   7.179   3.779
12614TIP3    H237784   6.282   7.233   3.753
12615TIP3   OH237785   3.852   7.891   4.603
12615TIP3    H137786   3.920   7.953   4.577
12615TIP3    H237787   3.854   7.824   4.536
12616TIP3   OH237788   7.910   7.612   5.294
12616TIP3    H137789   7.878   7.596   5.383
12616TIP3    H237790   7.846   7.672   5.256
12617TIP3   OH237791   2.125   3.960   1.010
12617TIP3    H137792   2.029   3.960   1.013
12617TIP3    H237793   2.147   3.872   0.980
12618TIP3   OH237794   0.723   4.749   4.916
12618TIP3    H137795   0.651   4.809   4.935
12618TIP3    H237796   0.701   4.669   4.964
12619TIP3   OH237797   4.562   3.676   0.302
12619TIP3    H137798   4.624   3.606   0.283
12619TIP3    H237799   4.479   3.645   0.265
12620TIP3   OH237800   2.996   5.848   1.008
12620TIP3    H137801   3.014   5.831   1.101
12620TIP3    H237802   3.052   5.922   0.986
12621TIP3   OH237803   3.787   7.778   3.084
12621TIP3    H137804   3.777   7.864   3.126
12621TIP3    H237805   3.819   7.797   2.996
12622TIP3   OH237806   5.297   7.074   0.236
12622TIP3    H137807   5.360   7.127   0.188
12622TIP3    H237808   5.329   7.076   0.327
12623TIP3   OH237809   5.449   2.370   0.533
12623TIP3    H137810   5.406   2.427   0.469
12623TIP3    H237811   5.432   2.281   0.500
12624TIP3   OH237812   8.001   5.016   5.431
12624TIP3    H137813   7.987   4.955   5.503
12624TIP3    H237814   8.088   4.994   5.397
12625TIP3   OH237815   0.532   7.324   1.696
12625TIP3    H137816   0.459   7.293   1.749
12625TIP3    H237817   0.498   7.403   1.654
12626TIP3   OH237818   2.693   4.311   6.452
12626TIP3    H137819   2.782   4.339   6.436
12626TIP3    H237820   2.642   4.350   6.381
12627TIP3   OH237821   7.296   4.069   1.171
12627TIP3    H137822   7.222   4.010   1.158
12627TIP3    H237823   7.324   4.094   1.083
12628TIP3   OH237824   6.079   1.766  -0.001
12628TIP3    H137825   6.082   1.848   0.047
12628TIP3    H237826   6.019   1.711   0.050
12629TIP3   OH237827   4.407   4.849   2.562
12629TIP3    H137828   4.321   4.808   2.566
12629TIP3    H237829   4.444   4.834   2.649
12630TIP3   OH237830   5.371   2.710   0.804
12630TIP3    H137831   5.429   2.695   0.729
12630TIP3    H237832   5.427   2.751   0.870
12631TIP3   OH237833   0.615   4.214   0.872
12631TIP3    H137834   0.584   4.294   0.829
12631TIP3    H237835   0.697   4.193   0.828
12632TIP3   OH237836   0.997   2.213   3.551
12632TIP3    H137837   1.069   2.217   3.489
12632TIP3    H237838   0.926   2.169   3.503
12633TIP3   OH237839   2.990   4.449   6.781
12633TIP3    H137840   3.060   4.481   6.725
12633TIP3    H237841   2.968   4.524   6.837
12634TIP3   OH237842   2.360   0.290   6.017
12634TIP3    H137843   2.410   0.353   6.069
12634TIP3    H237844   2.288   0.341   5.981
12635TIP3   OH237845   4.185   3.343   6.027
12635TIP3    H137846   4.213   3.430   6.057
12635TIP3    H237847   4.142   3.304   6.104
12636TIP3   OH237848   6.758   7.548   2.404
12636TIP3    H137849   6.814   7.531   2.329
12636TIP3    H237850   6.736   7.641   2.397
12637TIP3   OH237851   3.997   4.115   1.131
12637TIP3    H137852   3.979   4.122   1.225
12637TIP3    H237853   4.003   4.206   1.102
12638TIP3   OH237854   7.213   3.669   2.611
12638TIP3    H137855   7.290   3.641   2.661
12638TIP3    H237856   7.245   3.738   2.553
12639TIP3   OH237857   6.725   1.852   3.871
12639TIP3    H137858   6.683   1.862   3.956
12639TIP3    H237859   6.686   1.773   3.833
12640TIP3   OH237860   1.781   5.449   4.257
12640TIP3    H137861   1.706   5.454   4.198
12640TIP3    H237862   1.758   5.505   4.331
12641TIP3   OH237863   3.795   5.288   6.834
12641TIP3    H137864   3.834   5.210   6.796
12641TIP3    H237865   3.761   5.337   6.759
12642TIP3   OH237866   1.303   7.821   3.023
12642TIP3    H137867   1.309   7.917   3.021
12642TIP3    H237868   1.304   7.799   3.116
12643TIP3   OH237869   3.830   2.515   0.830
12643TIP3    H137870   3.874   2.599   0.819
12643TIP3    H237871   3.872   2.457   0.766
12644TIP3   OH237872   0.759   7.656   1.475
12644TIP3    H137873   0.726   7.732   1.524
12644TIP3    H237874   0.845   7.640   1.512
12645TIP3   OH237875   8.063   1.127   0.039
12645TIP3    H137876   8.065   1.171  -0.046
12645TIP3    H237877   7.995   1.173   0.088
12646TIP3   OH237878   2.591   6.163   4.772
12646TIP3    H137879   2.534   6.155   4.848
12646TIP3    H237880   2.546   6.226   4.715
12647TIP3   OH237881   5.647   3.587   5.705
12647TIP3    H137882   5.600   3.591   5.789
12647TIP3    H237883   5.637   3.675   5.668
12648TIP3   OH237884   5.541   4.998   2.550
12648TIP3    H137885   5.589   4.963   2.625
12648TIP3    H237886   5.495   5.075   2.585
12649TIP3   OH237887   0.187   1.673   2.350
12649TIP3    H137888   0.095   1.647   2.352
12649TIP3    H237889   0.197   1.731   2.425
12650TIP3   OH237890   8.225   7.209   2.870
12650TIP3    H137891   8.175   7.276   2.917
12650TIP3    H237892   8.317   7.230   2.888
12651TIP3   OH237893   5.950   5.938   1.169
12651TIP3    H137894   6.017   5.942   1.100
12651TIP3    H237895   5.881   5.996   1.139
12652TIP3   OH237896   0.479   0.376   5.575
12652TIP3    H137897   0.417   0.431   5.622
12652TIP3    H237898   0.464   0.288   5.610
12653TIP3   OH237899   0.842   6.673   5.593
12653TIP3    H137900   0.888   6.626   5.523
12653TIP3    H237901   0.843   6.764   5.565
12654TIP3   OH237902   0.796   1.171   2.172
12654TIP3    H137903   0.835   1.250   2.209
12654TIP3    H237904   0.856   1.100   2.196
12655TIP3   OH237905   2.627   6.521   1.321
12655TIP3    H137906   2.686   6.445   1.325
12655TIP3    H237907   2.569   6.501   1.248
12656TIP3   OH237908   6.660   5.543   4.036
12656TIP3    H137909   6.568   5.562   4.015
12656TIP3    H237910   6.689   5.485   3.966
12657TIP3   OH237911   0.093   5.945   6.453
12657TIP3    H137912   0.177   5.929   6.496
12657TIP3    H237913   0.099   5.899   6.370
12658TIP3   OH237914   2.128   1.919   2.675
12658TIP3    H137915   2.147   1.863   2.600
12658TIP3    H237916   2.175   1.879   2.748
12659TIP3   OH237917   4.352   2.942   0.296
12659TIP3    H137918   4.329   2.853   0.268
12659TIP3    H237919   4.290   2.999   0.250
12660TIP3   OH237920   7.506   7.761   5.327
12660TIP3    H137921   7.565   7.691   5.357
12660TIP3    H237922   7.424   7.716   5.306
12661TIP3   OH237923   2.861   3.324   5.095
12661TIP3    H137924   2.773   3.316   5.133
12661TIP3    H237925   2.898   3.236   5.100
12662TIP3   OH237926   4.435   2.376   2.232
12662TIP3    H137927   4.369   2.351   2.167
12662TIP3    H237928   4.411   2.465   2.257
12663TIP3   OH237929   0.351   7.323   0.994
12663TIP3    H137930   0.285   7.262   0.960
12663TIP3    H237931   0.435   7.282   0.973
12664TIP3   OH237932   6.119   5.853   2.893
12664TIP3    H137933   6.131   5.802   2.973
12664TIP3    H237934   6.173   5.931   2.906
12665TIP3   OH237935   4.559   1.744   0.144
12665TIP3    H137936   4.517   1.661   0.119
12665TIP3    H237937   4.492   1.789   0.197
12666TIP3   OH237938   1.870   6.175   1.774
12666TIP3    H137939   1.909   6.145   1.856
12666TIP3    H237940   1.913   6.259   1.757
12667TIP3   OH237941   2.281   5.868   1.465
12667TIP3    H137942   2.254   5.899   1.551
12667TIP3    H237943   2.203   5.880   1.410
12668TIP3   OH237944   4.037   7.539   5.311
12668TIP3    H137945   3.984   7.459   5.313
12668TIP3    H237946   4.121   7.513   5.350
12669TIP3   OH237947   0.424   6.200   1.870
12669TIP3    H137948   0.512   6.161   1.864
12669TIP3    H237949   0.420   6.261   1.797
12670TIP3   OH237950   2.187   7.470   0.949
12670TIP3    H137951   2.266   7.416   0.949
12670TIP3    H237952   2.218   7.557   0.974
12671TIP3   OH237953   7.799   2.282   2.566
12671TIP3    H137954   7.776   2.278   2.473
12671TIP3    H237955   7.805   2.375   2.585
12672TIP3   OH237956   2.486   7.831   0.140
12672TIP3    H137957   2.464   7.760   0.200
12672TIP3    H237958   2.507   7.787   0.058
12673TIP3   OH237959   3.467   0.037   3.108
12673TIP3    H137960   3.548  -0.014   3.116
12673TIP3    H237961   3.409  -0.018   3.055
12674TIP3   OH237962   1.760   3.956   3.356
12674TIP3    H137963   1.783   4.008   3.280
12674TIP3    H237964   1.816   3.989   3.426
12675TIP3   OH237965   3.746   1.761   6.759
12675TIP3    H137966   3.663   1.722   6.786
12675TIP3    H237967   3.808   1.688   6.759
12676TIP3   OH237968   0.855   5.414   5.801
12676TIP3    H137969   0.870   5.360   5.878
12676TIP3    H237970   0.879   5.358   5.727
12677TIP3   OH237971   2.783   6.361   4.652
12677TIP3    H137972   2.690   6.382   4.650
12677TIP3    H237973   2.787   6.270   4.624
12678TIP3   OH237974   5.479   3.182   4.690
12678TIP3    H137975   5.450   3.119   4.624
12678TIP3    H237976   5.539   3.132   4.746
12679TIP3   OH237977   8.312   6.739   2.215
12679TIP3    H137978   8.321   6.682   2.291
12679TIP3    H237979   8.402   6.759   2.189
12680TIP3   OH237980   1.419   1.971   4.478
12680TIP3    H137981   1.349   2.012   4.428
12680TIP3    H237982   1.383   1.888   4.507
12681TIP3   OH237983   0.884   2.100   0.756
12681TIP3    H137984   0.826   2.113   0.680
12681TIP3    H237985   0.831   2.051   0.818
12682TIP3   OH237986   1.637   0.758   4.104
12682TIP3    H137987   1.569   0.772   4.038
12682TIP3    H237988   1.629   0.666   4.128
12683TIP3   OH237989   4.208   3.374   2.678
12683TIP3    H137990   4.118   3.368   2.710
12683TIP3    H237991   4.209   3.451   2.622
12684TIP3   OH237992   6.443   5.593   4.509
12684TIP3    H137993   6.493   5.616   4.431
12684TIP3    H237994   6.506   5.548   4.565
12685TIP3   OH237995   6.958   6.341   4.816
12685TIP3    H137996   6.965   6.254   4.855
12685TIP3    H237997   6.975   6.401   4.889
12686TIP3   OH237998   5.072   5.378   2.248
12686TIP3    H137999   4.986   5.347   2.221
12686TIP3    H238000   5.066   5.473   2.245
12687TIP3   OH238001   6.531   3.483   2.572
12687TIP3    H138002   6.613   3.517   2.536
12687TIP3    H238003   6.558   3.411   2.630
12688TIP3   OH238004   4.241   5.716   2.332
12688TIP3    H138005   4.203   5.799   2.361
12688TIP3    H238006   4.226   5.655   2.405
12689TIP3   OH238007   6.589   6.537   4.201
12689TIP3    H138008   6.680   6.558   4.219
12689TIP3    H238009   6.564   6.476   4.270
12690TIP3   OH238010   7.491   2.224   3.085
12690TIP3    H138011   7.480   2.159   3.016
12690TIP3    H238012   7.412   2.278   3.081
12691TIP3   OH238013   1.656   3.271   2.426
12691TIP3    H138014   1.616   3.298   2.344
12691TIP3    H238015   1.619   3.184   2.443
12692TIP3   OH238016   5.048   6.956   3.893
12692TIP3    H138017   5.018   6.927   3.807
12692TIP3    H238018   5.143   6.969   3.882
12693TIP3   OH238019   0.771   0.831   4.921
12693TIP3    H138020   0.758   0.885   4.843
12693TIP3    H238021   0.728   0.880   4.991
12694TIP3   OH238022   7.737   2.780   4.330
12694TIP3    H138023   7.648   2.754   4.307
12694TIP3    H238024   7.788   2.700   4.324
12695TIP3   OH238025   6.357   3.053   6.815
12695TIP3    H138026   6.293   3.037   6.884
12695TIP3    H238027   6.422   3.111   6.855
12696TIP3   OH238028   5.160   4.696   3.833
12696TIP3    H138029   5.109   4.748   3.772
12696TIP3    H238030   5.199   4.759   3.893
12697TIP3   OH238031   8.315   0.206   6.109
12697TIP3    H138032   8.235   0.255   6.096
12697TIP3    H238033   8.346   0.233   6.196
12698TIP3   OH238034   0.342   7.059   6.741
12698TIP3    H138035   0.382   7.072   6.826
12698TIP3    H238036   0.415   7.067   6.679
12699TIP3   OH238037   2.859   5.439   5.721
12699TIP3    H138038   2.792   5.376   5.692
12699TIP3    H238039   2.921   5.387   5.772
12700TIP3   OH238040   2.345   4.165   1.148
12700TIP3    H138041   2.416   4.189   1.089
12700TIP3    H238042   2.268   4.160   1.091
12701TIP3   OH238043   1.168   5.886   0.014
12701TIP3    H138044   1.254   5.854  -0.013
12701TIP3    H238045   1.185   5.932   0.096
12702TIP3   OH238046   3.022   5.470   3.613
12702TIP3    H138047   3.023   5.561   3.641
12702TIP3    H238048   3.057   5.472   3.523
12703TIP3   OH238049   1.132   4.613   0.308
12703TIP3    H138050   1.185   4.536   0.331
12703TIP3    H238051   1.145   4.624   0.214
12704TIP3   OH238052   0.607   0.212   3.219
12704TIP3    H138053   0.512   0.224   3.217
12704TIP3    H238054   0.620   0.117   3.213
12705TIP3   OH238055   3.773   2.828   1.106
12705TIP3    H138056   3.783   2.905   1.162
12705TIP3    H238057   3.682   2.802   1.116
12706TIP3   OH238058   3.639   3.108   4.917
12706TIP3    H138059   3.645   3.203   4.925
12706TIP3    H238060   3.695   3.074   4.988
12707TIP3   OH238061   5.196   0.953   6.219
12707TIP3    H138062   5.169   1.034   6.177
12707TIP3    H238063   5.287   0.967   6.244
12708TIP3   OH238064   1.225   0.006   5.489
12708TIP3    H138065   1.159   0.052   5.541
12708TIP3    H238066   1.307   0.051   5.509
12709TIP3   OH238067   4.406   1.598   1.511
12709TIP3    H138068   4.345   1.614   1.440
12709TIP3    H238069   4.439   1.509   1.495
12710TIP3   OH238070   1.287   2.638   0.876
12710TIP3    H138071   1.375   2.642   0.837
12710TIP3    H238072   1.285   2.711   0.937
12711TIP3   OH238073   4.375   4.171   2.256
12711TIP3    H138074   4.380   4.215   2.341
12711TIP3    H238075   4.392   4.079   2.275
12712TIP3   OH238076   1.150   6.812   3.211
12712TIP3    H138077   1.188   6.774   3.132
12712TIP3    H238078   1.064   6.844   3.182
12713TIP3   OH238079   7.560   3.211   2.982
12713TIP3    H138080   7.479   3.261   2.995
12713TIP3    H238081   7.618   3.272   2.935
12714TIP3   OH238082   0.950   2.382   2.490
12714TIP3    H138083   0.898   2.458   2.516
12714TIP3    H238084   0.950   2.326   2.568
12715TIP3   OH238085   5.043   6.182   6.724
12715TIP3    H138086   5.091   6.249   6.674
12715TIP3    H238087   5.024   6.113   6.660
12716TIP3   OH238088   4.023   1.715   1.172
12716TIP3    H138089   4.000   1.750   1.086
12716TIP3    H238090   4.118   1.705   1.169
12717TIP3   OH238091   4.933   4.734   1.521
12717TIP3    H138092   4.883   4.653   1.511
12717TIP3    H238093   5.015   4.707   1.561
12718TIP3   OH238094   8.143   1.219   2.784
12718TIP3    H138095   8.122   1.246   2.694
12718TIP3    H238096   8.108   1.130   2.791
12719TIP3   OH238097   3.357   5.939   0.331
12719TIP3    H138098   3.270   5.899   0.333
12719TIP3    H238099   3.405   5.896   0.401
12720TIP3   OH238100   4.915   5.305   0.935
12720TIP3    H138101   4.988   5.246   0.956
12720TIP3    H238102   4.937   5.387   0.979
12721TIP3   OH238103   8.078   6.096   1.772
12721TIP3    H138104   8.172   6.107   1.759
12721TIP3    H238105   8.067   6.096   1.867
12722TIP3   OH238106   1.889   5.062   4.934
12722TIP3    H138107   1.800   5.052   4.901
12722TIP3    H238108   1.912   5.154   4.917
12723TIP3   OH238109   3.054   3.739   6.095
12723TIP3    H138110   2.990   3.671   6.078
12723TIP3    H238111   3.038   3.765   6.186
12724TIP3   OH238112   1.319   7.218   3.655
12724TIP3    H138113   1.373   7.297   3.647
12724TIP3    H238114   1.358   7.156   3.592
12725TIP3   OH238115   5.370   7.863   4.160
12725TIP3    H138116   5.334   7.931   4.103
12725TIP3    H238117   5.342   7.781   4.119
12726TIP3   OH238118   0.346   2.074   6.393
12726TIP3    H138119   0.273   2.132   6.375
12726TIP3    H238120   0.306   1.988   6.403
12727TIP3   OH238121   2.714   3.088   3.895
12727TIP3    H138122   2.714   3.074   3.800
12727TIP3    H238123   2.750   3.175   3.907
12728TIP3   OH238124   4.946   3.193   1.842
12728TIP3    H138125   4.904   3.107   1.847
12728TIP3    H238126   4.936   3.219   1.750
12729TIP3   OH238127   4.930   7.263   4.852
12729TIP3    H138128   4.975   7.205   4.791
12729TIP3    H238129   4.963   7.238   4.938
12730TIP3   OH238130   2.256   5.430   6.713
12730TIP3    H138131   2.181   5.434   6.773
12730TIP3    H238132   2.330   5.464   6.764
12731TIP3   OH238133   1.336   4.914   0.404
12731TIP3    H138134   1.263   4.874   0.356
12731TIP3    H238135   1.295   4.978   0.462
12732TIP3   OH238136   2.626   3.218   5.554
12732TIP3    H138137   2.549   3.177   5.593
12732TIP3    H238138   2.694   3.151   5.558
12733TIP3   OH238139   0.212   6.004   1.899
12733TIP3    H138140   0.260   6.072   1.852
12733TIP3    H238141   0.275   5.933   1.910
12734TIP3   OH238142   3.154   5.667   4.083
12734TIP3    H138143   3.152   5.760   4.061
12734TIP3    H238144   3.170   5.623   4.000
12735TIP3   OH238145   3.944   4.269   3.666
12735TIP3    H138146   3.997   4.190   3.664
12735TIP3    H238147   4.002   4.337   3.699
12736TIP3   OH238148   0.787   3.504   4.719
12736TIP3    H138149   0.715   3.473   4.774
12736TIP3    H238150   0.785   3.446   4.642
12737TIP3   OH238151   1.243   4.020   5.438
12737TIP3    H138152   1.207   3.991   5.522
12737TIP3    H238153   1.336   4.034   5.455
12738TIP3   OH238154   6.322   7.572   1.717
12738TIP3    H138155   6.295   7.503   1.778
12738TIP3    H238156   6.279   7.651   1.750
12739TIP3   OH238157   6.642   4.993   0.214
12739TIP3    H138158   6.632   5.083   0.183
12739TIP3    H238159   6.711   4.956   0.159
12740TIP3   OH238160   2.816   4.976   5.316
12740TIP3    H138161   2.792   5.029   5.240
12740TIP3    H238162   2.849   5.040   5.380
12741TIP3   OH238163   1.479   5.579   6.622
12741TIP3    H138164   1.397   5.603   6.579
12741TIP3    H238165   1.540   5.565   6.550
12742TIP3   OH238166   4.006   0.722   1.429
12742TIP3    H138167   3.971   0.634   1.445
12742TIP3    H238168   4.004   0.764   1.515
12743TIP3   OH238169   2.051   0.090   6.403
12743TIP3    H138170   2.080   0.002   6.382
12743TIP3    H238171   2.015   0.124   6.321
12744TIP3   OH238172   6.897   1.657   1.293
12744TIP3    H138173   6.803   1.675   1.285
12744TIP3    H238174   6.911   1.642   1.386
12745TIP3   OH238175   1.512   7.318   2.211
12745TIP3    H138176   1.520   7.268   2.130
12745TIP3    H238177   1.434   7.282   2.254
12746TIP3   OH238178   5.386   2.518   2.519
12746TIP3    H138179   5.306   2.468   2.508
12746TIP3    H238180   5.394   2.569   2.438
12747TIP3   OH238181   7.944   7.762   2.648
12747TIP3    H138182   7.951   7.688   2.709
12747TIP3    H238183   7.853   7.758   2.616
12748TIP3   OH238184   2.189   3.185   6.254
12748TIP3    H138185   2.271   3.216   6.215
12748TIP3    H238186   2.193   3.090   6.246
12749TIP3   OH238187   4.422   4.096   2.698
12749TIP3    H138188   4.428   4.170   2.759
12749TIP3    H238189   4.474   4.027   2.739
12750TIP3   OH238190   0.169   4.753   0.970
12750TIP3    H138191   0.237   4.716   1.027
12750TIP3    H238192   0.095   4.693   0.978
12751TIP3   OH238193   1.924   5.175   6.822
12751TIP3    H138194   1.936   5.141   6.911
12751TIP3    H238195   1.866   5.251   6.833
12752TIP3   OH238196   3.758   1.318   6.337
12752TIP3    H138197   3.840   1.306   6.290
12752TIP3    H238198   3.705   1.373   6.279
12753TIP3   OH238199   6.978   3.195   6.173
12753TIP3    H138200   7.031   3.116   6.184
12753TIP3    H238201   6.888   3.164   6.168
12754TIP3   OH238202   0.501   7.102   5.648
12754TIP3    H138203   0.583   7.099   5.696
12754TIP3    H238204   0.486   7.195   5.631
12755TIP3   OH238205   6.675   7.610   4.804
12755TIP3    H138206   6.632   7.539   4.757
12755TIP3    H238207   6.678   7.581   4.895
12756TIP3   OH238208   1.048   3.875   4.040
12756TIP3    H138209   1.011   3.950   3.994
12756TIP3    H238210   1.030   3.800   3.983
12757TIP3   OH238211   0.109   0.983   5.096
12757TIP3    H138212   0.024   0.993   5.139
12757TIP3    H238213   0.119   0.889   5.082
12758TIP3   OH238214   5.761   1.222   6.334
12758TIP3    H138215   5.727   1.146   6.286
12758TIP3    H238216   5.856   1.217   6.321
12759TIP3   OH238217   7.677   4.616   3.587
12759TIP3    H138218   7.647   4.629   3.497
12759TIP3    H238219   7.641   4.531   3.613
12760TIP3   OH238220   5.034   5.104   5.085
12760TIP3    H138221   5.007   5.033   5.027
12760TIP3    H238222   5.069   5.172   5.027
12761TIP3   OH238223   6.922   5.048   0.690
12761TIP3    H138224   6.853   5.011   0.744
12761TIP3    H238225   6.893   5.032   0.600
12762TIP3   OH238226   7.258   4.590   1.506
12762TIP3    H138227   7.211   4.514   1.539
12762TIP3    H238228   7.351   4.567   1.516
12763TIP3   OH238229   8.119   4.771   4.914
12763TIP3    H138230   8.149   4.695   4.963
12763TIP3    H238231   8.062   4.817   4.975
12764TIP3   OH238232   1.561   4.937   4.265
12764TIP3    H138233   1.470   4.934   4.235
12764TIP3    H238234   1.561   4.886   4.346
12765TIP3   OH238235   0.668   4.123   3.969
12765TIP3    H138236   0.631   4.211   3.963
12765TIP3    H238237   0.747   4.134   4.022
12766TIP3   OH238238   4.430   2.196   3.782
12766TIP3    H138239   4.435   2.104   3.754
12766TIP3    H238240   4.422   2.191   3.877
12767TIP3   OH238241   2.641   6.808   4.966
12767TIP3    H138242   2.642   6.839   4.876
12767TIP3    H238243   2.606   6.882   5.016
12768TIP3   OH238244   2.078   4.694   2.793
12768TIP3    H138245   2.106   4.643   2.869
12768TIP3    H238246   2.139   4.767   2.789
12769TIP3   OH238247   0.034   6.558   2.400
12769TIP3    H138248  -0.024   6.491   2.438
12769TIP3    H238249   0.091   6.508   2.341
12770TIP3   OH238250   8.015   5.349   1.272
12770TIP3    H138251   8.026   5.257   1.298
12770TIP3    H238252   8.009   5.396   1.355
12771TIP3   OH238253   4.444   3.538   6.573
12771TIP3    H138254   4.523   3.545   6.627
12771TIP3    H238255   4.438   3.445   6.552
12772TIP3   OH238256   8.384   4.354   4.444
12772TIP3    H138257   8.434   4.391   4.372
12772TIP3    H238258   8.311   4.414   4.456
12773TIP3   OH238259   2.361   6.124   1.667
12773TIP3    H138260   2.291   6.190   1.673
12773TIP3    H238261   2.380   6.119   1.573
12774TIP3   OH238262   6.211   1.208   0.654
12774TIP3    H138263   6.269   1.177   0.585
12774TIP3    H238264   6.232   1.301   0.663
12775TIP3   OH238265   4.884   6.307   3.658
12775TIP3    H138266   4.919   6.276   3.574
12775TIP3    H238267   4.931   6.257   3.724
12776TIP3   OH238268   4.704   6.097   1.058
12776TIP3    H138269   4.749   6.047   0.990
12776TIP3    H238270   4.721   6.188   1.036
12777TIP3   OH238271   2.297   0.616   1.031
12777TIP3    H138272   2.261   0.704   1.020
12777TIP3    H238273   2.248   0.563   0.968
12778TIP3   OH238274   6.183   4.830   3.536
12778TIP3    H138275   6.276   4.806   3.530
12778TIP3    H238276   6.183   4.914   3.582
12779TIP3   OH238277   1.590   2.197   0.556
12779TIP3    H138278   1.633   2.162   0.478
12779TIP3    H238279   1.523   2.256   0.523
12780TIP3   OH238280   5.037   6.347   3.404
12780TIP3    H138281   5.089   6.266   3.401
12780TIP3    H238282   5.102   6.417   3.408
12781TIP3   OH238283   1.381   7.680   6.191
12781TIP3    H138284   1.399   7.647   6.278
12781TIP3    H238285   1.291   7.713   6.194
12782TIP3   OH238286   4.682   4.296   5.267
12782TIP3    H138287   4.615   4.353   5.304
12782TIP3    H238288   4.764   4.340   5.286
12783TIP3   OH238289   4.342   3.943   6.336
12783TIP3    H138290   4.371   4.029   6.365
12783TIP3    H238291   4.415   3.908   6.285
12784TIP3   OH238292   3.924   6.356   6.677
12784TIP3    H138293   3.875   6.362   6.758
12784TIP3    H238294   3.875   6.292   6.624
12785TIP3   OH238295   1.127   1.109   5.105
12785TIP3    H138296   1.119   1.022   5.066
12785TIP3    H238297   1.178   1.094   5.185
12786TIP3   OH238298   2.280   2.870   0.876
12786TIP3    H138299   2.205   2.814   0.857
12786TIP3    H238300   2.348   2.840   0.816
12787TIP3   OH238301   4.680   0.991   1.351
12787TIP3    H138302   4.775   0.990   1.346
12787TIP3    H238303   4.652   1.046   1.278
12788TIP3   OH238304   5.788   1.905   2.067
12788TIP3    H138305   5.702   1.940   2.044
12788TIP3    H238306   5.774   1.811   2.077
12789TIP3   OH238307   7.728   2.088   0.546
12789TIP3    H138308   7.730   2.182   0.565
12789TIP3    H238309   7.795   2.076   0.479
12790TIP3   OH238310   3.344   4.599   6.379
12790TIP3    H138311   3.336   4.504   6.364
12790TIP3    H238312   3.359   4.607   6.473
12791TIP3   OH238313   2.690   7.311   5.295
12791TIP3    H138314   2.757   7.371   5.262
12791TIP3    H238315   2.726   7.224   5.280
12792TIP3   OH238316   3.238   1.660   6.679
12792TIP3    H138317   3.265   1.679   6.769
12792TIP3    H238318   3.191   1.739   6.651
12793TIP3   OH238319   2.094   3.664   1.531
12793TIP3    H138320   2.008   3.706   1.536
12793TIP3    H238321   2.121   3.656   1.623
12794TIP3   OH238322   2.764   6.825   5.236
12794TIP3    H138323   2.745   6.741   5.193
12794TIP3    H238324   2.692   6.836   5.299
12795TIP3   OH238325   4.921   2.120   0.711
12795TIP3    H138326   5.012   2.147   0.722
12795TIP3    H238327   4.927   2.034   0.669
12796TIP3   OH238328   8.096   6.743   6.193
12796TIP3    H138329   8.073   6.788   6.274
12796TIP3    H238330   8.188   6.768   6.177
12797TIP3   OH238331   5.709   4.482   2.365
12797TIP3    H138332   5.727   4.535   2.288
12797TIP3    H238333   5.769   4.516   2.432
12798TIP3   OH238334   1.049   5.959   0.466
12798TIP3    H138335   0.957   5.978   0.451
12798TIP3    H238336   1.061   5.968   0.561
12799TIP3   OH238337   3.623   4.666   5.969
12799TIP3    H138338   3.676   4.588   5.983
12799TIP3    H238339   3.543   4.649   6.018
12800TIP3   OH238340   1.228   2.860   1.966
12800TIP3    H138341   1.195   2.821   1.886
12800TIP3    H238342   1.246   2.785   2.023
12801TIP3   OH238343   0.088   1.524   5.279
12801TIP3    H138344   0.038   1.562   5.206
12801TIP3    H238345   0.174   1.505   5.241
12802TIP3   OH238346   6.140   2.764   1.608
12802TIP3    H138347   6.150   2.811   1.525
12802TIP3    H238348   6.072   2.811   1.655
12803TIP3   OH238349   0.652   1.190   4.518
12803TIP3    H138350   0.573   1.215   4.565
12803TIP3    H238351   0.689   1.119   4.569
12804TIP3   OH238352   0.759   3.011   6.162
12804TIP3    H138353   0.836   2.961   6.188
12804TIP3    H238354   0.767   3.018   6.067
12805TIP3   OH238355   2.325   4.540   3.602
12805TIP3    H138356   2.302   4.619   3.650
12805TIP3    H238357   2.249   4.483   3.611
12806TIP3   OH238358   3.740   3.894   1.267
12806TIP3    H138359   3.695   3.819   1.308
12806TIP3    H238360   3.823   3.901   1.314
12807TIP3   OH238361   3.924   4.697   1.631
12807TIP3    H138362   3.869   4.746   1.692
12807TIP3    H238363   4.008   4.687   1.677
12808TIP3   OH238364   4.571   0.595   1.331
12808TIP3    H138365   4.654   0.608   1.285
12808TIP3    H238366   4.559   0.675   1.382
12809TIP3   OH238367   7.525   0.580   2.927
12809TIP3    H138368   7.606   0.529   2.919
12809TIP3    H238369   7.549   0.652   2.986
12810TIP3   OH238370   4.568   4.537   3.058
12810TIP3    H138371   4.531   4.533   3.147
12810TIP3    H238372   4.654   4.576   3.070
12811TIP3   OH238373   3.875   7.189   1.730
12811TIP3    H138374   3.841   7.266   1.684
12811TIP3    H238375   3.822   7.183   1.810
12812TIP3   OH238376   8.052   2.112   3.033
12812TIP3    H138377   8.056   2.180   2.966
12812TIP3    H238378   8.065   2.159   3.115
12813TIP3   OH238379   5.820   7.729   1.223
12813TIP3    H138380   5.757   7.777   1.277
12813TIP3    H238381   5.776   7.645   1.205
12814TIP3   OH238382   2.370   0.010   4.734
12814TIP3    H138383   2.353   0.079   4.670
12814TIP3    H238384   2.395   0.057   4.814
12815TIP3   OH238385   7.291   3.000   3.773
12815TIP3    H138386   7.240   2.919   3.761
12815TIP3    H238387   7.225   3.069   3.778
12816TIP3   OH238388   5.620   3.635   6.746
12816TIP3    H138389   5.704   3.642   6.790
12816TIP3    H238390   5.571   3.712   6.774
12817TIP3   OH238391   2.008   1.231   4.943
12817TIP3    H138392   1.957   1.303   4.981
12817TIP3    H238393   2.055   1.194   5.018
12818TIP3   OH238394   6.562   5.569   1.491
12818TIP3    H138395   6.645   5.521   1.493
12818TIP3    H238396   6.494   5.502   1.498
12819TIP3   OH238397   1.636   3.764   2.602
12819TIP3    H138398   1.615   3.778   2.510
12819TIP3    H238399   1.638   3.852   2.640
12820TIP3   OH238400   5.933   2.463   2.050
12820TIP3    H138401   5.995   2.533   2.074
12820TIP3    H238402   5.966   2.430   1.967
12821TIP3   OH238403   4.006   5.154   3.011
12821TIP3    H138404   3.970   5.231   3.055
12821TIP3    H238405   3.952   5.081   3.043
12822TIP3   OH238406   3.274   1.386   4.581
12822TIP3    H138407   3.224   1.439   4.519
12822TIP3    H238408   3.339   1.341   4.528
12823TIP3   OH238409   7.644   6.075   4.564
12823TIP3    H138410   7.684   6.070   4.478
12823TIP3    H238411   7.563   6.124   4.550
12824TIP3   OH238412   1.401   5.500   0.040
12824TIP3    H138413   1.311   5.471   0.025
12824TIP3    H238414   1.409   5.582  -0.009
12825TIP3   OH238415   3.921   0.803   2.910
12825TIP3    H138416   3.853   0.861   2.877
12825TIP3    H238417   3.874   0.741   2.966
12826TIP3   OH238418   6.838   6.423   5.604
12826TIP3    H138419   6.774   6.397   5.670
12826TIP3    H238420   6.806   6.507   5.572
12827TIP3   OH238421   7.337   1.324   0.130
12827TIP3    H138422   7.278   1.249   0.129
12827TIP3    H238423   7.282   1.399   0.107
12828TIP3   OH238424   2.131   2.665   4.131
12828TIP3    H138425   2.168   2.750   4.106
12828TIP3    H238426   2.205   2.618   4.171
12829TIP3   OH238427   0.607   6.508   3.979
12829TIP3    H138428   0.534   6.492   3.919
12829TIP3    H238429   0.581   6.465   4.060
12830TIP3   OH238430   4.143   3.668   6.386
12830TIP3    H138431   4.170   3.689   6.475
12830TIP3    H238432   4.129   3.753   6.344
12831TIP3   OH238433   0.477   1.789   4.824
12831TIP3    H138434   0.507   1.739   4.899
12831TIP3    H238435   0.551   1.791   4.764
12832TIP3   OH238436   8.325   0.577   0.359
12832TIP3    H138437   8.376   0.641   0.408
12832TIP3    H238438   8.309   0.618   0.274
12833TIP3   OH238439   7.375   2.473   0.970
12833TIP3    H138440   7.439   2.437   1.032
12833TIP3    H238441   7.427   2.494   0.892
12834TIP3   OH238442   4.396   1.308   0.474
12834TIP3    H138443   4.415   1.214   0.468
12834TIP3    H238444   4.379   1.323   0.566
12835TIP3   OH238445   1.495   4.730   6.101
12835TIP3    H138446   1.517   4.734   6.008
12835TIP3    H238447   1.536   4.649   6.131
12836TIP3   OH238448   4.035   0.271   6.360
12836TIP3    H138449   4.021   0.177   6.351
12836TIP3    H238450   4.130   0.280   6.373
12837TIP3   OH238451   5.623   2.894   1.633
12837TIP3    H138452   5.528   2.901   1.642
12837TIP3    H238453   5.652   2.985   1.624
12838TIP3   OH238454   4.132   7.163   1.860
12838TIP3    H138455   4.121   7.072   1.885
12838TIP3    H238456   4.061   7.181   1.799
12839TIP3   OH238457   2.077   0.382   5.909
12839TIP3    H138458   2.067   0.396   6.003
12839TIP3    H238459   2.020   0.308   5.889
12840TIP3   OH238460   2.361   4.910   0.197
12840TIP3    H138461   2.298   4.966   0.151
12840TIP3    H238462   2.435   4.968   0.214
12841TIP3   OH238463   0.598   1.135   6.681
12841TIP3    H138464   0.542   1.062   6.708
12841TIP3    H238465   0.628   1.173   6.763
12842TIP3   OH238466   2.947   7.765   4.836
12842TIP3    H138467   2.995   7.709   4.776
12842TIP3    H238468   2.855   7.754   4.811
12843TIP3   OH238469   1.331   4.695   4.644
12843TIP3    H138470   1.397   4.671   4.708
12843TIP3    H238471   1.294   4.777   4.676
12844TIP3   OH238472   7.786   7.064   2.060
12844TIP3    H138473   7.816   6.975   2.075
12844TIP3    H238474   7.833   7.117   2.125
12845TIP3   OH238475   8.268   2.688   6.135
12845TIP3    H138476   8.274   2.782   6.116
12845TIP3    H238477   8.228   2.650   6.057
12846TIP3   OH238478   4.894   6.474   6.096
12846TIP3    H138479   4.890   6.521   6.180
12846TIP3    H238480   4.833   6.522   6.040
12847TIP3   OH238481   3.068   2.510   4.639
12847TIP3    H138482   3.147   2.490   4.688
12847TIP3    H238483   3.005   2.538   4.706
12848TIP3   OH238484   4.673   6.943   4.947
12848TIP3    H138485   4.629   6.885   4.885
12848TIP3    H238486   4.699   7.019   4.895
12849TIP3   OH238487   3.350   7.459   1.793
12849TIP3    H138488   3.267   7.462   1.745
12849TIP3    H238489   3.337   7.516   1.868
12850TIP3   OH238490   6.883   7.245   2.891
12850TIP3    H138491   6.937   7.276   2.964
12850TIP3    H238492   6.935   7.177   2.849
12851TIP3   OH238493   0.741   2.236   0.356
12851TIP3    H138494   0.769   2.162   0.410
12851TIP3    H238495   0.743   2.311   0.415
12852TIP3   OH238496   0.708   7.284   3.320
12852TIP3    H138497   0.776   7.350   3.308
12852TIP3    H238498   0.756   7.205   3.347
12853TIP3   OH238499   1.500   6.376   5.456
12853TIP3    H138500   1.545   6.399   5.375
12853TIP3    H238501   1.547   6.299   5.488
12854TIP3   OH238502   4.394   5.524   6.108
12854TIP3    H138503   4.457   5.534   6.036
12854TIP3    H238504   4.363   5.613   6.124
12855TIP3   OH238505   7.859   0.533   2.316
12855TIP3    H138506   7.860   0.628   2.320
12855TIP3    H238507   7.810   0.505   2.393
12856TIP3   OH238508   2.135   2.030   6.690
12856TIP3    H138509   2.063   2.037   6.627
12856TIP3    H238510   2.149   2.119   6.721
12857TIP3   OH238511   2.421   4.625   2.112
12857TIP3    H138512   2.399   4.707   2.158
12857TIP3    H238513   2.457   4.653   2.028
12858TIP3   OH238514   1.329   3.713   5.111
12858TIP3    H138515   1.283   3.644   5.063
12858TIP3    H238516   1.367   3.668   5.187
12859TIP3   OH238517   8.202   6.308   2.186
12859TIP3    H138518   8.182   6.334   2.276
12859TIP3    H238519   8.166   6.378   2.132
12860TIP3   OH238520   7.391   0.345   3.021
12860TIP3    H138521   7.447   0.406   3.069
12860TIP3    H238522   7.383   0.384   2.934
12861TIP3   OH238523   4.021   5.661   5.932
12861TIP3    H138524   4.090   5.598   5.914
12861TIP3    H238525   3.941   5.609   5.937
12862TIP3   OH238526   1.599   1.093   6.633
12862TIP3    H138527   1.537   1.028   6.664
12862TIP3    H238528   1.565   1.121   6.548
12863TIP3   OH238529   2.212   1.655   1.071
12863TIP3    H138530   2.164   1.731   1.103
12863TIP3    H238531   2.190   1.650   0.978
12864TIP3   OH238532   1.717   6.712   6.474
12864TIP3    H138533   1.730   6.664   6.556
12864TIP3    H238534   1.776   6.670   6.412
12865TIP3   OH238535   4.027   1.243   4.351
12865TIP3    H138536   4.035   1.286   4.266
12865TIP3    H238537   3.965   1.297   4.400
12866TIP3   OH238538   2.139   6.965   2.766
12866TIP3    H138539   2.172   7.050   2.792
12866TIP3    H238540   2.152   6.961   2.672
12867TIP3   OH238541   3.488   1.103   2.966
12867TIP3    H138542   3.512   1.196   2.966
12867TIP3    H238543   3.407   1.100   2.915
12868TIP3   OH238544   1.627   3.005   6.436
12868TIP3    H138545   1.707   3.055   6.458
12868TIP3    H238546   1.608   2.956   6.516
12869TIP3   OH238547   2.110   5.827   6.486
12869TIP3    H138548   2.178   5.765   6.459
12869TIP3    H238549   2.106   5.818   6.581
12870TIP3   OH238550   7.310   4.127   5.751
12870TIP3    H138551   7.215   4.117   5.743
12870TIP3    H238552   7.324   4.221   5.755
12871TIP3   OH238553   5.540   6.924   6.526
12871TIP3    H138554   5.576   6.979   6.595
12871TIP3    H238555   5.449   6.953   6.518
12872TIP3   OH238556   3.457   1.370   2.951
12872TIP3    H138557   3.381   1.427   2.959
12872TIP3    H238558   3.491   1.387   2.863
12873TIP3   OH238559   7.172   1.645   4.292
12873TIP3    H138560   7.265   1.626   4.284
12873TIP3    H238561   7.134   1.614   4.210
12874TIP3   OH238562   1.404   0.743   1.295
12874TIP3    H138563   1.440   0.679   1.356
12874TIP3    H238564   1.316   0.760   1.327
12875TIP3   OH238565   7.811   0.603   5.439
12875TIP3    H138566   7.792   0.546   5.513
12875TIP3    H238567   7.745   0.579   5.373
12876TIP3   OH238568   6.106   2.996   5.231
12876TIP3    H138569   6.140   3.011   5.318
12876TIP3    H238570   6.180   3.013   5.172
12877TIP3   OH238571   0.370   6.440   6.568
12877TIP3    H138572   0.389   6.505   6.636
12877TIP3    H238573   0.278   6.455   6.547
12878TIP3   OH238574   1.387   6.584   6.656
12878TIP3    H138575   1.412   6.584   6.563
12878TIP3    H238576   1.309   6.529   6.660
12879TIP3   OH238577   5.132   3.496   3.935
12879TIP3    H138578   5.058   3.557   3.935
12879TIP3    H238579   5.132   3.458   3.847
12880TIP3   OH238580   0.534   7.340   2.030
12880TIP3    H138581   0.591   7.406   1.991
12880TIP3    H238582   0.567   7.330   2.119
12881TIP3   OH238583   6.783   6.248   5.194
12881TIP3    H138584   6.781   6.343   5.189
12881TIP3    H238585   6.867   6.227   5.235
12882TIP3   OH238586   6.653   0.971   3.452
12882TIP3    H138587   6.705   1.046   3.480
12882TIP3    H238588   6.717   0.905   3.424
12883TIP3   OH238589   6.136   7.848   4.487
12883TIP3    H138590   6.146   7.935   4.525
12883TIP3    H238591   6.129   7.864   4.393
12884TIP3   OH238592   3.097   2.697   4.216
12884TIP3    H138593   3.021   2.677   4.271
12884TIP3    H238594   3.166   2.639   4.249
12885TIP3   OH238595   1.698   6.734   0.241
12885TIP3    H138596   1.783   6.775   0.258
12885TIP3    H238597   1.669   6.703   0.326
12886TIP3   OH238598   0.636   1.598   2.696
12886TIP3    H138599   0.588   1.583   2.614
12886TIP3    H238600   0.657   1.510   2.728
12887TIP3   OH238601   8.024   6.455   2.032
12887TIP3    H138602   8.041   6.488   1.944
12887TIP3    H238603   7.938   6.414   2.026
12888TIP3   OH238604   0.119   2.685   3.595
12888TIP3    H138605   0.028   2.706   3.616
12888TIP3    H238606   0.168   2.765   3.611
12889TIP3   OH238607   6.738   4.648   4.778
12889TIP3    H138608   6.730   4.553   4.785
12889TIP3    H238609   6.811   4.670   4.837
12890TIP3   OH238610   5.161   5.727   6.215
12890TIP3    H138611   5.101   5.697   6.284
12890TIP3    H238612   5.236   5.762   6.263
12891TIP3   OH238613   3.097   0.212   3.141
12891TIP3    H138614   3.108   0.264   3.061
12891TIP3    H238615   3.187   0.193   3.169
12892TIP3   OH238616   1.822   6.305   0.712
12892TIP3    H138617   1.787   6.271   0.630
12892TIP3    H238618   1.822   6.400   0.701
12893TIP3   OH238619   2.965   2.074   3.865
12893TIP3    H138620   2.915   2.045   3.788
12893TIP3    H238621   2.965   2.170   3.858
12894TIP3   OH238622   2.843   2.752   5.338
12894TIP3    H138623   2.840   2.791   5.425
12894TIP3    H238624   2.795   2.670   5.347
12895TIP3   OH238625   0.142   4.677   3.492
12895TIP3    H138626   0.095   4.697   3.573
12895TIP3    H238627   0.219   4.733   3.495
12896TIP3   OH238628   0.295   3.244   6.012
12896TIP3    H138629   0.293   3.281   5.924
12896TIP3    H238630   0.267   3.153   6.000
12897TIP3   OH238631   4.504   4.755   4.500
12897TIP3    H138632   4.518   4.841   4.460
12897TIP3    H238633   4.575   4.746   4.564
12898TIP3   OH238634   2.275   4.292   5.792
12898TIP3    H138635   2.335   4.276   5.865
12898TIP3    H238636   2.293   4.383   5.766
12899TIP3   OH238637   3.820   5.056   6.645
12899TIP3    H138638   3.768   5.102   6.579
12899TIP3    H238639   3.798   4.963   6.632
12900TIP3   OH238640   1.176   6.543   1.256
12900TIP3    H138641   1.262   6.504   1.236
12900TIP3    H238642   1.157   6.514   1.345
12901TIP3   OH238643   0.604   7.161   2.542
12901TIP3    H138644   0.684   7.150   2.491
12901TIP3    H238645   0.628   7.220   2.613
12902TIP3   OH238646   1.877   5.545   5.674
12902TIP3    H138647   1.863   5.491   5.596
12902TIP3    H238648   1.789   5.561   5.708
12903TIP3   OH238649   5.046   6.664   2.535
12903TIP3    H138650   5.039   6.568   2.540
12903TIP3    H238651   5.022   6.684   2.444
12904TIP3   OH238652   1.526   7.822   2.216
12904TIP3    H138653   1.551   7.729   2.212
12904TIP3    H238654   1.455   7.824   2.281
12905TIP3   OH238655   7.708   3.155   0.521
12905TIP3    H138656   7.654   3.173   0.444
12905TIP3    H238657   7.789   3.118   0.484
12906TIP3   OH238658   6.631   6.828   4.116
12906TIP3    H138659   6.604   6.738   4.133
12906TIP3    H238660   6.682   6.822   4.034
12907TIP3   OH238661   0.766   1.903   3.135
12907TIP3    H138662   0.837   1.959   3.167
12907TIP3    H238663   0.810   1.837   3.082
12908TIP3   OH238664   7.144   6.051   4.695
12908TIP3    H138665   7.228   6.011   4.672
12908TIP3    H238666   7.154   6.143   4.669
12909TIP3   OH238667   2.791   6.215   3.574
12909TIP3    H138668   2.745   6.135   3.600
12909TIP3    H238669   2.787   6.214   3.478
12910TIP3   OH238670   4.056   1.300   3.136
12910TIP3    H138671   4.128   1.267   3.082
12910TIP3    H238672   4.057   1.395   3.121
12911TIP3   OH238673   4.576   4.799   1.107
12911TIP3    H138674   4.639   4.867   1.083
12911TIP3    H238675   4.515   4.843   1.166
12912TIP3   OH238676   7.556   0.845   4.815
12912TIP3    H138677   7.558   0.752   4.794
12912TIP3    H238678   7.647   0.873   4.809
12913TIP3   OH238679   8.300   5.377   5.100
12913TIP3    H138680   8.287   5.283   5.109
12913TIP3    H238681   8.377   5.385   5.043
12914TIP3   OH238682   4.357   2.972   2.534
12914TIP3    H138683   4.336   2.881   2.554
12914TIP3    H238684   4.382   2.971   2.441
12915TIP3   OH238685   7.628   5.812   3.979
12915TIP3    H138686   7.534   5.826   3.964
12915TIP3    H238687   7.638   5.717   3.979
12916TIP3   OH238688   1.750   1.021   1.692
12916TIP3    H138689   1.744   0.940   1.743
12916TIP3    H238690   1.692   1.007   1.617
12917TIP3   OH238691   6.984   2.139   5.040
12917TIP3    H138692   7.076   2.116   5.033
12917TIP3    H238693   6.980   2.206   5.107
12918TIP3   OH238694   3.850   7.563   0.344
12918TIP3    H138695   3.807   7.559   0.429
12918TIP3    H238696   3.943   7.554   0.363
12919TIP3   OH238697   7.478   7.309   2.205
12919TIP3    H138698   7.568   7.341   2.216
12919TIP3    H238699   7.426   7.388   2.189
12920TIP3   OH238700   2.057   1.197   6.061
12920TIP3    H138701   2.015   1.215   5.977
12920TIP3    H238702   1.994   1.144   6.109
12921TIP3   OH238703   6.445   6.135   6.555
12921TIP3    H138704   6.382   6.196   6.593
12921TIP3    H238705   6.529   6.161   6.593
12922TIP3   OH238706   6.072   4.294   4.307
12922TIP3    H138707   6.027   4.245   4.375
12922TIP3    H238708   6.009   4.299   4.235
12923TIP3   OH238709   1.241   4.796   5.450
12923TIP3    H138710   1.187   4.817   5.526
12923TIP3    H238711   1.303   4.868   5.444
12924TIP3   OH238712   4.253   1.753   6.464
12924TIP3    H138713   4.240   1.846   6.447
12924TIP3    H238714   4.289   1.749   6.553
12925TIP3   OH238715   2.291   0.501   1.606
12925TIP3    H138716   2.265   0.549   1.685
12925TIP3    H238717   2.305   0.569   1.541
12926TIP3   OH238718   0.810   2.851   3.044
12926TIP3    H138719   0.889   2.868   3.095
12926TIP3    H238720   0.789   2.936   3.005
12927TIP3   OH238721   6.373   6.680   5.136
12927TIP3    H138722   6.436   6.722   5.194
12927TIP3    H238723   6.350   6.747   5.072
12928TIP3   OH238724   4.258   4.636   0.704
12928TIP3    H138725   4.222   4.649   0.792
12928TIP3    H238726   4.255   4.541   0.692
12929TIP3   OH238727   3.815   6.645   4.898
12929TIP3    H138728   3.856   6.590   4.964
12929TIP3    H238729   3.776   6.583   4.835
12930TIP3   OH238730   5.064   6.583   4.214
12930TIP3    H138731   5.113   6.542   4.286
12930TIP3    H238732   4.972   6.573   4.239
12931TIP3   OH238733   7.974   4.413   2.377
12931TIP3    H138734   8.052   4.469   2.371
12931TIP3    H238735   8.007   4.330   2.411
12932TIP3   OH238736   0.325   3.779   1.029
12932TIP3    H138737   0.272   3.853   0.999
12932TIP3    H238738   0.404   3.783   0.976
12933TIP3   OH238739   1.312   3.762   1.402
12933TIP3    H138740   1.323   3.781   1.495
12933TIP3    H238741   1.363   3.829   1.357
12934TIP3   OH238742   7.432   2.649   5.801
12934TIP3    H138743   7.422   2.743   5.787
12934TIP3    H238744   7.381   2.609   5.731
12935TIP3   OH238745   3.239   4.428   3.158
12935TIP3    H138746   3.191   4.346   3.152
12935TIP3    H238747   3.236   4.452   3.251
12936TIP3   OH238748   4.987   5.843   4.167
12936TIP3    H138749   4.977   5.918   4.107
12936TIP3    H238750   5.081   5.824   4.166
12937TIP3   OH238751   4.632   6.802   4.132
12937TIP3    H138752   4.609   6.882   4.086
12937TIP3    H238753   4.710   6.770   4.087
12938TIP3   OH238754   6.089   6.116   3.926
12938TIP3    H138755   6.140   6.196   3.910
12938TIP3    H238756   6.141   6.066   3.988
12939TIP3   OH238757   7.526   6.007   5.311
12939TIP3    H138758   7.531   5.927   5.364
12939TIP3    H238759   7.447   5.995   5.258
12940TIP3   OH238760   1.866   6.435   3.772
12940TIP3    H138761   1.778   6.433   3.734
12940TIP3    H238762   1.860   6.379   3.850
12941TIP3   OH238763   5.214   7.340   0.090
12941TIP3    H138764   5.205   7.300   0.177
12941TIP3    H238765   5.309   7.348   0.077
12942TIP3   OH238766   1.162   3.539   6.683
12942TIP3    H138767   1.092   3.569   6.625
12942TIP3    H238768   1.167   3.445   6.669
12943TIP3   OH238769   1.955   1.781   5.606
12943TIP3    H138770   2.035   1.784   5.554
12943TIP3    H238771   1.956   1.863   5.656
12944TIP3   OH238772   6.368   5.397   2.001
12944TIP3    H138773   6.374   5.437   1.914
12944TIP3    H238774   6.413   5.313   1.992
12945TIP3   OH238775   6.446   3.938   5.052
12945TIP3    H138776   6.503   3.899   4.985
12945TIP3    H238777   6.438   3.869   5.118
12946TIP3   OH238778   4.294   7.337   0.039
12946TIP3    H138779   4.342   7.408  -0.004
12946TIP3    H238780   4.270   7.373   0.124
12947TIP3   OH238781   8.236   3.280   0.103
12947TIP3    H138782   8.176   3.325   0.162
12947TIP3    H238783   8.322   3.290   0.144
12948TIP3   OH238784   1.790   5.745   6.707
12948TIP3    H138785   1.762   5.791   6.628
12948TIP3    H238786   1.823   5.661   6.676
12949TIP3   OH238787   0.919   2.273   3.800
12949TIP3    H138788   0.932   2.201   3.738
12949TIP3    H238789   0.927   2.352   3.746
12950TIP3   OH238790   1.586   5.814   2.827
12950TIP3    H138791   1.594   5.822   2.922
12950TIP3    H238792   1.521   5.746   2.814
12951TIP3   OH238793   5.915   5.414   1.824
12951TIP3    H138794   5.921   5.479   1.754
12951TIP3    H238795   5.965   5.452   1.896
12952TIP3   OH238796   3.788   6.809   1.541
12952TIP3    H138797   3.716   6.780   1.596
12952TIP3    H238798   3.862   6.755   1.568
12953TIP3   OH238799   7.312   6.970   0.547
12953TIP3    H138800   7.397   6.942   0.515
12953TIP3    H238801   7.288   7.044   0.491
12954TIP3   OH238802   2.595   2.680   1.304
12954TIP3    H138803   2.519   2.635   1.341
12954TIP3    H238804   2.558   2.758   1.262
12955TIP3   OH238805   1.949   3.741   3.345
12955TIP3    H138806   1.872   3.798   3.350
12955TIP3    H238807   1.914   3.654   3.324
12956TIP3   OH238808   3.076   0.606   2.024
12956TIP3    H138809   3.030   0.528   1.992
12956TIP3    H238810   3.129   0.574   2.097
12957TIP3   OH238811   1.811   6.532   0.089
12957TIP3    H138812   1.766   6.525   0.006
12957TIP3    H238813   1.767   6.604   0.135
12958TIP3   OH238814   5.801   2.423   5.481
12958TIP3    H138815   5.748   2.481   5.536
12958TIP3    H238816   5.887   2.423   5.523
12959TIP3   OH238817   4.822   7.362   5.136
12959TIP3    H138818   4.887   7.302   5.102
12959TIP3    H238819   4.784   7.403   5.059
12960TIP3   OH238820   3.569   6.030   2.042
12960TIP3    H138821   3.492   5.986   2.079
12960TIP3    H238822   3.643   5.990   2.089
12961TIP3   OH238823   4.554   1.519   4.029
12961TIP3    H138824   4.473   1.520   4.080
12961TIP3    H238825   4.560   1.607   3.992
12962TIP3   OH238826   6.988   3.171   5.043
12962TIP3    H138827   6.996   3.079   5.067
12962TIP3    H238828   7.005   3.173   4.949
12963TIP3   OH238829   7.083   0.140   4.630
12963TIP3    H138830   7.130   0.062   4.660
12963TIP3    H238831   7.110   0.209   4.691
12964TIP3   OH238832   4.503   2.325   2.957
12964TIP3    H138833   4.478   2.312   3.048
12964TIP3    H238834   4.537   2.240   2.929
12965TIP3   OH238835   4.445   5.113   2.492
12965TIP3    H138836   4.376   5.147   2.435
12965TIP3    H238837   4.418   5.024   2.513
12966TIP3   OH238838   7.719   1.163   4.708
12966TIP3    H138839   7.760   1.083   4.740
12966TIP3    H238840   7.776   1.193   4.637
12967TIP3   OH238841   3.154   0.997   0.490
12967TIP3    H138842   3.166   1.074   0.435
12967TIP3    H238843   3.176   0.923   0.433
12968TIP3   OH238844   2.355   6.886   5.759
12968TIP3    H138845   2.423   6.854   5.700
12968TIP3    H238846   2.401   6.939   5.823
12969TIP3   OH238847   5.409   5.409   0.376
12969TIP3    H138848   5.500   5.420   0.405
12969TIP3    H238849   5.397   5.314   0.372
12970TIP3   OH238850   0.135   7.311   3.932
12970TIP3    H138851   0.058   7.335   3.880
12970TIP3    H238852   0.098   7.273   4.012
12971TIP3   OH238853   0.086   2.516   6.224
12971TIP3    H138854   0.158   2.579   6.225
12971TIP3    H238855   0.008   2.568   6.203
12972TIP3   OH238856   2.447   7.633   4.373
12972TIP3    H138857   2.490   7.649   4.458
12972TIP3    H238858   2.386   7.706   4.363
12973TIP3   OH238859   4.189   7.708   6.128
12973TIP3    H138860   4.245   7.725   6.204
12973TIP3    H238861   4.251   7.682   6.059
12974TIP3   OH238862   7.555   4.059   5.644
12974TIP3    H138863   7.469   4.086   5.678
12974TIP3    H238864   7.549   4.074   5.550
12975TIP3   OH238865   7.901   2.443   3.960
12975TIP3    H138866   7.887   2.419   3.869
12975TIP3    H238867   7.813   2.452   3.997
12976TIP3   OH238868   2.776   2.315   4.475
12976TIP3    H138869   2.739   2.228   4.493
12976TIP3    H238870   2.700   2.372   4.466
12977TIP3   OH238871   0.815   7.644   2.892
12977TIP3    H138872   0.742   7.651   2.953
12977TIP3    H238873   0.775   7.607   2.812
12978TIP3   OH238874   4.608   5.998   1.308
12978TIP3    H138875   4.625   6.024   1.218
12978TIP3    H238876   4.523   6.036   1.329
12979TIP3   OH238877   4.797   2.573   1.669
12979TIP3    H138878   4.728   2.598   1.608
12979TIP3    H238879   4.844   2.654   1.688
12980TIP3   OH238880   5.726   1.631   6.326
12980TIP3    H138881   5.679   1.552   6.354
12980TIP3    H238882   5.659   1.686   6.286
12981TIP3   OH238883   5.652   7.393   3.976
12981TIP3    H138884   5.597   7.426   4.046
12981TIP3    H238885   5.645   7.297   3.984
12982TIP3   OH238886   3.186   5.930   4.974
12982TIP3    H138887   3.127   5.987   5.024
12982TIP3    H238888   3.263   5.984   4.957
12983TIP3   OH238889   1.041   7.618   3.032
12983TIP3    H138890   0.959   7.623   2.983
12983TIP3    H238891   1.032   7.683   3.101
12984TIP3   OH238892   6.632   7.058   2.899
12984TIP3    H138893   6.546   7.016   2.897
12984TIP3    H238894   6.666   7.039   2.987
12985TIP3   OH238895   8.251   6.381   4.850
12985TIP3    H138896   8.269   6.473   4.870
12985TIP3    H238897   8.269   6.373   4.757
12986TIP3   OH238898   4.050   1.915   2.085
12986TIP3    H138899   3.995   1.940   2.011
12986TIP3    H238900   4.002   1.945   2.162
12987TIP3   OH238901   5.554   5.359   6.472
12987TIP3    H138902   5.477   5.360   6.417
12987TIP3    H238903   5.521   5.378   6.560
12988TIP3   OH238904   4.969   0.204   0.723
12988TIP3    H138905   5.002   0.229   0.809
12988TIP3    H238906   4.893   0.148   0.741
12989TIP3   OH238907   2.525   7.882   5.593
12989TIP3    H138908   2.512   7.954   5.655
12989TIP3    H238909   2.620   7.871   5.589
12990TIP3   OH238910   5.565   5.846   5.276
12990TIP3    H138911   5.511   5.796   5.338
12990TIP3    H238912   5.651   5.805   5.281
12991TIP3   OH238913   3.226   1.194   3.793
12991TIP3    H138914   3.196   1.277   3.829
12991TIP3    H238915   3.310   1.179   3.835
12992TIP3   OH238916   8.390   2.974   3.518
12992TIP3    H138917   8.342   2.919   3.455
12992TIP3    H238918   8.467   3.003   3.469
12993TIP3   OH238919   5.552   2.414   4.803
12993TIP3    H138920   5.550   2.476   4.730
12993TIP3    H238921   5.460   2.405   4.829
12994TIP3   OH238922   7.987   0.274   2.937
12994TIP3    H138923   8.074   0.279   2.977
12994TIP3    H238924   7.998   0.215   2.862
12995TIP3   OH238925   3.033   1.985   2.597
12995TIP3    H138926   2.943   1.989   2.563
12995TIP3    H238927   3.086   2.028   2.529
12996TIP3   OH238928   7.315   2.483   5.602
12996TIP3    H138929   7.381   2.418   5.626
12996TIP3    H238930   7.236   2.456   5.649
12997TIP3   OH238931   8.134   0.170   3.624
12997TIP3    H138932   8.045   0.140   3.644
12997TIP3    H238933   8.146   0.248   3.679
12998TIP3   OH238934   3.091   3.037   5.316
12998TIP3    H138935   3.011   3.038   5.263
12998TIP3    H238936   3.091   2.952   5.359
12999TIP3   OH238937   6.651   4.557   5.260
12999TIP3    H138938   6.673   4.650   5.258
12999TIP3    H238939   6.610   4.543   5.345
13000TIP3   OH238940   6.989   3.588   4.281
13000TIP3    H138941   6.945   3.638   4.350
13000TIP3    H238942   7.009   3.653   4.214
13001TIP3   OH238943   4.862   0.330   4.249
13001TIP3    H138944   4.922   0.258   4.232
13001TIP3    H238945   4.893   0.368   4.331
13002TIP3   OH238946   3.049   4.129   3.811
13002TIP3    H138947   2.954   4.125   3.816
13002TIP3    H238948   3.068   4.218   3.783
13003TIP3   OH238949   1.779   0.519   0.778
13003TIP3    H138950   1.778   0.464   0.856
13003TIP3    H238951   1.872   0.535   0.761
13004TIP3   OH238952   1.455   6.898   0.750
13004TIP3    H138953   1.499   6.978   0.778
13004TIP3    H238954   1.435   6.852   0.831
13005TIP3   OH238955   6.696   2.850   4.245
13005TIP3    H138956   6.611   2.865   4.286
13005TIP3    H238957   6.734   2.776   4.293
13006TIP3   OH238958   6.433   0.217   1.966
13006TIP3    H138959   6.497   0.262   1.911
13006TIP3    H238960   6.471   0.131   1.981
13007TIP3   OH238961   6.818   5.109   3.616
13007TIP3    H138962   6.898   5.098   3.564
13007TIP3    H238963   6.846   5.090   3.706
13008TIP3   OH238964   2.445   7.788   1.593
13008TIP3    H138965   2.461   7.871   1.547
13008TIP3    H238966   2.431   7.814   1.684
13009TIP3   OH238967   8.012   1.777   6.603
13009TIP3    H138968   8.034   1.841   6.536
13009TIP3    H238969   8.026   1.692   6.561
13010TIP3   OH238970   2.907   0.204   0.382
13010TIP3    H138971   2.881   0.136   0.444
13010TIP3    H238972   2.891   0.164   0.296
13011TIP3   OH238973   6.422   0.271   1.243
13011TIP3    H138974   6.447   0.364   1.235
13011TIP3    H238975   6.493   0.231   1.293
13012TIP3   OH238976   3.075   0.499   3.044
13012TIP3    H138977   3.059   0.521   2.952
13012TIP3    H238978   2.992   0.516   3.087
13013TIP3   OH238979   0.865   2.522   3.413
13013TIP3    H138980   0.914   2.464   3.355
13013TIP3    H238981   0.774   2.512   3.387
13014TIP3   OH238982   0.735   5.829   1.676
13014TIP3    H138983   0.769   5.753   1.630
13014TIP3    H238984   0.723   5.799   1.766
13015TIP3   OH238985   0.122   3.583   3.657
13015TIP3    H138986   0.040   3.581   3.706
13015TIP3    H238987   0.154   3.493   3.662
13016TIP3   OH238988   1.558   2.671   2.183
13016TIP3    H138989   1.591   2.685   2.094
13016TIP3    H238990   1.590   2.746   2.232
13017TIP3   OH238991   3.653   7.055   1.361
13017TIP3    H138992   3.586   7.095   1.416
13017TIP3    H238993   3.648   7.103   1.278
13018TIP3   OH238994   7.759   3.208   0.964
13018TIP3    H138995   7.795   3.293   0.942
13018TIP3    H238996   7.793   3.189   1.052
13019TIP3   OH238997   2.328   2.600   6.243
13019TIP3    H138998   2.362   2.569   6.326
13019TIP3    H238999   2.241   2.562   6.236
13020TIP3   OH239000   4.590   5.957   4.055
13020TIP3    H139001   4.588   5.942   4.150
13020TIP3    H239002   4.501   5.939   4.026
13021TIP3   OH239003   1.926   3.973   2.232
13021TIP3    H139004   1.891   3.977   2.143
13021TIP3    H239005   1.978   3.892   2.233
13022TIP3   OH239006   5.402   2.525   2.051
13022TIP3    H139007   5.355   2.461   2.104
13022TIP3    H239008   5.491   2.525   2.087
13023TIP3   OH239009   7.949   2.610   6.743
13023TIP3    H139010   7.918   2.643   6.658
13023TIP3    H239011   7.985   2.523   6.723
13024TIP3   OH239012   5.580   5.030   0.353
13024TIP3    H139013   5.643   5.097   0.326
13024TIP3    H239014   5.634   4.961   0.393
13025TIP3   OH239015   0.794   4.563   0.577
13025TIP3    H139016   0.742   4.637   0.610
13025TIP3    H239017   0.881   4.600   0.561
13026TIP3   OH239018   2.055   2.417   4.770
13026TIP3    H139019   1.991   2.383   4.833
13026TIP3    H239020   2.134   2.366   4.786
13027TIP3   OH239021   2.403   0.434   1.958
13027TIP3    H139022   2.374   0.367   1.896
13027TIP3    H239023   2.389   0.395   2.044
13028TIP3   OH239024   5.790   5.976   5.989
13028TIP3    H139025   5.720   6.022   5.942
13028TIP3    H239026   5.860   6.040   5.998
13029TIP3   OH239027   2.608   1.063   1.451
13029TIP3    H139028   2.643   0.974   1.448
13029TIP3    H239029   2.543   1.061   1.522
13030TIP3   OH239030   2.075   6.750   4.970
13030TIP3    H139031   2.153   6.805   4.965
13030TIP3    H239032   2.044   6.744   4.880
13031TIP3   OH239033   5.626   2.707   6.169
13031TIP3    H139034   5.650   2.655   6.246
13031TIP3    H239035   5.588   2.787   6.205
13032TIP3   OH239036   0.126   0.037   5.031
13032TIP3    H139037   0.080   0.120   5.043
13032TIP3    H239038   0.148   0.035   4.938
13033TIP3   OH239039   6.962   4.591   6.468
13033TIP3    H139040   6.887   4.602   6.527
13033TIP3    H239041   6.989   4.681   6.447
13034TIP3   OH239042   4.266   4.284   6.597
13034TIP3    H139043   4.213   4.211   6.629
13034TIP3    H239044   4.340   4.242   6.553
13035TIP3   OH239045   3.480   6.789   1.871
13035TIP3    H139046   3.470   6.705   1.914
13035TIP3    H239047   3.414   6.845   1.912
13036TIP3   OH239048   2.546   3.518   6.490
13036TIP3    H139049   2.482   3.462   6.446
13036TIP3    H239050   2.614   3.457   6.520
13037TIP3   OH239051   6.204   1.137   2.273
13037TIP3    H139052   6.212   1.047   2.304
13037TIP3    H239053   6.294   1.166   2.260
13038TIP3   OH239054   8.084   0.338   6.064
13038TIP3    H139055   7.995   0.305   6.060
13038TIP3    H239056   8.103   0.366   5.974
13039TIP3   OH239057   6.512   1.437   1.711
13039TIP3    H139058   6.432   1.474   1.750
13039TIP3    H239059   6.577   1.506   1.722
13040TIP3   OH239060   1.053   0.421   5.024
13040TIP3    H139061   1.103   0.404   5.104
13040TIP3    H239062   0.995   0.494   5.046
13041TIP3   OH239063   6.999   3.420   3.636
13041TIP3    H139064   7.091   3.428   3.613
13041TIP3    H239065   6.957   3.386   3.557
13042TIP3   OH239066   7.534   4.409   4.436
13042TIP3    H139067   7.489   4.493   4.441
13042TIP3    H239068   7.546   4.383   4.527
13043TIP3   OH239069   0.228   4.722   5.753
13043TIP3    H139070   0.202   4.806   5.791
13043TIP3    H239071   0.216   4.659   5.825
13044TIP3   OH239072   8.241   2.014   5.382
13044TIP3    H139073   8.277   1.925   5.382
13044TIP3    H239074   8.165   2.009   5.440
13045TIP3   OH239075   4.357   2.164   4.047
13045TIP3    H139076   4.279   2.219   4.048
13045TIP3    H239077   4.363   2.129   4.135
13046TIP3   OH239078   4.903   5.749   3.805
13046TIP3    H139079   4.814   5.727   3.834
13046TIP3    H239080   4.922   5.832   3.848
13047TIP3   OH239081   4.899   0.129   3.539
13047TIP3    H139082   4.978   0.182   3.533
13047TIP3    H239083   4.926   0.042   3.510
13048TIP3   OH239084   4.294   1.679   5.174
13048TIP3    H139085   4.244   1.729   5.239
13048TIP3    H239086   4.382   1.673   5.210
13049TIP3   OH239087   2.887   1.197   0.051
13049TIP3    H139088   2.824   1.208   0.122
13049TIP3    H239089   2.960   1.149   0.090
13050TIP3   OH239090   8.109   2.478   3.008
13050TIP3    H139091   8.194   2.434   2.997
13050TIP3    H239092   8.122   2.565   2.970
13051TIP3   OH239093   1.627   7.744   3.327
13051TIP3    H139094   1.678   7.777   3.401
13051TIP3    H239095   1.649   7.802   3.255
13052TIP3   OH239096   7.269   3.108   5.402
13052TIP3    H139097   7.312   3.132   5.484
13052TIP3    H239098   7.314   3.159   5.335
13053TIP3   OH239099   2.963   2.644   4.849
13053TIP3    H139100   2.925   2.612   4.931
13053TIP3    H239101   2.909   2.720   4.826
13054TIP3   OH239102   2.901   6.238   0.478
13054TIP3    H139103   2.891   6.233   0.383
13054TIP3    H239104   2.812   6.250   0.511
13055TIP3   OH239105   5.697   5.676   5.656
13055TIP3    H139106   5.755   5.601   5.673
13055TIP3    H239107   5.663   5.661   5.568
13056TIP3   OH239108   3.577   5.694   1.694
13056TIP3    H139109   3.559   5.788   1.685
13056TIP3    H239110   3.568   5.677   1.788
13057TIP3   OH239111   1.226   1.118   1.277
13057TIP3    H139112   1.319   1.108   1.258
13057TIP3    H239113   1.221   1.199   1.328
13058TIP3   OH239114   3.338   2.036   5.166
13058TIP3    H139115   3.286   1.969   5.211
13058TIP3    H239116   3.275   2.082   5.111
13059TIP3   OH239117   2.703   4.969   1.333
13059TIP3    H139118   2.730   4.881   1.359
13059TIP3    H239119   2.774   5.025   1.363
13060TIP3   OH239120   7.220   1.303   4.640
13060TIP3    H139121   7.168   1.370   4.597
13060TIP3    H239122   7.311   1.330   4.626
13061TIP3   OH239123   2.648   6.060   6.674
13061TIP3    H139124   2.614   6.105   6.751
13061TIP3    H239125   2.658   6.129   6.608
13062TIP3   OH239126   7.980   2.990   3.655
13062TIP3    H139127   7.904   3.046   3.640
13062TIP3    H239128   7.966   2.954   3.743
13063TIP3   OH239129   4.925   4.322   3.856
13063TIP3    H139130   4.858   4.295   3.919
13063TIP3    H239131   5.003   4.272   3.880
13064TIP3   OH239132   7.649   1.088   5.124
13064TIP3    H139133   7.573   1.134   5.161
13064TIP3    H239134   7.699   1.156   5.079
13065TIP3   OH239135   2.248   7.425   6.173
13065TIP3    H139136   2.315   7.434   6.240
13065TIP3    H239137   2.225   7.332   6.173
13066TIP3   OH239138   1.139   7.274   4.447
13066TIP3    H139139   1.157   7.218   4.523
13066TIP3    H239140   1.177   7.226   4.373
13067TIP3   OH239141   7.129   3.422   0.728
13067TIP3    H139142   7.048   3.402   0.776
13067TIP3    H239143   7.187   3.348   0.748
13068TIP3   OH239144   6.187   6.546   3.448
13068TIP3    H139145   6.278   6.545   3.476
13068TIP3    H239146   6.188   6.588   3.363
13069TIP3   OH239147   5.607   4.401   4.879
13069TIP3    H139148   5.593   4.398   4.784
13069TIP3    H239149   5.554   4.474   4.910
13070TIP3   OH239150   3.270   4.011   6.823
13070TIP3    H139151   3.237   3.922   6.835
13070TIP3    H239152   3.230   4.062   6.894
13071TIP3   OH239153   0.542   3.286   2.592
13071TIP3    H139154   0.637   3.294   2.603
13071TIP3    H239155   0.507   3.368   2.629
13072TIP3   OH239156   0.474   2.530   3.985
13072TIP3    H139157   0.467   2.435   3.988
13072TIP3    H239158   0.537   2.552   4.054
13073TIP3   OH239159   1.119   3.153   6.186
13073TIP3    H139160   1.092   3.068   6.153
13073TIP3    H239161   1.197   3.135   6.239
13074TIP3   OH239162   4.134   1.665   5.970
13074TIP3    H139163   4.067   1.638   6.033
13074TIP3    H239164   4.165   1.750   6.003
13075TIP3   OH239165   6.133   0.811   6.445
13075TIP3    H139166   6.123   0.842   6.535
13075TIP3    H239167   6.209   0.752   6.448
13076TIP3   OH239168   0.720   2.601   4.924
13076TIP3    H139169   0.803   2.555   4.939
13076TIP3    H239170   0.667   2.580   5.001
13077TIP3   OH239171   0.979   3.461   2.559
13077TIP3    H139172   1.052   3.471   2.620
13077TIP3    H239173   0.929   3.387   2.594
13078TIP3   OH239174   1.239   4.752   6.145
13078TIP3    H139175   1.207   4.669   6.110
13078TIP3    H239176   1.334   4.740   6.150
13079TIP3   OH239177   4.551   3.468   3.570
13079TIP3    H139178   4.629   3.511   3.534
13079TIP3    H239179   4.522   3.527   3.640
13080TIP3   OH239180   4.668   6.586   6.658
13080TIP3    H139181   4.627   6.652   6.603
13080TIP3    H239182   4.755   6.622   6.677
13081TIP3   OH239183   5.281   7.829   5.813
13081TIP3    H139184   5.347   7.893   5.838
13081TIP3    H239185   5.209   7.842   5.874
13082TIP3   OH239186   2.693   2.412   3.858
13082TIP3    H139187   2.675   2.475   3.789
13082TIP3    H239188   2.787   2.394   3.850
13083TIP3   OH239189   5.127   1.157   1.258
13083TIP3    H139190   5.186   1.153   1.334
13083TIP3    H239191   5.054   1.211   1.288
13084TIP3   OH239192   5.313   2.248   4.833
13084TIP3    H139193   5.366   2.172   4.853
13084TIP3    H239194   5.252   2.256   4.906
13085TIP3   OH239195   1.552   0.265   1.554
13085TIP3    H139196   1.524   0.209   1.626
13085TIP3    H239197   1.476   0.271   1.496
13086TIP3   OH239198   5.976   5.911   5.294
13086TIP3    H139199   6.040   5.866   5.239
13086TIP3    H239200   5.894   5.863   5.280
13087TIP3   OH239201   3.006   5.837   1.880
13087TIP3    H139202   3.093   5.807   1.857
13087TIP3    H239203   2.947   5.770   1.845
13088TIP3   OH239204   0.927   5.584   1.885
13088TIP3    H139205   0.909   5.491   1.869
13088TIP3    H239206   0.991   5.608   1.819
13089TIP3   OH239207   4.553   5.729   1.468
13089TIP3    H139208   4.516   5.688   1.390
13089TIP3    H239209   4.639   5.760   1.440
13090TIP3   OH239210   6.715   5.178   5.500
13090TIP3    H139211   6.762   5.257   5.473
13090TIP3    H239212   6.651   5.163   5.430
13091TIP3   OH239213   8.034   6.125   2.032
13091TIP3    H139214   7.946   6.139   2.066
13091TIP3    H239215   8.092   6.157   2.101
13092TIP3   OH239216   8.377   2.134   5.193
13092TIP3    H139217   8.430   2.154   5.270
13092TIP3    H239218   8.306   2.080   5.227
13093TIP3   OH239219   5.255   5.364   5.864
13093TIP3    H139220   5.202   5.443   5.877
13093TIP3    H239221   5.192   5.298   5.837
13094TIP3   OH239222   2.117   1.227   0.973
13094TIP3    H139223   2.092   1.264   1.058
13094TIP3    H239224   2.050   1.160   0.956
13095TIP3   OH239225   6.596   0.145   6.653
13095TIP3    H139226   6.520   0.088   6.663
13095TIP3    H239227   6.670   0.094   6.686
13096TIP3   OH239228   0.369   4.150   5.930
13096TIP3    H139229   0.333   4.112   5.850
13096TIP3    H239230   0.446   4.199   5.901
13097TIP3   OH239231   3.162   7.222   5.806
13097TIP3    H139232   3.118   7.146   5.846
13097TIP3    H239233   3.251   7.218   5.838
13098TIP3   OH239234   8.273   7.255   6.098
13098TIP3    H139235   8.365   7.278   6.100
13098TIP3    H239236   8.269   7.171   6.052
13099TIP3   OH239237   6.862   5.666   3.814
13099TIP3    H139238   6.825   5.754   3.820
13099TIP3    H239239   6.794   5.615   3.771
13100TIP3   OH239240   5.594   3.911   5.922
13100TIP3    H139241   5.548   3.994   5.938
13100TIP3    H239242   5.634   3.922   5.836
13101TIP3   OH239243   6.735   7.739   0.205
13101TIP3    H139244   6.737   7.679   0.279
13101TIP3    H239245   6.762   7.685   0.130
13102TIP3   OH239246   3.842   4.914   3.656
13102TIP3    H139247   3.877   4.916   3.567
13102TIP3    H239248   3.747   4.916   3.644
13103TIP3   OH239249   0.057   0.476   3.107
13103TIP3    H139250   0.083   0.464   3.016
13103TIP3    H239251   0.098   0.558   3.133
13104TIP3   OH239252   2.877   0.046   5.991
13104TIP3    H139253   2.951  -0.010   5.971
13104TIP3    H239254   2.915   0.130   6.015
13105TIP3   OH239255   1.319   3.618   3.777
13105TIP3    H139256   1.283   3.659   3.698
13105TIP3    H239257   1.407   3.589   3.752
13106TIP3   OH239258   6.959   3.277   1.970
13106TIP3    H139259   6.998   3.202   2.015
13106TIP3    H239260   7.034   3.327   1.938
13107TIP3   OH239261   0.937   4.190   3.007
13107TIP3    H139262   0.974   4.264   3.055
13107TIP3    H239263   1.005   4.123   3.009
13108TIP3   OH239264   1.627   5.703   3.341
13108TIP3    H139265   1.621   5.747   3.426
13108TIP3    H239266   1.710   5.655   3.346
13109TIP3   OH239267   2.332   5.932   6.717
13109TIP3    H139268   2.265   5.912   6.783
13109TIP3    H239269   2.344   6.027   6.724
13110TIP3   OH239270   2.691   4.704   1.494
13110TIP3    H139271   2.753   4.760   1.540
13110TIP3    H239272   2.738   4.621   1.483
13111TIP3   OH239273   4.916   6.251   1.618
13111TIP3    H139274   4.842   6.311   1.620
13111TIP3    H239275   4.877   6.164   1.611
13112TIP3   OH239276   5.691   7.671   5.022
13112TIP3    H139277   5.714   7.764   5.016
13112TIP3    H239278   5.693   7.640   4.931
13113TIP3   OH239279   8.408   0.244   3.324
13113TIP3    H139280   8.320   0.244   3.286
13113TIP3    H239281   8.417   0.331   3.363
13114TIP3   OH239282   8.074   0.245   6.616
13114TIP3    H139283   8.075   0.325   6.668
13114TIP3    H239284   8.051   0.274   6.527
13115TIP3   OH239285   1.790   1.025   4.844
13115TIP3    H139286   1.826   1.109   4.872
13115TIP3    H239287   1.854   0.961   4.873
13116TIP3   OH239288   7.209   4.725   0.843
13116TIP3    H139289   7.287   4.768   0.809
13116TIP3    H239290   7.243   4.659   0.903
13117TIP3   OH239291   8.276   4.137   0.876
13117TIP3    H139292   8.335   4.074   0.916
13117TIP3    H239293   8.316   4.222   0.895
13118TIP3   OH239294   7.528   3.154   6.220
13118TIP3    H139295   7.615   3.175   6.256
13118TIP3    H239296   7.505   3.070   6.260
13119TIP3   OH239297   5.472   7.410   3.349
13119TIP3    H139298   5.477   7.498   3.385
13119TIP3    H239299   5.434   7.422   3.262
13120TIP3   OH239300   3.830  -0.067   0.657
13120TIP3    H139301   3.819   0.018   0.700
13120TIP3    H239302   3.915  -0.099   0.687
13121TIP3   OH239303   3.586   3.966   1.024
13121TIP3    H139304   3.647   3.924   1.084
13121TIP3    H239305   3.639   4.030   0.977
13122TIP3   OH239306   7.602   6.545   0.227
13122TIP3    H139307   7.522   6.597   0.234
13122TIP3    H239308   7.611   6.503   0.313
13123TIP3   OH239309   7.130   6.777   3.686
13123TIP3    H139310   7.182   6.697   3.692
13123TIP3    H239311   7.110   6.799   3.777
13124TIP3   OH239312   4.171   3.853  -0.043
13124TIP3    H139313   4.253   3.804  -0.042
13124TIP3    H239314   4.197   3.944  -0.030
13125TIP3   OH239315   3.615   4.062   0.460
13125TIP3    H139316   3.580   4.108   0.537
13125TIP3    H239317   3.538   4.040   0.408
13126TIP3   OH239318   2.797   4.868   5.707
13126TIP3    H139319   2.840   4.831   5.785
13126TIP3    H239320   2.735   4.933   5.742
13127TIP3   OH239321   0.349   2.885   5.535
13127TIP3    H139322   0.351   2.863   5.442
13127TIP3    H239323   0.275   2.945   5.544
13128TIP3   OH239324   6.014   1.665   3.752
13128TIP3    H139325   6.038   1.572   3.758
13128TIP3    H239326   5.920   1.665   3.735
13129TIP3   OH239327   5.822   7.547   0.766
13129TIP3    H139328   5.778   7.501   0.695
13129TIP3    H239329   5.911   7.561   0.733
13130TIP3   OH239330   0.331   0.495   3.381
13130TIP3    H139331   0.338   0.402   3.400
13130TIP3    H239332   0.375   0.505   3.296
13131TIP3   OH239333   6.000   2.759   5.652
13131TIP3    H139334   6.047   2.705   5.590
13131TIP3    H239335   6.051   2.753   5.733
13132TIP3   OH239336   5.798   2.686   3.788
13132TIP3    H139337   5.855   2.757   3.819
13132TIP3    H239338   5.727   2.684   3.852
13133TIP3   OH239339   2.713   1.718   3.454
13133TIP3    H139340   2.758   1.634   3.466
13133TIP3    H239341   2.731   1.741   3.363
13134TIP3   OH239342   6.865   6.252   2.273
13134TIP3    H139343   6.899   6.329   2.320
13134TIP3    H239344   6.770   6.260   2.281
13135TIP3   OH239345   7.147   1.577   5.546
13135TIP3    H139346   7.059   1.548   5.571
13135TIP3    H239347   7.170   1.523   5.470
13136TIP3   OH239348   5.906   1.214   2.799
13136TIP3    H139349   5.888   1.273   2.872
13136TIP3    H239350   5.836   1.149   2.803
13137TIP3   OH239351   3.612   1.719   1.272
13137TIP3    H139352   3.571   1.705   1.357
13137TIP3    H239353   3.694   1.765   1.292
13138TIP3   OH239354   0.745   5.596   1.540
13138TIP3    H139355   0.669   5.597   1.482
13138TIP3    H239356   0.751   5.506   1.571
13139TIP3   OH239357   7.441   0.969   2.766
13139TIP3    H139358   7.448   0.877   2.741
13139TIP3    H239359   7.530   0.996   2.786
13140TIP3   OH239360   5.774   0.605   2.082
13140TIP3    H139361   5.760   0.510   2.078
13140TIP3    H239362   5.808   0.628   1.995
13141TIP3   OH239363   4.147   7.577   6.408
13141TIP3    H139364   4.082   7.546   6.472
13141TIP3    H239365   4.129   7.670   6.398
13142TIP3   OH239366   2.863   3.450   6.202
13142TIP3    H139367   2.878   3.472   6.294
13142TIP3    H239368   2.949   3.426   6.168
13143TIP3   OH239369   0.580   0.295   6.034
13143TIP3    H139370   0.502   0.296   6.089
13143TIP3    H239371   0.580   0.380   5.990
13144TIP3   OH239372   2.265   6.335   5.295
13144TIP3    H139373   2.205   6.408   5.313
13144TIP3    H239374   2.209   6.258   5.295
13145TIP3   OH239375   6.168   4.222   5.521
13145TIP3    H139376   6.168   4.173   5.439
13145TIP3    H239377   6.208   4.162   5.585
13146TIP3   OH239378   8.158   7.219   5.076
13146TIP3    H139379   8.130   7.310   5.089
13146TIP3    H239380   8.079   7.174   5.044
13147TIP3   OH239381   6.560   7.195   4.450
13147TIP3    H139382   6.487   7.236   4.495
13147TIP3    H239383   6.559   7.104   4.479
13148TIP3   OH239384   5.750   3.373   5.040
13148TIP3    H139385   5.832   3.356   4.994
13148TIP3    H239386   5.711   3.286   5.054
13149TIP3   OH239387   4.624   4.659   3.766
13149TIP3    H139388   4.605   4.568   3.745
13149TIP3    H239389   4.710   4.657   3.809
13150TIP3   OH239390   0.652   6.614   3.397
13150TIP3    H139391   0.569   6.568   3.398
13150TIP3    H239392   0.630   6.705   3.374
13151TIP3   OH239393   7.577   3.032   6.682
13151TIP3    H139394   7.565   3.126   6.698
13151TIP3    H239395   7.488   2.998   6.671
13152TIP3   OH239396   1.599   6.515   0.501
13152TIP3    H139397   1.545   6.469   0.437
13152TIP3    H239398   1.554   6.503   0.584
13153TIP3   OH239399   7.255   5.167   6.279
13153TIP3    H139400   7.274   5.209   6.363
13153TIP3    H239401   7.278   5.075   6.293
13154TIP3   OH239402   3.238   4.529   6.008
13154TIP3    H139403   3.192   4.580   5.940
13154TIP3    H239404   3.235   4.439   5.976
13155TIP3   OH239405   3.316   1.305   5.408
13155TIP3    H139406   3.404   1.269   5.399
13155TIP3    H239407   3.261   1.231   5.432
13156TIP3   OH239408   3.153   5.428   4.829
13156TIP3    H139409   3.194   5.408   4.913
13156TIP3    H239410   3.194   5.509   4.801
13157TIP3   OH239411   5.954   0.165   3.010
13157TIP3    H139412   5.945   0.084   3.061
13157TIP3    H239413   5.905   0.231   3.061
13158TIP3   OH239414   7.561   1.302   3.100
13158TIP3    H139415   7.617   1.225   3.113
13158TIP3    H239416   7.503   1.277   3.028
13159TIP3   OH239417   5.732   1.588   5.905
13159TIP3    H139418   5.775   1.638   5.835
13159TIP3    H239419   5.753   1.635   5.985
13160TIP3   OH239420   7.007   6.448   0.889
13160TIP3    H139421   7.006   6.352   0.893
13160TIP3    H239422   7.099   6.472   0.900
13161TIP3   OH239423   3.081   7.088   5.074
13161TIP3    H139424   3.093   7.183   5.065
13161TIP3    H239425   3.035   7.077   5.157
13162TIP3   OH239426   4.608   7.163   6.657
13162TIP3    H139427   4.543   7.195   6.594
13162TIP3    H239428   4.600   7.223   6.731
13163TIP3   OH239429   6.200   3.946   1.183
13163TIP3    H139430   6.199   3.935   1.087
13163TIP3    H239431   6.121   3.901   1.213
13164TIP3   OH239432   1.155   2.121   4.575
13164TIP3    H139433   1.182   2.211   4.594
13164TIP3    H239434   1.168   2.111   4.480
13165TIP3   OH239435   1.895   0.516   1.157
13165TIP3    H139436   1.975   0.536   1.206
13165TIP3    H239437   1.824   0.536   1.218
13166TIP3   OH239438   8.312   3.232   5.021
13166TIP3    H139439   8.395   3.253   5.064
13166TIP3    H239440   8.331   3.239   4.927
13167TIP3   OH239441   2.617   1.162   0.227
13167TIP3    H139442   2.674   1.148   0.303
13167TIP3    H239443   2.588   1.252   0.235
13168TIP3   OH239444   0.242   3.293   2.856
13168TIP3    H139445   0.225   3.387   2.857
13168TIP3    H239446   0.221   3.263   2.945
13169TIP3   OH239447   3.583   7.389   0.612
13169TIP3    H139448   3.522   7.315   0.600
13169TIP3    H239449   3.530   7.457   0.653
13170TIP3   OH239450   6.565   1.663   0.774
13170TIP3    H139451   6.471   1.642   0.779
13170TIP3    H239452   6.608   1.578   0.765
13171TIP3   OH239453   2.808   7.771   2.614
13171TIP3    H139454   2.850   7.811   2.537
13171TIP3    H239455   2.879   7.765   2.679
13172TIP3   OH239456   5.346   6.558   4.967
13172TIP3    H139457   5.372   6.540   4.877
13172TIP3    H239458   5.427   6.583   5.012
13173TIP3   OH239459   5.878   7.257   6.540
13173TIP3    H139460   5.957   7.214   6.507
13173TIP3    H239461   5.887   7.349   6.512
13174TIP3   OH239462   3.177   7.487   6.614
13174TIP3    H139463   3.221   7.493   6.530
13174TIP3    H239464   3.112   7.558   6.613
13175TIP3   OH239465   1.170   6.784   4.603
13175TIP3    H139466   1.252   6.809   4.560
13175TIP3    H239467   1.103   6.797   4.536
13176TIP3   OH239468   3.307   6.439   2.131
13176TIP3    H139469   3.237   6.383   2.097
13176TIP3    H239470   3.312   6.511   2.068
13177TIP3   OH239471   7.586   6.887   5.558
13177TIP3    H139472   7.531   6.876   5.480
13177TIP3    H239473   7.609   6.980   5.557
13178TIP3   OH239474   3.044   6.748   5.990
13178TIP3    H139475   3.021   6.682   6.056
13178TIP3    H239476   3.072   6.697   5.914
13179TIP3   OH239477   3.351   2.870   5.778
13179TIP3    H139478   3.269   2.829   5.806
13179TIP3    H239479   3.355   2.853   5.684
13180TIP3   OH239480   0.921   6.492   0.811
13180TIP3    H139481   0.920   6.484   0.906
13180TIP3    H239482   0.945   6.405   0.779
13181TIP3   OH239483   6.309   0.413   5.261
13181TIP3    H139484   6.382   0.456   5.307
13181TIP3    H239485   6.351   0.353   5.200
13182TIP3   OH239486   1.104   2.625   5.314
13182TIP3    H139487   1.047   2.670   5.376
13182TIP3    H239488   1.104   2.681   5.236
13183TIP3   OH239489   1.610   1.902   3.583
13183TIP3    H139490   1.536   1.846   3.561
13183TIP3    H239491   1.584   1.945   3.664
13184TIP3   OH239492   5.215   6.131   3.134
13184TIP3    H139493   5.243   6.105   3.222
13184TIP3    H239494   5.121   6.111   3.133
13185TIP3   OH239495   1.702   2.042   5.895
13185TIP3    H139496   1.611   2.047   5.924
13185TIP3    H239497   1.701   2.074   5.805
13186TIP3   OH239498   0.301   0.650   5.346
13186TIP3    H139499   0.272   0.575   5.397
13186TIP3    H239500   0.222   0.685   5.306
13187TIP3   OH239501   2.540   5.654   0.854
13187TIP3    H139502   2.521   5.561   0.840
13187TIP3    H239503   2.632   5.655   0.881
13188TIP3   OH239504   1.599   7.417   1.481
13188TIP3    H139505   1.637   7.393   1.566
13188TIP3    H239506   1.664   7.389   1.417
13189TIP3   OH239507   3.585   5.836   4.550
13189TIP3    H139508   3.505   5.843   4.601
13189TIP3    H239509   3.557   5.796   4.467
13190TIP3   OH239510   5.625   6.486   5.852
13190TIP3    H139511   5.633   6.391   5.864
13190TIP3    H239512   5.536   6.506   5.881
13191TIP3   OH239513   5.975   7.379   5.646
13191TIP3    H139514   5.901   7.331   5.684
13191TIP3    H239515   6.052   7.327   5.669
13192TIP3   OH239516   0.193   1.755   4.919
13192TIP3    H139517   0.169   1.842   4.949
13192TIP3    H239518   0.280   1.767   4.880
13193TIP3   OH239519   0.317   4.318   2.385
13193TIP3    H139520   0.345   4.314   2.476
13193TIP3    H239521   0.389   4.363   2.340
13194TIP3   OH239522   4.268   2.614   6.036
13194TIP3    H139523   4.236   2.619   5.947
13194TIP3    H239524   4.360   2.639   6.030
13195TIP3   OH239525   4.258   4.463   5.510
13195TIP3    H139526   4.285   4.492   5.423
13195TIP3    H239527   4.300   4.378   5.522
13196TIP3   OH239528   5.332   6.333   0.849
13196TIP3    H139529   5.333   6.385   0.929
13196TIP3    H239530   5.307   6.395   0.780
13197TIP3   OH239531   7.092   1.482   4.899
13197TIP3    H139532   7.174   1.527   4.919
13197TIP3    H239533   7.117   1.391   4.885
13198TIP3   OH239534   3.012   6.517   6.154
13198TIP3    H139535   2.917   6.502   6.162
13198TIP3    H239536   3.051   6.437   6.188
13199TIP3   OH239537   5.779   6.829   3.980
13199TIP3    H139538   5.695   6.847   3.939
13199TIP3    H239539   5.812   6.751   3.936
13200TIP3   OH239540   3.360   6.294   6.056
13200TIP3    H139541   3.417   6.365   6.086
13200TIP3    H239542   3.316   6.264   6.136
13201TIP3   OH239543   7.882   2.679   5.424
13201TIP3    H139544   7.925   2.672   5.509
13201TIP3    H239545   7.817   2.609   5.425
13202TIP3   OH239546   6.700   3.132   3.518
13202TIP3    H139547   6.719   3.138   3.612
13202TIP3    H239548   6.720   3.041   3.496
13203TIP3   OH239549   2.015   0.862   4.906
13203TIP3    H139550   2.090   0.829   4.857
13203TIP3    H239551   2.046   0.868   4.996
13204TIP3   OH239552   7.134   1.167   0.130
13204TIP3    H139553   7.070   1.097   0.140
13204TIP3    H239554   7.082   1.244   0.109
13205TIP3   OH239555   5.423   5.695   6.531
13205TIP3    H139556   5.381   5.777   6.555
13205TIP3    H239557   5.513   5.718   6.509
13206TIP3   OH239558   3.883   6.252   3.502
13206TIP3    H139559   3.896   6.344   3.525
13206TIP3    H239560   3.877   6.253   3.406
13207TIP3   OH239561   2.817   7.804   5.535
13207TIP3    H139562   2.840   7.885   5.489
13207TIP3    H239563   2.808   7.830   5.627
13208TIP3   OH239564   7.229   2.340   4.812
13208TIP3    H139565   7.278   2.280   4.869
13208TIP3    H239566   7.138   2.333   4.842
13209TIP3   OH239567   7.000   2.217   1.786
13209TIP3    H139568   6.998   2.137   1.839
13209TIP3    H239569   6.909   2.232   1.761
13210TIP3   OH239570   6.343   5.970   4.884
13210TIP3    H139571   6.339   6.036   4.953
13210TIP3    H239572   6.355   6.020   4.803
13211TIP3   OH239573   6.262   6.674   4.543
13211TIP3    H139574   6.237   6.761   4.577
13211TIP3    H239575   6.354   6.666   4.567
13212TIP3   OH239576   4.168   3.647   3.193
13212TIP3    H139577   4.084   3.612   3.164
13212TIP3    H239578   4.228   3.572   3.190
13213TIP3   OH239579   1.124   2.272   1.274
13213TIP3    H139580   1.171   2.249   1.354
13213TIP3    H239581   1.189   2.262   1.204
13214TIP3   OH239582   2.729   7.197   4.588
13214TIP3    H139583   2.644   7.152   4.589
13214TIP3    H239584   2.769   7.174   4.672
13215TIP3   OH239585   3.431   6.588   0.817
13215TIP3    H139586   3.397   6.643   0.888
13215TIP3    H239587   3.515   6.628   0.794
13216TIP3   OH239588   6.868   0.027   6.674
13216TIP3    H139589   6.913   0.110   6.654
13216TIP3    H239590   6.925  -0.017   6.736
13217TIP3   OH239591   0.140   2.374   5.047
13217TIP3    H139592   0.155   2.413   5.133
13217TIP3    H239593   0.227   2.368   5.008
13218TIP3   OH239594   4.279   0.246   5.578
13218TIP3    H139595   4.268   0.164   5.530
13218TIP3    H239596   4.194   0.290   5.570
13219TIP3   OH239597   0.398   5.887   6.464
13219TIP3    H139598   0.442   5.919   6.386
13219TIP3    H239599   0.459   5.824   6.503
13220TIP3   OH239600   5.353   4.693   4.497
13220TIP3    H139601   5.369   4.773   4.447
13220TIP3    H239602   5.370   4.622   4.434
13221TIP3   OH239603   5.891   7.417   6.112
13221TIP3    H139604   5.816   7.414   6.170
13221TIP3    H239605   5.857   7.451   6.029
13222TIP3   OH239606   7.327   5.844   3.652
13222TIP3    H139607   7.393   5.782   3.623
13222TIP3    H239608   7.285   5.801   3.726
13223TIP3   OH239609   0.348   7.157   5.913
13223TIP3    H139610   0.385   7.227   5.859
13223TIP3    H239611   0.306   7.098   5.851
13224TIP3   OH239612   8.114   6.498   6.330
13224TIP3    H139613   8.081   6.571   6.279
13224TIP3    H239614   8.197   6.475   6.288
13225TIP3   OH239615   5.045   7.136   0.904
13225TIP3    H139616   5.041   7.055   0.955
13225TIP3    H239617   5.063   7.107   0.814
13226TIP3   OH239618   0.079   4.524   4.792
13226TIP3    H139619   0.014   4.487   4.851
13226TIP3    H239620   0.052   4.616   4.781
13227TIP3   OH239621   7.153   5.812   6.724
13227TIP3    H139622   7.113   5.786   6.807
13227TIP3    H239623   7.098   5.884   6.693
13228TIP3   OH239624   1.494   6.567   3.297
13228TIP3    H139625   1.439   6.609   3.363
13228TIP3    H239626   1.572   6.622   3.293
13229TIP3   OH239627   7.495   4.572   4.851
13229TIP3    H139628   7.437   4.619   4.792
13229TIP3    H239629   7.542   4.510   4.795
13230TIP3   OH239630   1.254   3.498   6.236
13230TIP3    H139631   1.208   3.425   6.278
13230TIP3    H239632   1.298   3.458   6.161
13231TIP3   OH239633   7.489   1.408   4.635
13231TIP3    H139634   7.507   1.368   4.550
13231TIP3    H239635   7.546   1.361   4.696
13232TIP3   OH239636   6.590   6.296   1.574
13232TIP3    H139637   6.570   6.232   1.505
13232TIP3    H239638   6.616   6.375   1.526
13233TIP3   OH239639   2.725   3.075   3.127
13233TIP3    H139640   2.631   3.066   3.116
13233TIP3    H239641   2.735   3.128   3.206
13234TIP3   OH239642   4.813   3.878   5.505
13234TIP3    H139643   4.754   3.818   5.459
13234TIP3    H239644   4.859   3.924   5.435
13235TIP3   OH239645   6.056   0.381   5.389
13235TIP3    H139646   6.143   0.379   5.351
13235TIP3    H239647   6.037   0.473   5.405
13236TIP3   OH239648   7.779   6.589   5.958
13236TIP3    H139649   7.716   6.656   5.985
13236TIP3    H239650   7.864   6.632   5.964
13237TIP3   OH239651   2.532   3.534   2.004
13237TIP3    H139652   2.558   3.450   1.966
13237TIP3    H239653   2.581   3.599   1.953
13238TIP3   OH239654   0.125   2.482   3.171
13238TIP3    H139655   0.102   2.574   3.157
13238TIP3    H239656   0.167   2.481   3.257
13239TIP3   OH239657   6.779   0.181   3.845
13239TIP3    H139658   6.723   0.257   3.859
13239TIP3    H239659   6.719   0.107   3.842
13240TIP3   OH239660   4.486   2.021   5.401
13240TIP3    H139661   4.460   1.930   5.386
13240TIP3    H239662   4.408   2.062   5.441
13241TIP3   OH239663   0.116   1.480   4.007
13241TIP3    H139664   0.083   1.392   4.024
13241TIP3    H239665   0.055   1.537   4.053
13242TIP3   OH239666   1.563   1.756   1.987
13242TIP3    H139667   1.630   1.762   2.055
13242TIP3    H239668   1.519   1.673   2.005
13243TIP3   OH239669   1.475   1.331   6.778
13243TIP3    H139670   1.554   1.282   6.802
13243TIP3    H239671   1.415   1.264   6.743
13244TIP3   OH239672   5.498   5.660   0.285
13244TIP3    H139673   5.458   5.573   0.287
13244TIP3    H239674   5.431   5.718   0.321
13245TIP3   OH239675   0.941   4.970   3.642
13245TIP3    H139676   0.978   4.933   3.723
13245TIP3    H239677   1.016   4.977   3.583
13246TIP3   OH239678   5.491   3.562   6.250
13246TIP3    H139679   5.498   3.473   6.215
13246TIP3    H239680   5.471   3.616   6.173
13247TIP3   OH239681   0.661   0.544   0.041
13247TIP3    H139682   0.727   0.611   0.055
13247TIP3    H239683   0.686   0.473   0.100
13248TIP3   OH239684   5.421   2.435   1.044
13248TIP3    H139685   5.410   2.347   1.009
13248TIP3    H239686   5.472   2.424   1.124
13249TIP3   OH239687   7.292   1.715   0.823
13249TIP3    H139688   7.253   1.710   0.735
13249TIP3    H239689   7.322   1.625   0.840
13250TIP3   OH239690   1.218   0.677   2.321
13250TIP3    H139691   1.291   0.723   2.279
13250TIP3    H239692   1.232   0.689   2.414
13251TIP3   OH239693   0.151   1.873   0.246
13251TIP3    H139694   0.074   1.925   0.224
13251TIP3    H239695   0.170   1.895   0.337
13252TIP3   OH239696   0.084   1.959   0.854
13252TIP3    H139697   0.038   1.949   0.937
13252TIP3    H239698   0.057   1.883   0.802
13253TIP3   OH239699   7.177   6.129   3.924
13253TIP3    H139700   7.207   6.168   4.007
13253TIP3    H239701   7.196   6.196   3.858
13254TIP3   OH239702   3.099   5.484   1.938
13254TIP3    H139703   3.037   5.537   1.988
13254TIP3    H239704   3.099   5.523   1.851
13255TIP3   OH239705   2.239   2.508   4.343
13255TIP3    H139706   2.244   2.426   4.293
13255TIP3    H239707   2.162   2.497   4.400
13256TIP3   OH239708   5.006   7.265   5.902
13256TIP3    H139709   4.979   7.203   5.834
13256TIP3    H239710   5.020   7.347   5.856
13257TIP3   OH239711   8.068   0.403   4.597
13257TIP3    H139712   8.153   0.366   4.572
13257TIP3    H239713   8.016   0.401   4.517
13258TIP3   OH239714   4.031   6.477   5.371
13258TIP3    H139715   4.056   6.559   5.330
13258TIP3    H239716   3.935   6.477   5.369
13259TIP3   OH239717   1.377   5.484   1.793
13259TIP3    H139718   1.416   5.423   1.730
13259TIP3    H239719   1.448   5.506   1.853
13260TIP3   OH239720   2.397   7.650   2.688
13260TIP3    H139721   2.384   7.601   2.606
13260TIP3    H239722   2.372   7.588   2.756
13261TIP3   OH239723   4.571   1.615   1.740
13261TIP3    H139724   4.665   1.596   1.749
13261TIP3    H239725   4.528   1.545   1.789
13262TIP3   OH239726   5.335   5.876   4.379
13262TIP3    H139727   5.324   5.932   4.302
13262TIP3    H239728   5.246   5.861   4.410
13263TIP3   OH239729   4.930   4.693   2.137
13263TIP3    H139730   4.962   4.605   2.115
13263TIP3    H239731   4.874   4.680   2.213
13264TIP3   OH239732   8.148   7.713   0.237
13264TIP3    H139733   8.084   7.643   0.221
13264TIP3    H239734   8.094   7.788   0.263
13265TIP3   OH239735   3.400   7.191   0.644
13265TIP3    H139736   3.396   7.105   0.685
13265TIP3    H239737   3.317   7.199   0.597
13266TIP3   OH239738   4.578   6.536   6.041
13266TIP3    H139739   4.644   6.466   6.045
13266TIP3    H239740   4.552   6.539   5.949
13267TIP3   OH239741   4.058   4.078   5.457
13267TIP3    H139742   4.025   4.135   5.388
13267TIP3    H239743   4.017   3.993   5.439
13268TIP3   OH239744   1.571   5.054   0.324
13268TIP3    H139745   1.500   4.999   0.356
13268TIP3    H239746   1.527   5.122   0.272
13269TIP3   OH239747   5.574   0.640   4.666
13269TIP3    H139748   5.534   0.608   4.585
13269TIP3    H239749   5.623   0.564   4.699
13270TIP3   OH239750   6.014   0.969   3.327
13270TIP3    H139751   6.104   1.004   3.325
13270TIP3    H239752   5.959   1.045   3.311
13271TIP3   OH239753   7.360   5.904   3.977
13271TIP3    H139754   7.317   5.822   3.953
13271TIP3    H239755   7.292   5.971   3.971
13272TIP3   OH239756   6.047   6.357   0.563
13272TIP3    H139757   5.988   6.283   0.575
13272TIP3    H239758   6.021   6.395   0.479
13273TIP3   OH239759   4.701   4.622   0.825
13273TIP3    H139760   4.645   4.602   0.900
13273TIP3    H239761   4.642   4.657   0.759
13274TIP3   OH239762   4.378   4.405   4.097
13274TIP3    H139763   4.429   4.326   4.112
13274TIP3    H239764   4.407   4.466   4.166
13275TIP3   OH239765   7.912   0.834   5.374
13275TIP3    H139766   7.971   0.866   5.442
13275TIP3    H239767   7.872   0.756   5.412
13276TIP3   OH239768   4.278   5.476   3.808
13276TIP3    H139769   4.220   5.539   3.850
13276TIP3    H239770   4.233   5.453   3.727
13277TIP3   OH239771   0.285   7.175   0.230
13277TIP3    H139772   0.223   7.102   0.220
13277TIP3    H239773   0.239   7.237   0.286
13278TIP3   OH239774   3.356   7.136   2.280
13278TIP3    H139775   3.426   7.103   2.225
13278TIP3    H239776   3.328   7.061   2.332
13279TIP3   OH239777   3.094   1.837   5.563
13279TIP3    H139778   3.001   1.815   5.563
13279TIP3    H239779   3.124   1.812   5.475
13280TIP3   OH239780   3.008   5.337   2.749
13280TIP3    H139781   3.046   5.251   2.768
13280TIP3    H239782   2.923   5.337   2.792
13281TIP3   OH239783   3.044   5.256   3.341
13281TIP3    H139784   2.981   5.220   3.403
13281TIP3    H239785   3.121   5.278   3.395
13282TIP3   OH239786   7.506   4.172   2.982
13282TIP3    H139787   7.446   4.163   3.055
13282TIP3    H239788   7.458   4.138   2.907
13283TIP3   OH239789   2.359   4.592   1.222
13283TIP3    H139790   2.309   4.577   1.142
13283TIP3    H239791   2.411   4.512   1.233
13284TIP3   OH239792   6.272   6.472   4.322
13284TIP3    H139793   6.354   6.424   4.329
13284TIP3    H239794   6.286   6.551   4.375
13285TIP3   OH239795   0.756   2.545   1.983
13285TIP3    H139796   0.808   2.540   1.902
13285TIP3    H239797   0.813   2.508   2.050
13286TIP3   OH239798   4.570   4.149   6.136
13286TIP3    H139799   4.537   4.157   6.047
13286TIP3    H239800   4.613   4.232   6.154
13287TIP3   OH239801   1.200   3.442   2.724
13287TIP3    H139802   1.168   3.456   2.813
13287TIP3    H239803   1.291   3.472   2.727
13288TIP3   OH239804   7.973   3.856   3.466
13288TIP3    H139805   8.049   3.837   3.521
13288TIP3    H239806   7.922   3.776   3.467
13289TIP3   OH239807   4.154   3.935   3.606
13289TIP3    H139808   4.236   3.887   3.613
13289TIP3    H239809   4.159   4.003   3.673
13290TIP3   OH239810   1.418   1.014   1.611
13290TIP3    H139811   1.423   0.926   1.647
13290TIP3    H239812   1.344   1.054   1.656
13291TIP3   OH239813   3.528   1.075   2.504
13291TIP3    H139814   3.480   1.062   2.422
13291TIP3    H239815   3.475   1.135   2.554
13292TIP3   OH239816   4.298   5.041   3.676
13292TIP3    H139817   4.218   5.094   3.680
13292TIP3    H239818   4.353   5.075   3.746
13293TIP3   OH239819   1.141   0.026  -0.033
13293TIP3    H139820   1.047   0.016  -0.017
13293TIP3    H239821   1.176   0.058   0.050
13294TIP3   OH239822   5.677   2.459   6.385
13294TIP3    H139823   5.620   2.497   6.450
13294TIP3    H239824   5.654   2.366   6.383
13295TIP3   OH239825   4.744   2.357   0.686
13295TIP3    H139826   4.688   2.348   0.763
13295TIP3    H239827   4.779   2.269   0.671
13296TIP3   OH239828   3.927   4.230   6.571
13296TIP3    H139829   3.858   4.181   6.616
13296TIP3    H239830   4.001   4.170   6.568
13297TIP3   OH239831   2.426   4.597   1.508
13297TIP3    H139832   2.514   4.598   1.469
13297TIP3    H239833   2.367   4.611   1.435
13298TIP3   OH239834   5.782   3.710   3.261
13298TIP3    H139835   5.744   3.694   3.175
13298TIP3    H239836   5.873   3.681   3.253
13299TIP3   OH239837   6.153   3.362   6.307
13299TIP3    H139838   6.102   3.343   6.385
13299TIP3    H239839   6.203   3.441   6.329
13300TIP3   OH239840   8.349   4.626   0.174
13300TIP3    H139841   8.437   4.658   0.192
13300TIP3    H239842   8.362   4.555   0.110
13301TIP3   OH239843   2.796   3.601   0.589
13301TIP3    H139844   2.726   3.539   0.611
13301TIP3    H239845   2.798   3.601   0.493
13302TIP3   OH239846   8.003   0.757   2.654
13302TIP3    H139847   8.017   0.722   2.567
13302TIP3    H239848   7.908   0.763   2.663
13303TIP3   OH239849   6.970   0.644   3.475
13303TIP3    H139850   7.035   0.576   3.490
13303TIP3    H239851   6.904   0.630   3.542
13304TIP3   OH239852   1.522   1.076   5.052
13304TIP3    H139853   1.618   1.079   5.050
13304TIP3    H239854   1.494   1.155   5.006
13305TIP3   OH239855   5.805   3.784   6.069
13305TIP3    H139856   5.721   3.798   6.027
13305TIP3    H239857   5.799   3.833   6.151
13306TIP3   OH239858   3.095   1.267   4.914
13306TIP3    H139859   3.125   1.185   4.874
13306TIP3    H239860   3.014   1.243   4.959
13307TIP3   OH239861   1.489   1.198   1.215
13307TIP3    H139862   1.460   1.289   1.220
13307TIP3    H239863   1.584   1.203   1.205
13308TIP3   OH239864   5.772   7.840   6.100
13308TIP3    H139865   5.837   7.773   6.077
13308TIP3    H239866   5.774   7.901   6.026
13309TIP3   OH239867   7.469   3.441   3.163
13309TIP3    H139868   7.397   3.498   3.189
13309TIP3    H239869   7.546   3.497   3.166
13310TIP3   OH239870   8.112   2.622   4.988
13310TIP3    H139871   8.039   2.598   4.930
13310TIP3    H239872   8.151   2.699   4.947
13311TIP3   OH239873   3.230   5.766   1.733
13311TIP3    H139874   3.173   5.697   1.701
13311TIP3    H239875   3.290   5.783   1.659
13312TIP3   OH239876   0.738   4.019   4.409
13312TIP3    H139877   0.803   4.056   4.468
13312TIP3    H239878   0.721   3.931   4.442
13313TIP3   OH239879   6.076   0.841   2.656
13313TIP3    H139880   6.084   0.756   2.701
13313TIP3    H239881   6.155   0.847   2.603
13314TIP3   OH239882   1.954   6.685   4.380
13314TIP3    H139883   1.936   6.591   4.381
13314TIP3    H239884   2.040   6.692   4.338
13315TIP3   OH239885   5.423   5.579   4.560
13315TIP3    H139886   5.432   5.621   4.474
13315TIP3    H239887   5.503   5.602   4.607
13316TIP3   OH239888   2.182   0.009   5.454
13316TIP3    H139889   2.205   0.056   5.374
13316TIP3    H239890   2.219   0.061   5.525
13317TIP3   OH239891   2.613   5.415   0.194
13317TIP3    H139892   2.644   5.433   0.105
13317TIP3    H239893   2.634   5.495   0.243
13318TIP3   OH239894   7.557   5.500   6.387
13318TIP3    H139895   7.545   5.593   6.406
13318TIP3    H239896   7.639   5.477   6.432
13319TIP3   OH239897   4.301   1.503   6.600
13319TIP3    H139898   4.287   1.535   6.511
13319TIP3    H239899   4.221   1.528   6.647
13320TIP3   OH239900   3.696   4.221   3.560
13320TIP3    H139901   3.697   4.134   3.521
13320TIP3    H239902   3.783   4.231   3.599
13321TIP3   OH239903   8.016   7.008   4.695
13321TIP3    H139904   7.994   7.040   4.782
13321TIP3    H239905   7.977   6.920   4.691
13322TIP3   OH239906   1.468   3.113   1.303
13322TIP3    H139907   1.557   3.147   1.313
13322TIP3    H239908   1.473   3.023   1.334
13323TIP3   OH239909   8.273   1.722   2.005
13323TIP3    H139910   8.267   1.628   2.021
13323TIP3    H239911   8.291   1.730   1.911
13324TIP3   OH239912   4.714   1.767   2.408
13324TIP3    H139913   4.745   1.798   2.493
13324TIP3    H239914   4.720   1.844   2.352
13325TIP3   OH239915   3.389   3.077   0.800
13325TIP3    H139916   3.402   3.053   0.892
13325TIP3    H239917   3.467   3.128   0.777
13326TIP3   OH239918   2.860   6.612   4.635
13326TIP3    H139919   2.828   6.523   4.648
13326TIP3    H239920   2.951   6.610   4.665
13327TIP3   OH239921   3.455   6.532   6.767
13327TIP3    H139922   3.549   6.544   6.770
13327TIP3    H239923   3.419   6.621   6.767
13328TIP3   OH239924   1.293   0.235   6.541
13328TIP3    H139925   1.304   0.238   6.446
13328TIP3    H239926   1.272   0.325   6.566
13329TIP3   OH239927   1.073   7.556   6.154
13329TIP3    H139928   1.157   7.512   6.139
13329TIP3    H239929   1.008   7.486   6.147
13330TIP3   OH239930   2.223   5.895   4.516
13330TIP3    H139931   2.190   5.984   4.507
13330TIP3    H239932   2.306   5.904   4.562
13331TIP3   OH239933   7.601   5.521   3.097
13331TIP3    H139934   7.666   5.580   3.058
13331TIP3    H239935   7.649   5.475   3.165
13332TIP3   OH239936   5.170   0.547   6.813
13332TIP3    H139937   5.176   0.558   6.908
13332TIP3    H239938   5.086   0.586   6.790
13333TIP3   OH239939   4.908   0.598   4.040
13333TIP3    H139940   4.873   0.524   3.990
13333TIP3    H239941   4.843   0.613   4.109
13334TIP3   OH239942   4.668   6.502   0.336
13334TIP3    H139943   4.637   6.559   0.266
13334TIP3    H239944   4.760   6.486   0.315
13335TIP3   OH239945   8.382   5.578   1.524
13335TIP3    H139946   8.337   5.518   1.583
13335TIP3    H239947   8.430   5.522   1.464
13336TIP3   OH239948   3.527   2.732   0.487
13336TIP3    H139949   3.600   2.781   0.448
13336TIP3    H239950   3.461   2.799   0.506
13337TIP3   OH239951   4.882   1.877   0.574
13337TIP3    H139952   4.909   1.928   0.497
13337TIP3    H239953   4.804   1.829   0.545
13338TIP3   OH239954   0.045   4.400   0.886
13338TIP3    H139955   0.130   4.422   0.924
13338TIP3    H239956  -0.012   4.473   0.910
13339TIP3   OH239957   6.452   3.629   5.496
13339TIP3    H139958   6.437   3.720   5.521
13339TIP3    H239959   6.380   3.581   5.536
13340TIP3   OH239960   1.704   5.376   1.692
13340TIP3    H139961   1.753   5.319   1.633
13340TIP3    H239962   1.613   5.349   1.683
13341TIP3   OH239963   7.063   0.455   4.117
13341TIP3    H139964   6.969   0.441   4.112
13341TIP3    H239965   7.092   0.401   4.191
13342TIP3   OH239966   6.801   2.747   3.911
13342TIP3    H139967   6.851   2.708   3.840
13342TIP3    H239968   6.861   2.808   3.953
13343TIP3   OH239969   5.106   7.097   1.250
13343TIP3    H139970   5.083   7.027   1.190
13343TIP3    H239971   5.121   7.053   1.334
13344TIP3   OH239972   3.953   2.714   4.081
13344TIP3    H139973   3.920   2.700   3.992
13344TIP3    H239974   4.046   2.695   4.076
13345TIP3   OH239975   0.649   4.915   5.760
13345TIP3    H139976   0.701   4.897   5.682
13345TIP3    H239977   0.680   5.000   5.791
13346TIP3   OH239978   5.840   4.343   3.123
13346TIP3    H139979   5.875   4.347   3.212
13346TIP3    H239980   5.883   4.416   3.077
13347TIP3   OH239981   2.159   0.188   4.861
13347TIP3    H139982   2.194   0.277   4.860
13347TIP3    H239983   2.189   0.152   4.944
13348TIP3   OH239984   0.302   6.985   3.141
13348TIP3    H139985   0.209   6.978   3.122
13348TIP3    H239986   0.306   7.005   3.235
13349TIP3   OH239987   8.297   7.672   2.103
13349TIP3    H139988   8.331   7.754   2.140
13349TIP3    H239989   8.317   7.606   2.170
13350TIP3   OH239990   6.664   2.442   0.375
13350TIP3    H139991   6.654   2.347   0.377
13350TIP3    H239992   6.692   2.465   0.463
13351TIP3   OH239993   7.711   0.877   0.209
13351TIP3    H139994   7.773   0.880   0.137
13351TIP3    H239995   7.687   0.784   0.217
13352TIP3   OH239996   8.059   0.659   6.217
13352TIP3    H139997   7.974   0.691   6.187
13352TIP3    H239998   8.061   0.566   6.192
13353TIP3   OH239999   7.536   0.584   1.863
13353TIP3    H140000   7.535   0.550   1.952
13353TIP3    H240001   7.444   0.581   1.835
13354TIP3   OH240002   2.922   5.657   4.858
13354TIP3    H140003   2.892   5.566   4.862
13354TIP3    H240004   2.877   5.700   4.930
13355TIP3   OH240005   3.008   5.094   0.482
13355TIP3    H140006   3.067   5.146   0.427
13355TIP3    H240007   3.016   5.005   0.449
13356TIP3   OH240008   6.613   5.198   0.576
13356TIP3    H140009   6.576   5.234   0.495
13356TIP3    H240010   6.541   5.203   0.639
13357TIP3   OH240011   0.286   0.253   5.981
13357TIP3    H140012   0.204   0.303   5.976
13357TIP3    H240013   0.294   0.227   6.072
13358TIP3   OH240014   3.800   5.483   5.856
13358TIP3    H140015   3.834   5.401   5.820
13358TIP3    H240016   3.729   5.508   5.797
13359TIP3   OH240017   3.018   3.500   0.901
13359TIP3    H140018   2.930   3.466   0.887
13359TIP3    H240019   3.054   3.508   0.813
13360TIP3   OH240020   0.511   5.921   3.943
13360TIP3    H140021   0.594   5.937   3.987
13360TIP3    H240022   0.447   5.915   4.013
13361TIP3   OH240023   5.240   3.576   6.734
13361TIP3    H140024   5.288   3.655   6.708
13361TIP3    H240025   5.304   3.505   6.727
13362TIP3   OH240026   6.338   3.543   6.681
13362TIP3    H140027   6.387   3.553   6.763
13362TIP3    H240028   6.395   3.488   6.627
13363TIP3   OH240029   1.674   1.622   5.063
13363TIP3    H140030   1.659   1.533   5.031
13363TIP3    H240031   1.675   1.614   5.158
13364TIP3   OH240032   6.986   1.211   1.901
13364TIP3    H140033   6.940   1.291   1.876
13364TIP3    H240034   6.926   1.140   1.877
13365TIP3   OH240035   0.686   4.360   2.445
13365TIP3    H140036   0.715   4.372   2.536
13365TIP3    H240037   0.610   4.418   2.437
13366TIP3   OH240038   4.921   7.502   0.790
13366TIP3    H140039   5.003   7.548   0.769
13366TIP3    H240040   4.870   7.565   0.840
13367TIP3   OH240041   0.908   4.027   4.667
13367TIP3    H140042   0.999   4.001   4.653
13367TIP3    H240043   0.910   4.074   4.751
13368TIP3   OH240044   1.096   3.223   5.185
13368TIP3    H140045   1.167   3.179   5.233
13368TIP3    H240046   1.094   3.311   5.221
13369TIP3   OH240047   7.608   6.702   0.944
13369TIP3    H140048   7.682   6.664   0.992
13369TIP3    H240049   7.592   6.641   0.872
13370TIP3   OH240050   6.445   1.693   5.279
13370TIP3    H140051   6.531   1.702   5.237
13370TIP3    H240052   6.414   1.783   5.289
13371TIP3   OH240053   2.673   5.083   0.029
13371TIP3    H140054   2.622   5.149   0.076
13371TIP3    H240055   2.657   5.102  -0.064
13372TIP3   OH240056   2.104   2.207   0.453
13372TIP3    H140057   2.106   2.120   0.414
13372TIP3    H240058   2.112   2.191   0.547
13373TIP3   OH240059   6.355   4.578   2.931
13373TIP3    H140060   6.446   4.559   2.908
13373TIP3    H240061   6.320   4.494   2.961
13374TIP3   OH240062   2.840   1.757   6.311
13374TIP3    H140063   2.755   1.777   6.270
13374TIP3    H240064   2.903   1.811   6.264
13375TIP3   OH240065   4.009   2.226   3.785
13375TIP3    H140066   4.002   2.136   3.752
13375TIP3    H240067   3.919   2.257   3.792
13376TIP3   OH240068   1.553   0.208   6.622
13376TIP3    H140069   1.467   0.247   6.607
13376TIP3    H240070   1.547   0.121   6.582
13377TIP3   OH240071   1.289   3.468   4.485
13377TIP3    H140072   1.282   3.481   4.579
13377TIP3    H240073   1.214   3.515   4.448
13378TIP3   OH240074   7.638   7.376   1.930
13378TIP3    H140075   7.698   7.303   1.917
13378TIP3    H240076   7.670   7.420   2.008
13379TIP3   OH240077   1.472   0.827   2.994
13379TIP3    H140078   1.388   0.871   3.006
13379TIP3    H240079   1.483   0.774   3.072
13380TIP3   OH240080   5.567   7.625   5.442
13380TIP3    H140081   5.620   7.687   5.393
13380TIP3    H240082   5.629   7.583   5.502
13381TIP3   OH240083   1.308   4.525   2.137
13381TIP3    H140084   1.329   4.535   2.044
13381TIP3    H240085   1.232   4.582   2.150
13382TIP3   OH240086   5.945   1.761   2.931
13382TIP3    H140087   5.948   1.821   3.005
13382TIP3    H240088   5.996   1.685   2.959
13383TIP3   OH240089   7.675   7.497   0.587
13383TIP3    H140090   7.745   7.483   0.651
13383TIP3    H240091   7.617   7.561   0.629
13384TIP3   OH240092   8.092   2.639   0.557
13384TIP3    H140093   8.047   2.718   0.588
13384TIP3    H240094   8.132   2.601   0.635
13385TIP3   OH240095   7.625   2.166   1.157
13385TIP3    H140096   7.678   2.146   1.080
13385TIP3    H240097   7.633   2.087   1.212
13386TIP3   OH240098   6.305   3.199   2.083
13386TIP3    H140099   6.312   3.217   1.989
13386TIP3    H240100   6.211   3.203   2.100
13387TIP3   OH240101   6.351   2.401   1.322
13387TIP3    H140102   6.331   2.475   1.379
13387TIP3    H240103   6.447   2.398   1.320
13388TIP3   OH240104   7.974   4.158   2.519
13388TIP3    H140105   7.899   4.101   2.503
13388TIP3    H240106   8.004   4.133   2.607
13389TIP3   OH240107   5.411   0.244   0.982
13389TIP3    H140108   5.337   0.261   0.924
13389TIP3    H240109   5.486   0.233   0.923
13390TIP3   OH240110   1.003   2.616   5.682
13390TIP3    H140111   1.011   2.670   5.760
13390TIP3    H240112   0.991   2.527   5.714
13391TIP3   OH240113   4.246   2.083   5.744
13391TIP3    H140114   4.164   2.088   5.793
13391TIP3    H240115   4.247   1.995   5.706
13392TIP3   OH240116   3.457   3.932   6.593
13392TIP3    H140117   3.518   3.867   6.628
13392TIP3    H240118   3.384   3.931   6.655
13393TIP3   OH240119   0.940   6.250   5.152
13393TIP3    H140120   0.903   6.273   5.237
13393TIP3    H240121   1.009   6.315   5.137
13394TIP3   OH240122   6.888   0.630   1.012
13394TIP3    H140123   6.944   0.673   1.076
13394TIP3    H240124   6.799   0.659   1.033
13395TIP3   OH240125   1.290   4.597   5.013
13395TIP3    H140126   1.199   4.573   5.029
13395TIP3    H240127   1.300   4.683   5.054
13396TIP3   OH240128   0.294   7.274   4.256
13396TIP3    H140129   0.385   7.300   4.243
13396TIP3    H240130   0.299   7.193   4.307
13397TIP3   OH240131   0.359   4.181   3.131
13397TIP3    H140132   0.361   4.092   3.096
13397TIP3    H240133   0.315   4.173   3.215
13398TIP3   OH240134   0.857   4.150   1.080
13398TIP3    H140135   0.778   4.156   1.027
13398TIP3    H240136   0.920   4.207   1.036
13399TIP3   OH240137   6.253   3.580   1.630
13399TIP3    H140138   6.160   3.583   1.652
13399TIP3    H240139   6.298   3.606   1.711
13400TIP3   OH240140   1.983   0.684   3.753
13400TIP3    H140141   2.039   0.608   3.769
13400TIP3    H240142   2.025   0.755   3.800
13401TIP3   OH240143   2.204   7.072   4.187
13401TIP3    H140144   2.221   7.166   4.180
13401TIP3    H240145   2.285   7.036   4.224
13402TIP3   OH240146   7.076   7.750   5.783
13402TIP3    H140147   7.115   7.757   5.696
13402TIP3    H240148   7.120   7.675   5.823
13403TIP3   OH240149   3.904   5.237   5.739
13403TIP3    H140150   3.930   5.250   5.648
13403TIP3    H240151   3.832   5.175   5.735
13404TIP3   OH240152   3.207   3.909   2.325
13404TIP3    H140153   3.240   3.898   2.414
13404TIP3    H240154   3.273   3.965   2.282
13405TIP3   OH240155   5.763   2.276   2.210
13405TIP3    H140156   5.744   2.364   2.179
13405TIP3    H240157   5.768   2.284   2.305
13406TIP3   OH240158   3.116   4.004   5.697
13406TIP3    H140159   3.074   3.959   5.770
13406TIP3    H240160   3.202   4.030   5.731
13407TIP3   OH240161   3.602   4.636   0.004
13407TIP3    H140162   3.638   4.584   0.077
13407TIP3    H240163   3.596   4.573  -0.068
13408TIP3   OH240164   0.198   6.824   4.572
13408TIP3    H140165   0.148   6.900   4.604
13408TIP3    H240166   0.151   6.749   4.609
13409TIP3   OH240167   2.919   6.724   0.583
13409TIP3    H140168   2.965   6.672   0.518
13409TIP3    H240169   2.830   6.688   0.584
13410TIP3   OH240170   0.965   5.948   4.019
13410TIP3    H140171   0.887   6.001   4.035
13410TIP3    H240172   0.968   5.887   4.092
13411TIP3   OH240173   1.680   0.286   5.768
13411TIP3    H140174   1.703   0.378   5.757
13411TIP3    H240175   1.651   0.258   5.681
13412TIP3   OH240176   8.050   1.149   0.949
13412TIP3    H140177   8.083   1.153   1.038
13412TIP3    H240178   8.059   1.238   0.915
13413TIP3   OH240179   2.791   3.392   6.673
13413TIP3    H140180   2.759   3.367   6.760
13413TIP3    H240181   2.797   3.310   6.625
13414TIP3   OH240182   1.428   6.997   2.538
13414TIP3    H140183   1.363   6.932   2.564
13414TIP3    H240184   1.378   7.068   2.499
13415TIP3   OH240185   7.594   1.292   3.882
13415TIP3    H140186   7.583   1.347   3.959
13415TIP3    H240187   7.640   1.348   3.819
13416TIP3   OH240188   4.268   1.212   1.391
13416TIP3    H140189   4.222   1.211   1.476
13416TIP3    H240190   4.258   1.123   1.358
13417TIP3   OH240191   5.987   2.688   2.943
13417TIP3    H140192   6.012   2.701   3.035
13417TIP3    H240193   5.999   2.773   2.902
13418TIP3   OH240194   6.251   5.791   3.752
13418TIP3    H140195   6.160   5.794   3.784
13418TIP3    H240196   6.295   5.861   3.800
13419TIP3   OH240197   2.693   7.044   1.279
13419TIP3    H140198   2.686   6.950   1.294
13419TIP3    H240199   2.744   7.076   1.353
13420TIP3   OH240200   5.181   2.584   0.452
13420TIP3    H140201   5.271   2.582   0.421
13420TIP3    H240202   5.178   2.660   0.511
13421TIP3   OH240203   4.782   1.729   3.452
13421TIP3    H140204   4.799   1.764   3.364
13421TIP3    H240205   4.696   1.688   3.445
13422TIP3   OH240206   5.479   1.424   5.185
13422TIP3    H140207   5.570   1.451   5.200
13422TIP3    H240208   5.471   1.341   5.231
13423TIP3   OH240209   4.958   3.554   6.675
13423TIP3    H140210   4.945   3.631   6.731
13423TIP3    H240211   5.050   3.531   6.686
13424TIP3   OH240212   3.732   4.474   5.118
13424TIP3    H140213   3.778   4.402   5.075
13424TIP3    H240214   3.667   4.431   5.173
13425TIP3   OH240215   4.145   2.734   3.605
13425TIP3    H140216   4.063   2.782   3.619
13425TIP3    H240217   4.123   2.668   3.541
13426TIP3   OH240218   7.939   4.921   5.710
13426TIP3    H140219   8.032   4.941   5.716
13426TIP3    H240220   7.898   4.980   5.774
13427TIP3   OH240221   4.759   0.866   5.232
13427TIP3    H140222   4.768   0.911   5.316
13427TIP3    H240223   4.848   0.865   5.196
13428TIP3   OH240224   7.222   5.572   1.745
13428TIP3    H140225   7.168   5.498   1.718
13428TIP3    H240226   7.208   5.578   1.840
13429TIP3   OH240227   6.292   3.234   0.051
13429TIP3    H140228   6.380   3.213   0.083
13429TIP3    H240229   6.254   3.149   0.027
13430TIP3   OH240230   4.876   4.564   0.122
13430TIP3    H140231   4.833   4.497   0.069
13430TIP3    H240232   4.934   4.516   0.181
13431TIP3   OH240233   5.837   2.528   1.685
13431TIP3    H140234   5.745   2.514   1.705
13431TIP3    H240235   5.868   2.588   1.754
13432TIP3   OH240236   5.803   0.597   2.575
13432TIP3    H140237   5.873   0.544   2.612
13432TIP3    H240238   5.731   0.591   2.638
13433TIP3   OH240239   7.350   3.811   2.917
13433TIP3    H140240   7.357   3.904   2.893
13433TIP3    H240241   7.257   3.791   2.907
13434TIP3   OH240242   0.347   2.862   0.676
13434TIP3    H140243   0.348   2.804   0.752
13434TIP3    H240244   0.265   2.911   0.685
13435TIP3   OH240245   3.327   1.851   0.505
13435TIP3    H140246   3.384   1.895   0.569
13435TIP3    H240247   3.372   1.769   0.484
13436TIP3   OH240248   5.040   2.800   2.674
13436TIP3    H140249   5.052   2.867   2.741
13436TIP3    H240250   5.121   2.750   2.674
13437TIP3   OH240251   4.668   3.502   3.294
13437TIP3    H140252   4.598   3.567   3.288
13437TIP3    H240253   4.736   3.546   3.346
13438TIP3   OH240254   1.456   4.493   2.372
13438TIP3    H140255   1.396   4.528   2.305
13438TIP3    H240256   1.463   4.563   2.436
13439TIP3   OH240257   6.580   5.663   0.527
13439TIP3    H140258   6.509   5.613   0.487
13439TIP3    H240259   6.551   5.678   0.617
13440TIP3   OH240260   1.037   2.421   2.850
13440TIP3    H140261   1.122   2.398   2.813
13440TIP3    H240262   0.984   2.342   2.840
13441TIP3   OH240263   2.344   0.026   2.870
13441TIP3    H140264   2.270   0.085   2.853
13441TIP3    H240265   2.311  -0.061   2.848
13442TIP3   OH240266   3.250   5.565   4.334
13442TIP3    H140267   3.220   5.598   4.249
13442TIP3    H240268   3.228   5.472   4.333
13443TIP3   OH240269   6.262   7.475   2.495
13443TIP3    H140270   6.337   7.420   2.517
13443TIP3    H240271   6.295   7.564   2.505
13444TIP3   OH240272   0.332   5.295   2.532
13444TIP3    H140273   0.280   5.326   2.457
13444TIP3    H240274   0.274   5.234   2.577
13445TIP3   OH240275   0.823   0.899   2.180
13445TIP3    H140276   0.754   0.859   2.232
13445TIP3    H240277   0.902   0.888   2.233
13446TIP3   OH240278   0.692   0.709   5.758
13446TIP3    H140279   0.690   0.749   5.671
13446TIP3    H240280   0.684   0.783   5.819
13447TIP3   OH240281   3.506   5.103   5.045
13447TIP3    H140282   3.542   5.133   5.129
13447TIP3    H240283   3.581   5.100   4.986
13448TIP3   OH240284   4.743   1.321   5.727
13448TIP3    H140285   4.774   1.377   5.655
13448TIP3    H240286   4.815   1.259   5.742
13449TIP3   OH240287   1.961   4.982   1.388
13449TIP3    H140288   2.050   4.970   1.357
13449TIP3    H240289   1.909   4.917   1.340
13450TIP3   OH240290   2.523   4.795   4.936
13450TIP3    H140291   2.576   4.788   4.857
13450TIP3    H240292   2.562   4.731   4.996
13451TIP3   OH240293   4.110   0.890   4.921
13451TIP3    H140294   4.123   0.891   5.016
13451TIP3    H240295   4.156   0.968   4.890
13452TIP3   OH240296   4.146   3.151   5.220
13452TIP3    H140297   4.050   3.151   5.211
13452TIP3    H240298   4.168   3.239   5.251
13453TIP3   OH240299   2.219   1.391   0.303
13453TIP3    H140300   2.261   1.327   0.361
13453TIP3    H240301   2.292   1.437   0.261
13454TIP3   OH240302   8.032   6.551   1.748
13454TIP3    H140303   8.081   6.472   1.727
13454TIP3    H240304   8.092   6.623   1.729
13455TIP3   OH240305   3.374   1.535   2.351
13455TIP3    H140306   3.341   1.460   2.302
13455TIP3    H240307   3.462   1.550   2.316
13456TIP3   OH240308   3.415   7.097   5.913
13456TIP3    H140309   3.375   7.015   5.941
13456TIP3    H240310   3.509   7.076   5.906
13457TIP3   OH240311   5.071   1.134   2.947
13457TIP3    H140312   5.167   1.142   2.944
13457TIP3    H240313   5.052   1.109   3.038
13458TIP3   OH240314   8.378   4.787   1.262
13458TIP3    H140315   8.404   4.719   1.199
13458TIP3    H240316   8.307   4.747   1.312
13459TIP3   OH240317   5.032   0.518   4.965
13459TIP3    H140318   5.116   0.539   5.006
13459TIP3    H240319   4.967   0.548   5.028
13460TIP3   OH240320   0.989   0.364   1.041
13460TIP3    H140321   0.985   0.297   1.109
13460TIP3    H240322   1.050   0.329   0.977
13461TIP3   OH240323   0.395   3.188   5.454
13461TIP3    H140324   0.313   3.150   5.486
13461TIP3    H240325   0.446   3.206   5.533
13462TIP3   OH240326   4.534   2.519   1.084
13462TIP3    H140327   4.561   2.428   1.088
13462TIP3    H240328   4.510   2.533   0.992
13463TIP3   OH240329   3.016   6.406   6.810
13463TIP3    H140330   3.002   6.311   6.811
13463TIP3    H240331   3.043   6.428   6.899
13464TIP3   OH240332   2.146   1.703   4.438
13464TIP3    H140333   2.172   1.786   4.477
13464TIP3    H240334   2.113   1.651   4.511
13465TIP3   OH240335   0.992   4.646   1.111
13465TIP3    H140336   1.051   4.658   1.037
13465TIP3    H240337   1.022   4.567   1.154
13466TIP3   OH240338   4.891   6.889   2.675
13466TIP3    H140339   4.860   6.907   2.586
13466TIP3    H240340   4.892   6.793   2.681
13467TIP3   OH240341   3.091   2.077   4.484
13467TIP3    H140342   3.165   2.030   4.445
13467TIP3    H240343   3.063   2.138   4.416
13468TIP3   OH240344   2.126   2.630   3.741
13468TIP3    H140345   2.186   2.607   3.670
13468TIP3    H240346   2.182   2.661   3.811
13469TIP3   OH240347   4.287   1.551   0.119
13469TIP3    H140348   4.224   1.612   0.082
13469TIP3    H240349   4.284   1.475   0.061
13470TIP3   OH240350   7.413   5.865   4.278
13470TIP3    H140351   7.384   5.882   4.188
13470TIP3    H240352   7.505   5.893   4.279
13471TIP3   OH240353   0.411   0.824   0.853
13471TIP3    H140354   0.383   0.915   0.846
13471TIP3    H240355   0.498   0.823   0.814
13472TIP3   OH240356   7.235   6.982   2.274
13472TIP3    H140357   7.210   6.912   2.214
13472TIP3    H240358   7.196   6.957   2.358
13473TIP3   OH240359   3.548   1.468   4.094
13473TIP3    H140360   3.457   1.445   4.076
13473TIP3    H240361   3.596   1.440   4.016
13474TIP3   OH240362   3.934   1.139   2.707
13474TIP3    H140363   3.997   1.070   2.687
13474TIP3    H240364   3.874   1.099   2.769
13475TIP3   OH240365   2.538   2.318   1.865
13475TIP3    H140366   2.587   2.370   1.928
13475TIP3    H240367   2.446   2.335   1.886
13476TIP3   OH240368   6.707   4.253   1.925
13476TIP3    H140369   6.648   4.177   1.926
13476TIP3    H240370   6.690   4.297   2.008
13477TIP3   OH240371   1.296   7.801   5.808
13477TIP3    H140372   1.350   7.878   5.824
13477TIP3    H240373   1.309   7.782   5.715
13478TIP3   OH240374   7.356   4.059   0.632
13478TIP3    H140375   7.268   4.095   0.621
13478TIP3    H240376   7.365   4.046   0.726
13479TIP3   OH240377   8.269   5.093   1.465
13479TIP3    H140378   8.195   5.040   1.497
13479TIP3    H240379   8.345   5.036   1.475
13480TIP3   OH240380   8.082   0.644   0.768
13480TIP3    H140381   7.996   0.644   0.811
13480TIP3    H240382   8.120   0.729   0.790
13481TIP3   OH240383   4.079   3.251   3.158
13481TIP3    H140384   4.072   3.166   3.114
13481TIP3    H240385   4.173   3.272   3.154
13482TIP3   OH240386   2.394   4.303   5.351
13482TIP3    H140387   2.426   4.317   5.440
13482TIP3    H240388   2.347   4.220   5.355
13483TIP3   OH240389   6.195   2.850   1.345
13483TIP3    H140390   6.257   2.911   1.383
13483TIP3    H240391   6.243   2.809   1.273
13484TIP3   OH240392   0.145   1.048   3.690
13484TIP3    H140393   0.220   1.057   3.749
13484TIP3    H240394   0.115   1.137   3.675
13485TIP3   OH240395   0.483   3.279   2.339
13485TIP3    H140396   0.470   3.372   2.325
13485TIP3    H240397   0.490   3.270   2.435
13486TIP3   OH240398   7.269   6.295   5.304
13486TIP3    H140399   7.226   6.233   5.364
13486TIP3    H240400   7.241   6.266   5.217
13487TIP3   OH240401   2.278   2.263   1.937
13487TIP3    H140402   2.208   2.247   1.873
13487TIP3    H240403   2.237   2.246   2.022
13488TIP3   OH240404   6.895   3.136   0.358
13488TIP3    H140405   6.950   3.149   0.281
13488TIP3    H240406   6.954   3.103   0.425
13489TIP3   OH240407   6.793   0.850   3.881
13489TIP3    H140408   6.825   0.811   3.963
13489TIP3    H240409   6.748   0.929   3.909
13490TIP3   OH240410   1.282   0.690   5.877
13490TIP3    H140411   1.364   0.713   5.834
13490TIP3    H240412   1.216   0.745   5.835
13491TIP3   OH240413   3.465   1.486   3.658
13491TIP3    H140414   3.501   1.455   3.575
13491TIP3    H240415   3.423   1.408   3.696
13492TIP3   OH240416   3.546   0.479   5.810
13492TIP3    H140417   3.635   0.448   5.799
13492TIP3    H240418   3.500   0.406   5.852
13493TIP3   OH240419   7.247   5.019   0.510
13493TIP3    H140420   7.160   5.050   0.534
13493TIP3    H240421   7.307   5.079   0.553
13494TIP3   OH240422   7.609   5.302   2.187
13494TIP3    H140423   7.518   5.303   2.157
13494TIP3    H240424   7.660   5.329   2.111
13495TIP3   OH240425   5.692   3.913   2.532
13495TIP3    H140426   5.732   3.835   2.492
13495TIP3    H240427   5.683   3.975   2.460
13496TIP3   OH240428   7.889   3.774   0.227
13496TIP3    H140429   7.961   3.811   0.280
13496TIP3    H240430   7.884   3.831   0.151
13497TIP3   OH240431   7.191   6.171   5.985
13497TIP3    H140432   7.279   6.203   6.000
13497TIP3    H240433   7.190   6.144   5.893
13498TIP3   OH240434   7.511   1.040   0.731
13498TIP3    H140435   7.485   0.999   0.814
13498TIP3    H240436   7.480   0.980   0.664
13499TIP3   OH240437   4.931   1.507   3.087
13499TIP3    H140438   4.857   1.517   3.147
13499TIP3    H240439   4.922   1.579   3.025
13500TIP3   OH240440   2.407   3.487   3.522
13500TIP3    H140441   2.378   3.435   3.597
13500TIP3    H240442   2.332   3.544   3.503
13501TIP3   OH240443   6.489   2.073   4.727
13501TIP3    H140444   6.544   2.141   4.687
13501TIP3    H240445   6.457   2.113   4.808
13502TIP3   OH240446   5.231   3.855   5.562
13502TIP3    H140447   5.231   3.777   5.506
13502TIP3    H240448   5.175   3.832   5.635
13503TIP3   OH240449   2.275   4.484   0.499
13503TIP3    H140450   2.363   4.508   0.529
13503TIP3    H240451   2.287   4.403   0.450
13504TIP3   OH240452   6.817   6.153   1.385
13504TIP3    H140453   6.798   6.126   1.295
13504TIP3    H240454   6.740   6.127   1.435
13505TIP3   OH240455   7.281   4.331   2.779
13505TIP3    H140456   7.308   4.374   2.860
13505TIP3    H240457   7.205   4.279   2.804
13506TIP3   OH240458   7.161   1.068   3.558
13506TIP3    H140459   7.117   1.093   3.639
13506TIP3    H240460   7.138   0.976   3.546
13507TIP3   OH240461   6.964   4.338   0.970
13507TIP3    H140462   6.985   4.388   1.049
13507TIP3    H240463   6.868   4.331   0.971
13508TIP3   OH240464   7.752   5.697   4.661
13508TIP3    H140465   7.746   5.601   4.655
13508TIP3    H240466   7.666   5.724   4.694
13509TIP3   OH240467   6.420   4.001   2.814
13509TIP3    H140468   6.477   3.947   2.760
13509TIP3    H240469   6.331   3.975   2.788
13510TIP3   OH240470   1.701   5.818   5.610
13510TIP3    H140471   1.672   5.864   5.531
13510TIP3    H240472   1.683   5.878   5.681
13511TIP3   OH240473   2.611   3.270   0.547
13511TIP3    H140474   2.572   3.357   0.536
13511TIP3    H240475   2.701   3.288   0.576
13512TIP3   OH240476   6.672   4.844   5.264
13512TIP3    H140477   6.662   4.853   5.359
13512TIP3    H240478   6.748   4.898   5.242
13513TIP3   OH240479   5.847   6.244   6.265
13513TIP3    H140480   5.829   6.299   6.341
13513TIP3    H240481   5.878   6.306   6.198
13514TIP3   OH240482   1.927   2.371   2.828
13514TIP3    H140483   1.910   2.300   2.766
13514TIP3    H240484   1.946   2.326   2.910
13515TIP3   OH240485   6.839   2.306   6.522
13515TIP3    H140486   6.748   2.318   6.494
13515TIP3    H240487   6.842   2.342   6.611
13516TIP3   OH240488   0.878   5.979   5.062
13516TIP3    H140489   0.783   5.990   5.061
13516TIP3    H240490   0.911   6.064   5.090
13517TIP3   OH240491   1.020   5.141   6.582
13517TIP3    H140492   0.993   5.150   6.673
13517TIP3    H240493   0.989   5.054   6.557
13518TIP3   OH240494   4.997   5.515   6.832
13518TIP3    H140495   4.991   5.473   6.746
13518TIP3    H240496   5.091   5.530   6.845
13519TIP3   OH240497  -0.002   3.099   2.155
13519TIP3    H140498   0.039   3.018   2.125
13519TIP3    H240499   0.071   3.159   2.169
13520TIP3   OH240500   6.437   3.312   5.354
13520TIP3    H140501   6.450   3.285   5.445
13520TIP3    H240502   6.390   3.395   5.359
13521TIP3   OH240503   6.360   3.972   0.173
13521TIP3    H140504   6.291   3.926   0.126
13521TIP3    H240505   6.321   4.054   0.201
13522TIP3   OH240506   6.757   4.833   2.066
13522TIP3    H140507   6.845   4.845   2.103
13522TIP3    H240508   6.765   4.864   1.975
13523TIP3   OH240509   7.198   1.360   5.293
13523TIP3    H140510   7.180   1.325   5.206
13523TIP3    H240511   7.248   1.441   5.277
13524TIP3   OH240512   1.758   0.326   6.360
13524TIP3    H140513   1.778   0.270   6.284
13524TIP3    H240514   1.663   0.321   6.369
13525TIP3   OH240515   3.555   4.336   5.285
13525TIP3    H140516   3.626   4.311   5.343
13525TIP3    H240517   3.522   4.254   5.249
13526TIP3   OH240518   4.767   7.434   2.125
13526TIP3    H140519   4.761   7.343   2.153
13526TIP3    H240520   4.845   7.468   2.169
13527TIP3   OH240521   5.334   5.083   0.098
13527TIP3    H140522   5.418   5.128   0.103
13527TIP3    H240523   5.273   5.150   0.065
13528TIP3   OH240524   6.587   7.515   0.053
13528TIP3    H140525   6.682   7.508   0.055
13528TIP3    H240526   6.561   7.508   0.145
13529TIP3   OH240527   8.013   7.153   5.308
13529TIP3    H140528   8.023   7.206   5.387
13529TIP3    H240529   8.102   7.144   5.274
13530TIP3   OH240530   5.936   6.258   4.127
13530TIP3    H140531   5.973   6.186   4.077
13530TIP3    H240532   5.975   6.251   4.214
13531TIP3   OH240533   4.475   0.824   6.399
13531TIP3    H140534   4.479   0.802   6.306
13531TIP3    H240535   4.384   0.849   6.414
13532TIP3   OH240536   0.217   4.245   4.771
13532TIP3    H140537   0.163   4.324   4.770
13532TIP3    H240538   0.196   4.202   4.854
13533TIP3   OH240539   6.464   2.230   4.186
13533TIP3    H140540   6.418   2.150   4.211
13533TIP3    H240541   6.556   2.212   4.205
13534TIP3   OH240542   0.876   5.288   0.284
13534TIP3    H140543   0.919   5.352   0.341
13534TIP3    H240544   0.949   5.241   0.243
13535TIP3   OH240545   1.966   3.386   6.182
13535TIP3    H140546   1.981   3.379   6.087
13535TIP3    H240547   2.033   3.329   6.220
13536TIP3   OH240548   7.234   2.333   3.122
13536TIP3    H140549   7.241   2.338   3.217
13536TIP3    H240550   7.207   2.421   3.095
13537TIP3   OH240551   8.065   0.447   4.177
13537TIP3    H140552   8.082   0.353   4.172
13537TIP3    H240553   7.987   0.455   4.233
13538TIP3   OH240554   0.585   3.961   5.274
13538TIP3    H140555   0.527   3.974   5.199
13538TIP3    H240556   0.634   3.882   5.253
13539TIP3   OH240557   3.989   4.018   2.323
13539TIP3    H140558   4.030   4.071   2.254
13539TIP3    H240559   4.048   4.026   2.398
13540TIP3   OH240560   6.909   2.901   4.610
13540TIP3    H140561   6.926   2.839   4.539
13540TIP3    H240562   6.856   2.853   4.672
13541TIP3   OH240563   6.952   7.645   1.791
13541TIP3    H140564   7.043   7.618   1.777
13541TIP3    H240565   6.901   7.565   1.774
13542TIP3   OH240566   6.238   3.619   5.705
13542TIP3    H140567   6.146   3.607   5.686
13542TIP3    H240568   6.247   3.592   5.797
13543TIP3   OH240569   1.287   3.889   6.167
13543TIP3    H140570   1.349   3.944   6.119
13543TIP3    H240571   1.342   3.838   6.227
13544TIP3   OH240572   4.063   2.163   3.353
13544TIP3    H140573   4.006   2.152   3.277
13544TIP3    H240574   4.004   2.157   3.428
13545TIP3   OH240575   3.744   7.526   2.545
13545TIP3    H140576   3.661   7.512   2.498
13545TIP3    H240577   3.717   7.555   2.632
13546TIP3   OH240578   0.067   7.281   1.199
13546TIP3    H140579   0.133   7.339   1.161
13546TIP3    H240580   0.114   7.236   1.270
13547TIP3   OH240581   1.682   2.884   1.226
13547TIP3    H140582   1.759   2.924   1.185
13547TIP3    H240583   1.683   2.919   1.315
13548TIP3   OH240584   3.659   6.081   3.072
13548TIP3    H140585   3.618   6.152   3.022
13548TIP3    H240586   3.586   6.033   3.111
13549TIP3   OH240587   6.332   5.310   0.155
13549TIP3    H140588   6.322   5.289   0.062
13549TIP3    H240589   6.271   5.382   0.170
13550TIP3   OH240590   1.203   5.214   5.470
13550TIP3    H140591   1.150   5.157   5.527
13550TIP3    H240592   1.207   5.298   5.517
13551TIP3   OH240593   4.969   6.395   3.073
13551TIP3    H140594   4.924   6.379   3.156
13551TIP3    H240595   4.915   6.350   3.007
13552TIP3   OH240596   2.719   7.916   6.198
13552TIP3    H140597   2.639   7.941   6.243
13552TIP3    H240598   2.690   7.861   6.125
13553TIP3   OH240599   2.942   2.443   2.135
13553TIP3    H140600   2.915   2.427   2.226
13553TIP3    H240601   2.939   2.357   2.094
13554TIP3   OH240602   4.178   7.335   1.541
13554TIP3    H140603   4.166   7.403   1.608
13554TIP3    H240604   4.095   7.334   1.493
13555TIP3   OH240605   3.457   0.332   1.344
13555TIP3    H140606   3.515   0.378   1.404
13555TIP3    H240607   3.514   0.268   1.300
13556TIP3   OH240608   1.529   6.380   2.332
13556TIP3    H140609   1.476   6.443   2.381
13556TIP3    H240610   1.495   6.294   2.360
13557TIP3   OH240611   5.841   2.812   4.952
13557TIP3    H140612   5.774   2.753   4.988
13557TIP3    H240613   5.903   2.753   4.909
13558TIP3   OH240614   2.721   6.264   2.326
13558TIP3    H140615   2.643   6.245   2.379
13558TIP3    H240616   2.780   6.310   2.386
13559TIP3   OH240617   8.095   3.864   0.356
13559TIP3    H140618   8.127   3.786   0.402
13559TIP3    H240619   8.175   3.911   0.331
13560TIP3   OH240620   3.495   7.466   3.812
13560TIP3    H140621   3.563   7.518   3.855
13560TIP3    H240622   3.527   7.454   3.723
13561TIP3   OH240623   1.237   5.396   6.651
13561TIP3    H140624   1.279   5.470   6.696
13561TIP3    H240625   1.159   5.435   6.610
13562TIP3   OH240626   3.794   5.145   1.625
13562TIP3    H140627   3.731   5.093   1.674
13562TIP3    H240628   3.872   5.090   1.620
13563TIP3   OH240629   6.847   7.905   5.146
13563TIP3    H140630   6.757   7.929   5.122
13563TIP3    H240631   6.846   7.810   5.149
13564TIP3   OH240632   6.081   3.400   4.646
13564TIP3    H140633   6.026   3.437   4.715
13564TIP3    H240634   6.146   3.347   4.692
13565TIP3   OH240635   2.969   3.065   5.069
13565TIP3    H140636   3.021   3.055   4.989
13565TIP3    H240637   2.892   3.011   5.054
13566TIP3   OH240638   4.591   0.689   1.912
13566TIP3    H140639   4.684   0.712   1.916
13566TIP3    H240640   4.572   0.649   1.997
13567TIP3   OH240641   4.732   4.687   5.706
13567TIP3    H140642   4.679   4.672   5.784
13567TIP3    H240643   4.819   4.654   5.729
13568TIP3   OH240644   3.274   7.480   3.282
13568TIP3    H140645   3.350   7.475   3.340
13568TIP3    H240646   3.199   7.486   3.341
13569TIP3   OH240647   7.944   3.853   5.410
13569TIP3    H140648   7.935   3.798   5.333
13569TIP3    H240649   7.913   3.799   5.482
13570TIP3   OH240650   7.756   4.226   5.106
13570TIP3    H140651   7.689   4.291   5.128
13570TIP3    H240652   7.710   4.143   5.108
13571TIP3   OH240653   1.835   1.781   2.809
13571TIP3    H140654   1.830   1.767   2.903
13571TIP3    H240655   1.928   1.793   2.791
13572TIP3   OH240656   7.603   7.087   5.926
13572TIP3    H140657   7.627   7.159   5.984
13572TIP3    H240658   7.624   7.008   5.976
13573TIP3   OH240659   2.171   6.362   4.941
13573TIP3    H140660   2.223   6.425   4.891
13573TIP3    H240661   2.102   6.415   4.982
13574TIP3   OH240662   4.303   6.648   4.255
13574TIP3    H140663   4.364   6.592   4.305
13574TIP3    H240664   4.342   6.653   4.168
13575TIP3   OH240665   3.311   3.728   5.100
13575TIP3    H140666   3.338   3.657   5.159
13575TIP3    H240667   3.385   3.739   5.040
13576TIP3   OH240668   1.346   7.524   5.328
13576TIP3    H140669   1.362   7.562   5.242
13576TIP3    H240670   1.261   7.559   5.355
13577TIP3   OH240671   5.730   2.963   0.958
13577TIP3    H140672   5.805   2.977   0.900
13577TIP3    H240673   5.683   3.046   0.957
13578TIP3   OH240674   7.265   6.264   3.699
13578TIP3    H140675   7.343   6.209   3.690
13578TIP3    H240676   7.218   6.252   3.617
13579TIP3   OH240677   4.195   2.356   0.589
13579TIP3    H140678   4.101   2.354   0.569
13579TIP3    H240679   4.212   2.447   0.615
13580TIP3   OH240680   1.902   3.469   3.262
13580TIP3    H140681   1.947   3.429   3.188
13580TIP3    H240682   1.885   3.395   3.322
13581TIP3   OH240683   2.597   5.184   3.626
13581TIP3    H140684   2.673   5.170   3.569
13581TIP3    H240685   2.607   5.119   3.696
13582TIP3   OH240686   0.130   0.968   0.600
13582TIP3    H140687   0.170   0.951   0.515
13582TIP3    H240688   0.199   1.014   0.649
13583TIP3   OH240689   5.108   0.222   6.020
13583TIP3    H140690   5.104   0.220   5.925
13583TIP3    H240691   5.052   0.151   6.049
13584TIP3   OH240692   4.813   1.772   3.199
13584TIP3    H140693   4.873   1.784   3.126
13584TIP3    H240694   4.774   1.686   3.184
13585TIP3   OH240695   7.989   2.366   6.141
13585TIP3    H140696   8.040   2.301   6.190
13585TIP3    H240697   8.050   2.399   6.075
13586TIP3   OH240698   7.106   0.904   2.253
13586TIP3    H140699   7.114   0.950   2.337
13586TIP3    H240700   7.175   0.943   2.198
13587TIP3   OH240701   4.170   6.522   6.679
13587TIP3    H140702   4.104   6.456   6.700
13587TIP3    H240703   4.252   6.484   6.711
13588TIP3   OH240704   0.862   6.434   3.432
13588TIP3    H140705   0.946   6.453   3.389
13588TIP3    H240706   0.803   6.504   3.403
13589TIP3   OH240707   5.385   2.731   2.344
13589TIP3    H140708   5.447   2.771   2.283
13589TIP3    H240709   5.359   2.803   2.402
13590TIP3   OH240710   1.268   7.931   1.304
13590TIP3    H140711   1.326   7.856   1.293
13590TIP3    H240712   1.281   7.958   1.395
13591TIP3   OH240713   7.726   3.140   4.496
13591TIP3    H140714   7.734   3.233   4.520
13591TIP3    H240715   7.810   3.102   4.522
13592TIP3   OH240716   6.840   5.430   5.498
13592TIP3    H140717   6.823   5.479   5.418
13592TIP3    H240718   6.917   5.472   5.535
13593TIP3   OH240719   2.469   5.184   0.233
13593TIP3    H140720   2.516   5.268   0.232
13593TIP3    H240721   2.384   5.205   0.194
13594TIP3   OH240722   3.470   6.995   5.602
13594TIP3    H140723   3.464   6.900   5.593
13594TIP3    H240724   3.541   7.009   5.665
13595TIP3   OH240725   2.451   7.364   6.555
13595TIP3    H140726   2.507   7.292   6.583
13595TIP3    H240727   2.511   7.428   6.517
13596TIP3   OH240728   0.430   6.945   5.453
13596TIP3    H140729   0.468   7.005   5.517
13596TIP3    H240730   0.468   6.860   5.475
13597TIP3   OH240731   1.135   3.440   3.885
13597TIP3    H140732   1.130   3.479   3.797
13597TIP3    H240733   1.229   3.423   3.897
13598TIP3   OH240734   7.973   2.424   0.782
13598TIP3    H140735   7.899   2.363   0.787
13598TIP3    H240736   8.016   2.417   0.867
13599TIP3   OH240737   3.369   5.862   3.080
13599TIP3    H140738   3.381   5.867   3.175
13599TIP3    H240739   3.302   5.929   3.062
13600TIP3   OH240740   1.877   0.298   0.995
13600TIP3    H140741   1.890   0.346   1.077
13600TIP3    H240742   1.955   0.245   0.985
13601TIP3   OH240743   8.256   2.829   5.876
13601TIP3    H140744   8.213   2.746   5.857
13601TIP3    H240745   8.349   2.811   5.865
13602TIP3   OH240746   3.857   4.440   5.976
13602TIP3    H140747   3.893   4.470   5.893
13602TIP3    H240748   3.904   4.358   5.994
13603TIP3   OH240749   6.617   0.621   6.397
13603TIP3    H140750   6.569   0.646   6.475
13603TIP3    H240751   6.645   0.531   6.413
13604TIP3   OH240752   4.982   6.167   5.618
13604TIP3    H140753   5.041   6.165   5.543
13604TIP3    H240754   4.957   6.075   5.631
13605TIP3   OH240755   8.093   0.343   2.297
13605TIP3    H140756   8.101   0.322   2.204
13605TIP3    H240757   8.024   0.409   2.301
13606TIP3   OH240758   4.253   5.503   6.744
13606TIP3    H140759   4.297   5.506   6.659
13606TIP3    H240760   4.188   5.433   6.735
13607TIP3   OH240761   0.579   6.984   4.452
13607TIP3    H140762   0.624   6.900   4.447
13607TIP3    H240763   0.613   7.034   4.378
13608TIP3   OH240764   0.596   2.096   3.171
13608TIP3    H140765   0.648   2.016   3.163
13608TIP3    H240766   0.529   2.074   3.236
13609TIP3   OH240767   0.690   5.407   2.813
13609TIP3    H140768   0.599   5.417   2.843
13609TIP3    H240769   0.684   5.350   2.736
13610TIP3   OH240770   2.539   4.441   0.107
13610TIP3    H140771   2.545   4.408   0.197
13610TIP3    H240772   2.505   4.530   0.117
13611TIP3   OH240773   2.354   4.566   5.990
13611TIP3    H140774   2.276   4.528   6.029
13611TIP3    H240775   2.348   4.660   6.008
13612TIP3   OH240776   2.972   4.835   2.246
13612TIP3    H140777   2.952   4.887   2.168
13612TIP3    H240778   2.898   4.775   2.255
13613TIP3   OH240779   2.832   4.610   3.774
13613TIP3    H140780   2.864   4.520   3.765
13613TIP3    H240781   2.756   4.615   3.716
13614TIP3   OH240782   0.325   2.048   4.711
13614TIP3    H140783   0.395   2.099   4.671
13614TIP3    H240784   0.365   1.963   4.731
13615TIP3   OH240785   5.745   6.475   2.559
13615TIP3    H140786   5.767   6.558   2.515
13615TIP3    H240787   5.663   6.494   2.604
13616TIP3   OH240788   8.078   0.413   2.035
13616TIP3    H140789   8.156   0.468   2.030
13616TIP3    H240790   8.085   0.353   1.960
13617TIP3   OH240791   0.823   3.952   0.026
13617TIP3    H140792   0.900   3.910  -0.013
13617TIP3    H240793   0.761   3.881   0.038
13618TIP3   OH240794   2.639   0.880   4.409
13618TIP3    H140795   2.583   0.907   4.336
13618TIP3    H240796   2.647   0.785   4.400
13619TIP3   OH240797   4.734   3.516   0.179
13619TIP3    H140798   4.812   3.482   0.224
13619TIP3    H240799   4.748   3.495   0.087
13620TIP3   OH240800   1.682   6.991   4.622
13620TIP3    H140801   1.589   6.987   4.643
13620TIP3    H240802   1.701   7.085   4.616
13621TIP3   OH240803   4.893   5.277   1.843
13621TIP3    H140804   4.824   5.255   1.780
13621TIP3    H240805   4.975   5.256   1.797
13622TIP3   OH240806   2.690   2.124   5.351
13622TIP3    H140807   2.731   2.046   5.314
13622TIP3    H240808   2.758   2.163   5.406
13623TIP3   OH240809   0.828   5.414   3.161
13623TIP3    H140810   0.770   5.343   3.189
13623TIP3    H240811   0.826   5.477   3.232
13624TIP3   OH240812   1.582   1.314   0.948
13624TIP3    H140813   1.511   1.357   0.995
13624TIP3    H240814   1.539   1.265   0.878
13625TIP3   OH240815   6.009   0.104   0.195
13625TIP3    H140816   5.945   0.106   0.267
13625TIP3    H240817   6.020   0.195   0.170
13626TIP3   OH240818   7.707   5.374   5.477
13626TIP3    H140819   7.689   5.446   5.416
13626TIP3    H240820   7.729   5.300   5.420
13627TIP3   OH240821   5.318   7.834   4.751
13627TIP3    H140822   5.391   7.783   4.715
13627TIP3    H240823   5.286   7.885   4.676
13628TIP3   OH240824   2.249   7.798   1.872
13628TIP3    H140825   2.285   7.792   1.960
13628TIP3    H240826   2.256   7.891   1.849
13629TIP3   OH240827   2.309   6.821   3.824
13629TIP3    H140828   2.239   6.875   3.861
13629TIP3    H240829   2.356   6.788   3.901
13630TIP3   OH240830   4.512   2.504   2.733
13630TIP3    H140831   4.495   2.460   2.816
13630TIP3    H240832   4.584   2.455   2.694
13631TIP3   OH240833   0.480   6.755   1.125
13631TIP3    H140834   0.404   6.706   1.091
13631TIP3    H240835   0.546   6.688   1.141
13632TIP3   OH240836   4.957   0.925   3.839
13632TIP3    H140837   4.891   0.973   3.789
13632TIP3    H240838   4.946   0.834   3.812
13633TIP3   OH240839   8.188   5.893   4.979
13633TIP3    H140840   8.107   5.882   5.030
13633TIP3    H240841   8.202   5.988   4.978
13634TIP3   OH240842   0.534   0.331   1.509
13634TIP3    H140843   0.622   0.315   1.474
13634TIP3    H240844   0.475   0.295   1.443
13635TIP3   OH240845   5.212   0.470   6.433
13635TIP3    H140846   5.168   0.386   6.449
13635TIP3    H240847   5.141   0.530   6.410
13636TIP3   OH240848   7.875   3.940   4.057
13636TIP3    H140849   7.791   3.976   4.086
13636TIP3    H240850   7.854   3.893   3.977
13637TIP3   OH240851   6.612   6.253   6.742
13637TIP3    H140852   6.569   6.209   6.816
13637TIP3    H240853   6.701   6.271   6.773
13638TIP3   OH240854   2.808   1.017   2.915
13638TIP3    H140855   2.752   1.043   2.988
13638TIP3    H240856   2.746   0.997   2.844
13639TIP3   OH240857   4.649   0.492   6.760
13639TIP3    H140858   4.597   0.453   6.830
13639TIP3    H240859   4.655   0.423   6.694
13640TIP3   OH240860   6.379   4.907   5.267
13640TIP3    H140861   6.303   4.918   5.210
13640TIP3    H240862   6.435   4.844   5.221
13641TIP3   OH240863   0.961   0.084   6.346
13641TIP3    H140864   1.030   0.022   6.321
13641TIP3    H240865   0.879   0.037   6.330
13642TIP3   OH240866   1.195   6.591   0.857
13642TIP3    H140867   1.112   6.544   0.849
13642TIP3    H240868   1.241   6.547   0.928
13643TIP3   OH240869   4.897   0.482   0.549
13643TIP3    H140870   4.882   0.389   0.531
13643TIP3    H240871   4.992   0.490   0.557
13644TIP3   OH240872   7.476   4.110   6.697
13644TIP3    H140873   7.396   4.155   6.671
13644TIP3    H240874   7.537   4.128   6.626
13645TIP3   OH240875   4.188   3.218   4.335
13645TIP3    H140876   4.189   3.303   4.380
13645TIP3    H240877   4.096   3.199   4.320
13646TIP3   OH240878   5.368   5.389   4.890
13646TIP3    H140879   5.331   5.461   4.941
13646TIP3    H240880   5.295   5.355   4.839
13647TIP3   OH240881   6.051   7.660   3.983
13647TIP3    H140882   6.014   7.577   3.951
13647TIP3    H240883   5.994   7.686   4.055
13648TIP3   OH240884   7.294   7.328   3.678
13648TIP3    H140885   7.239   7.274   3.735
13648TIP3    H240886   7.334   7.391   3.737
13649TIP3   OH240887   5.387   2.463   1.791
13649TIP3    H140888   5.377   2.508   1.875
13649TIP3    H240889   5.461   2.505   1.749
13650TIP3   OH240890   3.974   4.211   1.792
13650TIP3    H140891   3.906   4.167   1.741
13650TIP3    H240892   3.937   4.297   1.814
13651TIP3   OH240893   1.427   0.229   0.394
13651TIP3    H140894   1.408   0.189   0.479
13651TIP3    H240895   1.418   0.158   0.331
13652TIP3   OH240896   6.554   4.110   6.508
13652TIP3    H140897   6.511   4.098   6.423
13652TIP3    H240898   6.639   4.149   6.487
13653TIP3   OH240899   7.135   4.879   6.590
13653TIP3    H140900   7.188   4.799   6.579
13653TIP3    H240901   7.136   4.896   6.684
13654TIP3   OH240902   0.311   6.975   1.114
13654TIP3    H140903   0.387   6.918   1.119
13654TIP3    H240904   0.340   7.050   1.062
13655TIP3   OH240905   6.694   3.180   4.984
13655TIP3    H140906   6.778   3.162   5.028
13655TIP3    H240907   6.631   3.185   5.055
13656TIP3   OH240908   5.362   2.709   4.999
13656TIP3    H140909   5.453   2.712   5.029
13656TIP3    H240910   5.325   2.631   5.042
13657TIP3   OH240911   2.996   0.956   3.515
13657TIP3    H140912   3.078   1.006   3.518
13657TIP3    H240913   3.009   0.893   3.444
13658TIP3   OH240914   7.498   2.022   0.375
13658TIP3    H140915   7.568   2.003   0.437
13658TIP3    H240916   7.432   1.955   0.391
13659TIP3   OH240917   8.042   5.353   4.482
13659TIP3    H140918   8.015   5.443   4.465
13659TIP3    H240919   8.131   5.360   4.515
13660TIP3   OH240920   7.936   0.870   0.043
13660TIP3    H140921   7.906   0.902  -0.042
13660TIP3    H240922   7.980   0.945   0.083
13661TIP3   OH240923   6.474   0.711   4.165
13661TIP3    H140924   6.466   0.707   4.069
13661TIP3    H240925   6.536   0.641   4.187
13662TIP3   OH240926   7.182   6.075   2.780
13662TIP3    H140927   7.189   6.130   2.701
13662TIP3    H240928   7.098   6.100   2.818
13663TIP3   OH240929   3.294   1.794   2.297
13663TIP3    H140930   3.313   1.701   2.300
13663TIP3    H240931   3.309   1.825   2.386
13664TIP3   OH240932   1.566   5.800   6.251
13664TIP3    H140933   1.557   5.887   6.288
13664TIP3    H240934   1.571   5.741   6.327
13665TIP3   OH240935   2.256   0.433   1.243
13665TIP3    H140936   2.255   0.509   1.184
13665TIP3    H240937   2.171   0.437   1.288
13666TIP3   OH240938   2.765   6.825   4.357
13666TIP3    H140939   2.675   6.809   4.386
13666TIP3    H240940   2.815   6.751   4.391
13667TIP3   OH240941   5.960   1.437   6.455
13667TIP3    H140942   5.974   1.348   6.422
13667TIP3    H240943   5.918   1.483   6.382
13668TIP3   OH240944   3.852   5.262   3.317
13668TIP3    H140945   3.764   5.283   3.288
13668TIP3    H240946   3.855   5.166   3.318
13669TIP3   OH240947   3.834   2.385   3.434
13669TIP3    H140948   3.920   2.428   3.435
13669TIP3    H240949   3.852   2.298   3.469
13670TIP3   OH240950   3.613   6.830  -0.048
13670TIP3    H140951   3.593   6.806   0.042
13670TIP3    H240952   3.687   6.890  -0.042
13671TIP3   OH240953   2.394   2.575   0.745
13671TIP3    H140954   2.383   2.588   0.650
13671TIP3    H240955   2.337   2.501   0.765
13672TIP3   OH240956   5.223   2.340   1.433
13672TIP3    H140957   5.153   2.383   1.481
13672TIP3    H240958   5.181   2.264   1.393
13673TIP3   OH240959   7.962   3.479   5.666
13673TIP3    H140960   7.892   3.465   5.730
13673TIP3    H240961   7.979   3.573   5.669
13674TIP3   OH240962   3.391   5.160   5.976
13674TIP3    H140963   3.336   5.085   5.999
13674TIP3    H240964   3.480   5.127   5.978
13675TIP3   OH240965   7.539   0.025   1.499
13675TIP3    H140966   7.552   0.104   1.552
13675TIP3    H240967   7.627  -0.010   1.485
13676TIP3   OH240968   0.474   0.853   1.793
13676TIP3    H140969   0.433   0.784   1.741
13676TIP3    H240970   0.553   0.877   1.744
13677TIP3   OH240971   5.482   0.153   4.245
13677TIP3    H140972   5.444   0.096   4.178
13677TIP3    H240973   5.454   0.241   4.221
13678TIP3   OH240974   2.949   2.131   1.722
13678TIP3    H140975   3.007   2.205   1.738
13678TIP3    H240976   2.911   2.147   1.636
13679TIP3   OH240977   5.758   2.579   0.239
13679TIP3    H140978   5.742   2.493   0.277
13679TIP3    H240979   5.824   2.563   0.171
13680TIP3   OH240980   8.366   2.307   4.572
13680TIP3    H140981   8.281   2.323   4.531
13680TIP3    H240982   8.429   2.335   4.506
13681TIP3   OH240983   0.514   4.297   5.036
13681TIP3    H140984   0.474   4.309   5.122
13681TIP3    H240985   0.458   4.348   4.977
13682TIP3   OH240986   5.469   7.556   0.779
13682TIP3    H140987   5.438   7.523   0.864
13682TIP3    H240988   5.494   7.477   0.731
13683TIP3   OH240989   0.460   5.957   2.166
13683TIP3    H140990   0.397   5.896   2.203
13683TIP3    H240991   0.425   6.043   2.186
13684TIP3   OH240992   1.971   6.143   5.021
13684TIP3    H140993   2.051   6.189   5.046
13684TIP3    H240994   1.996   6.096   4.941
13685TIP3   OH240995   1.228   6.090   0.297
13685TIP3    H140996   1.207   6.182   0.314
13685TIP3    H240997   1.162   6.041   0.344
13686TIP3   OH240998   6.766   3.232   1.456
13686TIP3    H140999   6.798   3.174   1.525
13686TIP3    H241000   6.672   3.240   1.473
13687TIP3   OH241001   8.310   5.816   5.754
13687TIP3    H141002   8.371   5.838   5.685
13687TIP3    H241003   8.358   5.758   5.812
13688TIP3   OH241004   2.800   6.555   5.858
13688TIP3    H141005   2.833   6.479   5.810
13688TIP3    H241006   2.788   6.622   5.791
13689TIP3   OH241007   5.033   4.644   6.825
13689TIP3    H141008   4.942   4.615   6.829
13689TIP3    H241009   5.073   4.607   6.904
13690TIP3   OH241010   5.473   2.151   0.774
13690TIP3    H141011   5.543   2.207   0.741
13690TIP3    H241012   5.439   2.106   0.697
13691TIP3   OH241013   2.862   2.745   0.083
13691TIP3    H141014   2.915   2.759   0.161
13691TIP3    H241015   2.810   2.667   0.103
13692TIP3   OH241016   2.318   3.153   4.601
13692TIP3    H141017   2.319   3.200   4.517
13692TIP3    H241018   2.334   3.062   4.576
13693TIP3   OH241019   2.303   6.214   4.632
13693TIP3    H141020   2.347   6.296   4.654
13693TIP3    H241021   2.343   6.187   4.549
13694TIP3   OH241022   6.038   3.806   4.511
13694TIP3    H141023   5.984   3.727   4.513
13694TIP3    H241024   6.124   3.777   4.541
13695TIP3   OH241025   5.425   4.778   0.007
13695TIP3    H141026   5.450   4.839   0.077
13695TIP3    H241027   5.487   4.796  -0.063
13696TIP3   OH241028   8.216   1.709   5.900
13696TIP3    H141029   8.166   1.630   5.880
13696TIP3    H241030   8.262   1.729   5.819
13697TIP3   OH241031   0.245   4.929   3.649
13697TIP3    H141032   0.181   4.996   3.677
13697TIP3    H241033   0.272   4.956   3.561
13698TIP3   OH241034   5.221   0.912   6.661
13698TIP3    H141035   5.278   0.858   6.606
13698TIP3    H241036   5.225   0.871   6.748
13699TIP3   OH241037   4.068   3.129   3.882
13699TIP3    H141038   4.131   3.102   3.948
13699TIP3    H241039   4.021   3.203   3.922
13700TIP3   OH241040   1.508   5.125   6.698
13700TIP3    H141041   1.483   5.136   6.789
13700TIP3    H241042   1.603   5.111   6.700
13701TIP3   OH241043   7.612   6.763   2.899
13701TIP3    H141044   7.566   6.680   2.893
13701TIP3    H241045   7.702   6.739   2.924
13702TIP3   OH241046   3.665   4.461   0.494
13702TIP3    H141047   3.652   4.439   0.402
13702TIP3    H241048   3.579   4.489   0.524
13703TIP3   OH241049   0.479   0.063   1.605
13703TIP3    H141050   0.440   0.106   1.529
13703TIP3    H241051   0.566   0.036   1.576
13704TIP3   OH241052   0.723   0.457   5.032
13704TIP3    H141053   0.803   0.511   5.031
13704TIP3    H241054   0.737   0.394   5.102
13705TIP3   OH241055   6.564   5.306   6.341
13705TIP3    H141056   6.506   5.230   6.341
13705TIP3    H241057   6.556   5.342   6.430
13706TIP3   OH241058   8.002   7.208   3.418
13706TIP3    H141059   8.018   7.118   3.447
13706TIP3    H241060   7.916   7.205   3.377
13707TIP3   OH241061   2.829   1.893   3.629
13707TIP3    H141062   2.813   1.843   3.548
13707TIP3    H241063   2.900   1.846   3.672
13708TIP3   OH241064   7.907   1.668   3.142
13708TIP3    H141065   7.912   1.623   3.227
13708TIP3    H241066   7.914   1.598   3.077
13709TIP3   OH241067   4.259   7.020   2.205
13709TIP3    H141068   4.309   7.101   2.190
13709TIP3    H241069   4.219   7.033   2.291
13710TIP3   OH241070   4.061   5.225   3.658
13710TIP3    H141071   4.081   5.316   3.636
13710TIP3    H241072   4.057   5.181   3.573
13711TIP3   OH241073   3.331   6.885   0.260
13711TIP3    H141074   3.267   6.898   0.329
13711TIP3    H241075   3.283   6.904   0.179
13712TIP3   OH241076   4.322   6.992   6.033
13712TIP3    H141077   4.246   6.934   6.030
13712TIP3    H241078   4.394   6.936   6.059
13713TIP3   OH241079   5.630   6.837   4.885
13713TIP3    H141080   5.575   6.790   4.949
13713TIP3    H241081   5.631   6.780   4.808
13714TIP3   OH241082   1.448   5.144   4.675
13714TIP3    H141083   1.541   5.163   4.682
13714TIP3    H241084   1.421   5.124   4.764
13715TIP3   OH241085   3.501   0.559   2.632
13715TIP3    H141086   3.480   0.590   2.544
13715TIP3    H241087   3.555   0.629   2.669
13716TIP3   OH241088   6.649   7.369   6.769
13716TIP3    H141089   6.593   7.401   6.840
13716TIP3    H241090   6.726   7.426   6.774
13717TIP3   OH241091   0.825   6.367   0.123
13717TIP3    H141092   0.855   6.436   0.182
13717TIP3    H241093   0.730   6.363   0.138
13718TIP3   OH241094   5.269   5.981   5.181
13718TIP3    H141095   5.314   6.060   5.150
13718TIP3    H241096   5.309   5.962   5.266
13719TIP3   OH241097   2.206   4.890   6.669
13719TIP3    H141098   2.181   4.953   6.602
13719TIP3    H241099   2.270   4.832   6.626
13720TIP3   OH241100   7.808   6.045   1.519
13720TIP3    H141101   7.885   6.096   1.495
13720TIP3    H241102   7.783   6.078   1.605
13721TIP3   OH241103   0.233   3.081   4.355
13721TIP3    H141104   0.249   3.058   4.446
13721TIP3    H241105   0.180   3.009   4.321
13722TIP3   OH241106   5.833   7.257   0.080
13722TIP3    H141107   5.740   7.261   0.102
13722TIP3    H241108   5.850   7.165   0.060
13723TIP3   OH241109   4.867   5.994   1.427
13723TIP3    H141110   4.777   6.005   1.394
13723TIP3    H241111   4.862   5.918   1.485
13724TIP3   OH241112   4.238   7.041   0.853
13724TIP3    H141113   4.154   6.996   0.842
13724TIP3    H241114   4.290   6.981   0.906
13725TIP3   OH241115   1.148   0.171   2.857
13725TIP3    H141116   1.118   0.082   2.838
13725TIP3    H241117   1.162   0.211   2.771
13726TIP3   OH241118   1.226   7.649   2.225
13726TIP3    H141119   1.261   7.560   2.215
13726TIP3    H241120   1.264   7.680   2.308
13727TIP3   OH241121   4.999   3.240   1.311
13727TIP3    H141122   4.965   3.314   1.261
13727TIP3    H241123   4.930   3.174   1.307
13728TIP3   OH241124   0.248   4.621   3.130
13728TIP3    H141125   0.270   4.591   3.218
13728TIP3    H241126   0.291   4.558   3.072
13729TIP3   OH241127   6.671   0.366   3.090
13729TIP3    H141128   6.591   0.378   3.141
13729TIP3    H241129   6.727   0.439   3.115
13730TIP3   OH241130   3.306   5.723   6.586
13730TIP3    H141131   3.268   5.645   6.626
13730TIP3    H241132   3.239   5.790   6.597
13731TIP3   OH241133   2.126   7.010   6.278
13731TIP3    H141134   2.048   7.011   6.222
13731TIP3    H241135   2.095   6.975   6.362
13732TIP3   OH241136   5.304   4.818   4.728
13732TIP3    H141137   5.313   4.911   4.707
13732TIP3    H241138   5.291   4.775   4.643
13733TIP3   OH241139   0.183   3.561   3.198
13733TIP3    H141140   0.228   3.476   3.204
13733TIP3    H241141   0.171   3.575   3.104
13734TIP3   OH241142   1.005   6.640   6.105
13734TIP3    H141143   1.001   6.577   6.032
13734TIP3    H241144   1.000   6.726   6.063
13735TIP3   OH241145   0.775   2.193   5.211
13735TIP3    H141146   0.811   2.159   5.293
13735TIP3    H241147   0.692   2.146   5.200
13736TIP3   OH241148   7.348   4.317   3.676
13736TIP3    H141149   7.423   4.337   3.619
13736TIP3    H241150   7.358   4.224   3.696
13737TIP3   OH241151   7.963   5.841   3.620
13737TIP3    H141152   7.961   5.761   3.673
13737TIP3    H241153   7.954   5.810   3.530
13738TIP3   OH241154   2.427   1.281   2.350
13738TIP3    H141155   2.454   1.366   2.384
13738TIP3    H241156   2.481   1.268   2.272
13739TIP3   OH241157   1.895   4.795   5.658
13739TIP3    H141158   1.836   4.848   5.711
13739TIP3    H241159   1.839   4.759   5.589
13740TIP3   OH241160   1.812   5.161   3.506
13740TIP3    H141161   1.879   5.209   3.457
13740TIP3    H241162   1.843   5.162   3.597
13741TIP3   OH241163   8.168   2.409   2.643
13741TIP3    H141164   8.161   2.377   2.553
13741TIP3    H241165   8.101   2.361   2.691
13742TIP3   OH241166   2.905   7.792   0.954
13742TIP3    H141167   2.870   7.782   0.866
13742TIP3    H241168   2.996   7.760   0.947
13743TIP3   OH241169   8.016   3.049   6.629
13743TIP3    H141170   7.984   3.008   6.548
13743TIP3    H241171   7.956   3.018   6.697
13744TIP3   OH241172   1.617   6.188   1.890
13744TIP3    H141173   1.629   6.144   1.806
13744TIP3    H241174   1.700   6.176   1.935
13745TIP3   OH241175   2.775   4.585   2.870
13745TIP3    H141176   2.776   4.669   2.824
13745TIP3    H241177   2.708   4.534   2.825
13746TIP3   OH241178   3.592   4.025   1.872
13746TIP3    H141179   3.512   4.074   1.892
13746TIP3    H241180   3.642   4.026   1.954
13747TIP3   OH241181   0.819   2.600   3.115
13747TIP3    H141182   0.903   2.578   3.076
13747TIP3    H241183   0.789   2.677   3.066
13748TIP3   OH241184   1.733   3.156   6.179
13748TIP3    H141185   1.737   3.131   6.271
13748TIP3    H241186   1.793   3.230   6.172
13749TIP3   OH241187   6.005   4.934   1.230
13749TIP3    H141188   5.989   4.994   1.303
13749TIP3    H241189   5.944   4.862   1.244
13750TIP3   OH241190   2.215   4.902   2.556
13750TIP3    H141191   2.263   4.972   2.601
13750TIP3    H241192   2.123   4.928   2.562
13751TIP3   OH241193   7.026   4.216   1.350
13751TIP3    H141194   6.931   4.221   1.342
13751TIP3    H241195   7.048   4.126   1.323
13752TIP3   OH241196   0.175   3.462   0.508
13752TIP3    H141197   0.222   3.411   0.575
13752TIP3    H241198   0.086   3.426   0.508
13753TIP3   OH241199   4.634   7.243   4.204
13753TIP3    H141200   4.539   7.255   4.208
13753TIP3    H241201   4.666   7.277   4.287
13754TIP3   OH241202   6.354   3.896   3.061
13754TIP3    H141203   6.384   3.895   2.970
13754TIP3    H241204   6.300   3.975   3.068
13755TIP3   OH241205   4.024   0.297   0.014
13755TIP3    H141206   3.957   0.366   0.022
13755TIP3    H241207   3.974   0.215   0.015
13756TIP3   OH241208   1.701   3.067   1.850
13756TIP3    H141209   1.780   3.030   1.812
13756TIP3    H241210   1.656   3.109   1.777
13757TIP3   OH241211   5.489   6.510   4.736
13757TIP3    H141212   5.582   6.497   4.717
13757TIP3    H241213   5.449   6.520   4.650
13758TIP3   OH241214   7.736   7.779   5.078
13758TIP3    H141215   7.652   7.797   5.035
13758TIP3    H241216   7.781   7.864   5.078
13759TIP3   OH241217   2.527   2.361   4.083
13759TIP3    H141218   2.557   2.385   3.995
13759TIP3    H241219   2.596   2.304   4.116
13760TIP3   OH241220   3.154   5.748   3.276
13760TIP3    H141221   3.239   5.758   3.320
13760TIP3    H241222   3.099   5.816   3.314
13761TIP3   OH241223   5.949   3.603   3.490
13761TIP3    H141224   6.008   3.677   3.506
13761TIP3    H241225   5.866   3.630   3.528
13762TIP3   OH241226   3.821   1.881   5.693
13762TIP3    H141227   3.870   1.883   5.775
13762TIP3    H241228   3.804   1.789   5.677
13763TIP3   OH241229   6.955   2.634   3.691
13763TIP3    H141230   7.001   2.591   3.764
13763TIP3    H241231   7.024   2.668   3.635
13764TIP3   OH241232   2.844   4.518   5.363
13764TIP3    H141233   2.764   4.560   5.396
13764TIP3    H241234   2.852   4.550   5.273
13765TIP3   OH241235   7.848   5.788   0.988
13765TIP3    H141236   7.813   5.781   1.077
13765TIP3    H241237   7.822   5.875   0.959
13766TIP3   OH241238   1.204   5.999   6.171
13766TIP3    H141239   1.249   6.068   6.123
13766TIP3    H241240   1.143   6.046   6.228
13767TIP3   OH241241   4.121   7.228   4.219
13767TIP3    H141242   4.099   7.175   4.142
13767TIP3    H241243   4.063   7.194   4.288
13768TIP3   OH241244   4.561   0.336   0.513
13768TIP3    H141245   4.642   0.353   0.466
13768TIP3    H241246   4.586   0.339   0.605
13769TIP3   OH241247   3.848   4.207   6.268
13769TIP3    H141248   3.786   4.193   6.196
13769TIP3    H241249   3.801   4.176   6.346
13770TIP3   OH241250   1.196   2.528   4.461
13770TIP3    H141251   1.107   2.547   4.491
13770TIP3    H241252   1.185   2.497   4.371
13771TIP3   OH241253   3.493   7.773   1.048
13771TIP3    H141254   3.523   7.810   0.965
13771TIP3    H241255   3.456   7.848   1.096
13772TIP3   OH241256   4.432   4.049   0.498
13772TIP3    H141257   4.510   4.010   0.459
13772TIP3    H241258   4.397   3.981   0.555
13773TIP3   OH241259   2.890   0.371   1.564
13773TIP3    H141260   2.962   0.362   1.626
13773TIP3    H241261   2.812   0.375   1.619
13774TIP3   OH241262   3.812   0.682   3.136
13774TIP3    H141263   3.733   0.693   3.189
13774TIP3    H241264   3.849   0.598   3.163
13775TIP3   OH241265   7.329   5.840   1.748
13775TIP3    H141266   7.301   5.751   1.730
13775TIP3    H241267   7.260   5.877   1.803
13776TIP3   OH241268   0.736   6.587   6.391
13776TIP3    H141269   0.717   6.679   6.408
13776TIP3    H241270   0.800   6.562   6.457
13777TIP3   OH241271   0.484   1.432   4.920
13777TIP3    H141272   0.438   1.381   4.853
13777TIP3    H241273   0.531   1.368   4.972
13778TIP3   OH241274   5.103   6.493   5.237
13778TIP3    H141275   5.106   6.441   5.157
13778TIP3    H241276   5.165   6.564   5.223
13779TIP3   OH241277   5.703   6.097   1.784
13779TIP3    H141278   5.673   6.151   1.857
13779TIP3    H241279   5.666   6.140   1.707
13780TIP3   OH241280   4.646   7.642   1.518
13780TIP3    H141281   4.739   7.647   1.495
13780TIP3    H241282   4.612   7.572   1.461
13781TIP3   OH241283   8.087   6.984   1.863
13781TIP3    H141284   8.128   7.063   1.898
13781TIP3    H241285   8.119   6.913   1.918
13782TIP3   OH241286   2.249   2.797   1.801
13782TIP3    H141287   2.158   2.771   1.811
13782TIP3    H241288   2.270   2.778   1.710
13783TIP3   OH241289   4.135   3.791   0.947
13783TIP3    H141290   4.134   3.728   1.019
13783TIP3    H241291   4.062   3.850   0.966
13784TIP3   OH241292   4.314   3.467   1.625
13784TIP3    H141293   4.349   3.378   1.629
13784TIP3    H241294   4.329   3.502   1.713
13785TIP3   OH241295   3.010   5.258   3.075
13785TIP3    H141296   3.022   5.247   3.170
13785TIP3    H241297   2.964   5.179   3.048
13786TIP3   OH241298   3.490   6.319   4.098
13786TIP3    H141299   3.430   6.386   4.132
13786TIP3    H241300   3.442   6.279   4.025
13787TIP3   OH241301   6.298   3.123   3.045
13787TIP3    H141302   6.342   3.160   3.122
13787TIP3    H241303   6.205   3.141   3.060
13788TIP3   OH241304   2.515   5.388   4.085
13788TIP3    H141305   2.434   5.347   4.115
13788TIP3    H241306   2.563   5.318   4.042
13789TIP3   OH241307   1.075   0.764   3.952
13789TIP3    H141308   1.049   0.694   3.891
13789TIP3    H241309   1.111   0.718   4.027
13790TIP3   OH241310   5.807   2.786   5.427
13790TIP3    H141311   5.862   2.742   5.363
13790TIP3    H241312   5.856   2.781   5.509
13791TIP3   OH241313   4.048   6.381   2.572
13791TIP3    H141314   3.970   6.349   2.527
13791TIP3    H241315   4.064   6.467   2.533
13792TIP3   OH241316   8.274   7.618   3.861
13792TIP3    H141317   8.182   7.645   3.860
13792TIP3    H241318   8.299   7.618   3.953
13793TIP3   OH241319   3.784   0.356   3.927
13793TIP3    H141320   3.856   0.344   3.988
13793TIP3    H241321   3.739   0.434   3.958
13794TIP3   OH241322   6.156   6.121   2.132
13794TIP3    H141323   6.096   6.082   2.067
13794TIP3    H241324   6.237   6.071   2.122
13795TIP3   OH241325   2.073   7.764   3.493
13795TIP3    H141326   2.121   7.681   3.502
13795TIP3    H241327   2.021   7.753   3.414
13796TIP3   OH241328   0.865   5.356   3.770
13796TIP3    H141329   0.785   5.397   3.802
13796TIP3    H241330   0.838   5.269   3.741
13797TIP3   OH241331   4.115   5.838   0.134
13797TIP3    H141332   4.173   5.838   0.057
13797TIP3    H241333   4.172   5.863   0.206
13798TIP3   OH241334   5.663   3.279   3.328
13798TIP3    H141335   5.627   3.304   3.242
13798TIP3    H241336   5.683   3.186   3.319
13799TIP3   OH241337   7.527   1.585   2.387
13799TIP3    H141338   7.527   1.502   2.436
13799TIP3    H241339   7.620   1.604   2.373
13800TIP3   OH241340   7.558   5.808   4.895
13800TIP3    H141341   7.599   5.722   4.897
13800TIP3    H241342   7.518   5.819   4.981
13801TIP3   OH241343   0.252   3.698   2.207
13801TIP3    H141344   0.241   3.778   2.157
13801TIP3    H241345   0.183   3.700   2.273
13802TIP3   OH241346   5.755   3.852   4.534
13802TIP3    H141347   5.846   3.836   4.507
13802TIP3    H241348   5.723   3.766   4.562
13803TIP3   OH241349   3.697   2.165   0.837
13803TIP3    H141350   3.661   2.215   0.763
13803TIP3    H241351   3.679   2.220   0.914
13804TIP3   OH241352   3.322   3.518   2.977
13804TIP3    H141353   3.248   3.492   2.922
13804TIP3    H241354   3.347   3.437   3.023
13805TIP3   OH241355   6.483   3.674   1.757
13805TIP3    H141356   6.551   3.690   1.823
13805TIP3    H241357   6.475   3.757   1.710
13806TIP3   OH241358   4.065   3.557   5.021
13806TIP3    H141359   4.025   3.601   5.096
13806TIP3    H241360   4.101   3.476   5.057
13807TIP3   OH241361   2.227   4.307   5.019
13807TIP3    H141362   2.236   4.302   4.924
13807TIP3    H241363   2.139   4.343   5.033
13808TIP3   OH241364   0.671   4.370   1.804
13808TIP3    H141365   0.705   4.351   1.717
13808TIP3    H241366   0.586   4.412   1.788
13809TIP3   OH241367   4.970   3.745   3.646
13809TIP3    H141368   4.954   3.737   3.740
13809TIP3    H241369   4.915   3.677   3.607
13810TIP3   OH241370   6.629   5.258   0.877
13810TIP3    H141371   6.635   5.164   0.857
13810TIP3    H241372   6.563   5.291   0.816
13811TIP3   OH241373   4.081   7.568   2.363
13811TIP3    H141374   4.029   7.611   2.295
13811TIP3    H241375   4.160   7.621   2.370
13812TIP3   OH241376   0.843   1.849   1.941
13812TIP3    H141377   0.892   1.918   1.985
13812TIP3    H241378   0.794   1.894   1.872
13813TIP3   OH241379   8.133   5.917   5.952
13813TIP3    H141380   8.198   5.869   5.900
13813TIP3    H241381   8.185   5.962   6.019
13814TIP3   OH241382   5.407   5.843   3.167
13814TIP3    H141383   5.443   5.763   3.206
13814TIP3    H241384   5.470   5.868   3.100
13815TIP3   OH241385   5.164   4.848   3.303
13815TIP3    H141386   5.077   4.859   3.264
13815TIP3    H241387   5.184   4.934   3.341
13816TIP3   OH241388   7.114   6.259   5.730
13816TIP3    H141389   7.201   6.280   5.696
13816TIP3    H241390   7.089   6.336   5.781
13817TIP3   OH241391   3.369   3.007   1.837
13817TIP3    H141392   3.393   3.016   1.744
13817TIP3    H241393   3.289   2.954   1.836
13818TIP3   OH241394   6.635   1.181   6.743
13818TIP3    H141395   6.709   1.166   6.802
13818TIP3    H241396   6.675   1.207   6.660
13819TIP3   OH241397   0.358   5.655   3.836
13819TIP3    H141398   0.412   5.625   3.909
13819TIP3    H241399   0.280   5.692   3.878
13820TIP3   OH241400   1.753   5.464   6.057
13820TIP3    H141401   1.709   5.408   6.121
13820TIP3    H241402   1.728   5.428   5.972
13821TIP3   OH241403   5.033   7.230   3.636
13821TIP3    H141404   4.974   7.219   3.561
13821TIP3    H241405   4.976   7.228   3.712
13822TIP3   OH241406   7.842   4.657   0.756
13822TIP3    H141407   7.834   4.619   0.843
13822TIP3    H241408   7.808   4.746   0.766
13823TIP3   OH241409   3.086   2.933   0.713
13823TIP3    H141410   3.064   2.852   0.761
13823TIP3    H241411   3.077   3.002   0.778
13824TIP3   OH241412   7.274   1.619   2.954
13824TIP3    H141413   7.213   1.585   3.019
13824TIP3    H241414   7.255   1.713   2.950
13825TIP3   OH241415   2.473   7.894   3.354
13825TIP3    H141416   2.514   7.836   3.289
13825TIP3    H241417   2.489   7.850   3.438
13826TIP3   OH241418   8.277   5.769   3.663
13826TIP3    H141419   8.283   5.756   3.757
13826TIP3    H241420   8.250   5.860   3.652
13827TIP3   OH241421   0.073   4.126   3.561
13827TIP3    H141422   0.004   4.183   3.594
13827TIP3    H241423   0.028   4.063   3.505
13828TIP3   OH241424   0.072   3.077   1.363
13828TIP3    H141425   0.000   3.060   1.424
13828TIP3    H241426   0.090   3.170   1.371
13829TIP3   OH241427   0.300   3.287   3.141
13829TIP3    H141428   0.238   3.222   3.173
13829TIP3    H241429   0.355   3.307   3.217
13830TIP3   OH241430   8.435   2.868   5.520
13830TIP3    H141431   8.438   2.861   5.424
13830TIP3    H241432   8.344   2.846   5.542
13831TIP3   OH241433   3.199   4.873   4.699
13831TIP3    H141434   3.257   4.821   4.644
13831TIP3    H241435   3.112   4.861   4.659
13832TIP3   OH241436   7.091   2.242   5.466
13832TIP3    H141437   7.111   2.287   5.549
13832TIP3    H241438   7.166   2.186   5.450
13833TIP3   OH241439   5.299   3.039   5.822
13833TIP3    H141440   5.342   3.123   5.839
13833TIP3    H241441   5.239   3.058   5.750
13834TIP3   OH241442   0.316   7.863   4.852
13834TIP3    H141443   0.327   7.889   4.760
13834TIP3    H241444   0.396   7.892   4.895
13835TIP3   OH241445   3.765   2.107   5.922
13835TIP3    H141446   3.858   2.091   5.938
13835TIP3    H241447   3.759   2.119   5.827
13836TIP3   OH241448   4.856   7.760   0.077
13836TIP3    H141449   4.916   7.687   0.066
13836TIP3    H241450   4.792   7.729   0.141
13837TIP3   OH241451   8.053   7.658   1.547
13837TIP3    H141452   8.079   7.631   1.459
13837TIP3    H241453   8.097   7.597   1.605
13838TIP3   OH241454   5.255   7.042   6.558
13838TIP3    H141455   5.226   6.951   6.552
13838TIP3    H241456   5.198   7.089   6.497
13839TIP3   OH241457   8.411   0.407   2.851
13839TIP3    H141458   8.354   0.393   2.776
13839TIP3    H241459   8.494   0.437   2.812
13840TIP3   OH241460   7.103   4.605   5.535
13840TIP3    H141461   7.086   4.512   5.547
13840TIP3    H241462   7.077   4.645   5.618
13841TIP3   OH241463   7.660   2.070   1.752
13841TIP3    H141464   7.684   2.161   1.739
13841TIP3    H241465   7.732   2.021   1.712
13842TIP3   OH241466   0.136   3.439   6.132
13842TIP3    H141467   0.186   3.398   6.061
13842TIP3    H241468   0.178   3.524   6.144
13843TIP3   OH241469   0.334   4.888   2.032
13843TIP3    H141470   0.290   4.972   2.024
13843TIP3    H241471   0.403   4.902   2.097
13844TIP3   OH241472   6.572   1.284   3.003
13844TIP3    H141473   6.573   1.268   2.909
13844TIP3    H241474   6.660   1.262   3.033
13845TIP3   OH241475   7.195   5.373   1.149
13845TIP3    H141476   7.274   5.369   1.204
13845TIP3    H241477   7.192   5.463   1.118
13846TIP3   OH241478   1.403   4.518   1.385
13846TIP3    H141479   1.347   4.575   1.436
13846TIP3    H241480   1.344   4.453   1.347
13847TIP3   OH241481   7.183   7.018   0.255
13847TIP3    H141482   7.158   6.941   0.307
13847TIP3    H241483   7.100   7.054   0.225
13848TIP3   OH241484   4.672   7.785   2.587
13848TIP3    H141485   4.687   7.878   2.603
13848TIP3    H241486   4.691   7.743   2.670
13849TIP3   OH241487   0.694   0.250   3.760
13849TIP3    H141488   0.758   0.255   3.688
13849TIP3    H241489   0.693   0.157   3.784
13850TIP3   OH241490   1.024   1.231   3.503
13850TIP3    H141491   0.938   1.268   3.484
13850TIP3    H241492   1.022   1.143   3.464
13851TIP3   OH241493   5.159   2.153   5.341
13851TIP3    H141494   5.099   2.093   5.386
13851TIP3    H241495   5.121   2.239   5.354
13852TIP3   OH241496   0.602   1.470   6.118
13852TIP3    H141497   0.641   1.395   6.073
13852TIP3    H241498   0.571   1.527   6.048
13853TIP3   OH241499   0.776   1.605   5.198
13853TIP3    H141500   0.838   1.533   5.187
13853TIP3    H241501   0.817   1.663   5.262
13854TIP3   OH241502   3.420   6.007   5.399
13854TIP3    H141503   3.363   5.929   5.397
13854TIP3    H241504   3.503   5.977   5.361
13855TIP3   OH241505   5.373   3.959   2.460
13855TIP3    H141506   5.337   4.048   2.456
13855TIP3    H241507   5.459   3.967   2.418
13856TIP3   OH241508   4.133   6.433   1.006
13856TIP3    H141509   4.174   6.421   1.092
13856TIP3    H241510   4.039   6.425   1.023
13857TIP3   OH241511   0.475   1.513   0.766
13857TIP3    H141512   0.466   1.522   0.861
13857TIP3    H241513   0.496   1.421   0.752
13858TIP3   OH241514   4.983   4.638   0.753
13858TIP3    H141515   4.950   4.629   0.663
13858TIP3    H241516   4.904   4.654   0.805
13859TIP3   OH241517   0.912   1.048   6.547
13859TIP3    H141518   0.928   1.000   6.628
13859TIP3    H241519   0.908   0.981   6.479
13860TIP3   OH241520   1.484   5.041   3.689
13860TIP3    H141521   1.487   4.965   3.632
13860TIP3    H241522   1.458   5.113   3.632
13861TIP3   OH241523   6.254   6.230   2.727
13861TIP3    H141524   6.305   6.208   2.649
13861TIP3    H241525   6.210   6.312   2.704
13862TIP3   OH241526   0.928   0.630   2.347
13862TIP3    H141527   1.020   0.650   2.328
13862TIP3    H241528   0.908   0.683   2.425
13863TIP3   OH241529   7.409   0.489   4.442
13863TIP3    H141530   7.424   0.431   4.517
13863TIP3    H241531   7.331   0.454   4.399
13864TIP3   OH241532   5.978   5.004   0.161
13864TIP3    H141533   6.028   4.948   0.101
13864TIP3    H241534   5.889   4.969   0.156
13865TIP3   OH241535   0.424   2.395   4.993
13865TIP3    H141536   0.417   2.434   4.906
13865TIP3    H241537   0.477   2.456   5.044
13866TIP3   OH241538   7.955   4.012   3.215
13866TIP3    H141539   7.941   3.953   3.289
13866TIP3    H241540   7.974   3.953   3.142
13867TIP3   OH241541   1.103   2.964   1.005
13867TIP3    H141542   1.017   2.923   1.014
13867TIP3    H241543   1.098   3.013   0.923
13868TIP3   OH241544   5.903   4.529   5.198
13868TIP3    H141545   5.914   4.491   5.111
13868TIP3    H241546   5.912   4.456   5.259
13869TIP3   OH241547   2.039   6.073   3.862
13869TIP3    H141548   2.127   6.111   3.865
13869TIP3    H241549   2.023   6.044   3.952
13870TIP3   OH241550   3.262   0.513   2.839
13870TIP3    H141551   3.311   0.492   2.918
13870TIP3    H241552   3.262   0.609   2.835
13871TIP3   OH241553   4.962   4.539   1.736
13871TIP3    H141554   4.942   4.496   1.653
13871TIP3    H241555   5.023   4.480   1.780
13872TIP3   OH241556   3.706   6.776   6.187
13872TIP3    H141557   3.733   6.855   6.139
13872TIP3    H241558   3.788   6.739   6.220
13873TIP3   OH241559   4.981   4.183   2.633
13873TIP3    H141560   5.049   4.118   2.619
13873TIP3    H241561   4.941   4.158   2.717
13874TIP3   OH241562   5.882   3.962   3.136
13874TIP3    H141563   5.853   3.871   3.142
13874TIP3    H241564   5.837   3.996   3.059
13875TIP3   OH241565   0.445   7.445   6.682
13875TIP3    H141566   0.528   7.461   6.728
13875TIP3    H241567   0.440   7.514   6.616
13876TIP3   OH241568   0.432   6.086   1.537
13876TIP3    H141569   0.346   6.111   1.502
13876TIP3    H241570   0.465   6.166   1.578
13877TIP3   OH241571   6.200   2.984   4.422
13877TIP3    H141572   6.267   3.014   4.360
13877TIP3    H241573   6.138   2.935   4.368
13878TIP3   OH241574   2.369   4.615   2.975
13878TIP3    H141575   2.340   4.703   2.953
13878TIP3    H241576   2.378   4.616   3.071
13879TIP3   OH241577   4.357   2.453   6.709
13879TIP3    H141578   4.388   2.367   6.737
13879TIP3    H241579   4.385   2.460   6.618
13880TIP3   OH241580   0.150   0.787   4.464
13880TIP3    H141581   0.222   0.834   4.421
13880TIP3    H241582   0.164   0.804   4.557
13881TIP3   OH241583   3.285   4.408   1.620
13881TIP3    H141584   3.290   4.411   1.715
13881TIP3    H241585   3.206   4.357   1.601
13882TIP3   OH241586   1.613   6.251   2.974
13882TIP3    H141587   1.525   6.220   2.955
13882TIP3    H241588   1.670   6.197   2.919
13883TIP3   OH241589   1.818   4.849   1.208
13883TIP3    H141590   1.778   4.878   1.127
13883TIP3    H241591   1.745   4.815   1.260
13884TIP3   OH241592   8.303   0.119   0.642
13884TIP3    H141593   8.355   0.193   0.610
13884TIP3    H241594   8.268   0.080   0.562
13885TIP3   OH241595   8.021   1.999   2.132
13885TIP3    H141596   8.088   1.981   2.198
13885TIP3    H241597   7.938   1.983   2.177
13886TIP3   OH241598   1.573   4.400   3.407
13886TIP3    H141599   1.518   4.360   3.474
13886TIP3    H241600   1.643   4.337   3.393
13887TIP3   OH241601   2.020   4.130   2.893
13887TIP3    H141602   2.021   4.181   2.812
13887TIP3    H241603   2.036   4.040   2.866
13888TIP3   OH241604   6.766   6.909   5.170
13888TIP3    H141605   6.818   6.852   5.226
13888TIP3    H241606   6.696   6.941   5.228
13889TIP3   OH241607   6.476   3.920   1.225
13889TIP3    H141608   6.456   3.856   1.293
13889TIP3    H241609   6.390   3.948   1.193
13890TIP3   OH241610   7.644   6.908   3.468
13890TIP3    H141611   7.624   6.885   3.378
13890TIP3    H241612   7.574   6.969   3.494
13891TIP3   OH241613   7.165   4.865   3.630
13891TIP3    H141614   7.097   4.798   3.626
13891TIP3    H241615   7.247   4.816   3.628
13892TIP3   OH241616   5.552   6.950   0.112
13892TIP3    H141617   5.544   6.944   0.017
13892TIP3    H241618   5.555   7.044   0.130
13893TIP3   OH241619   5.283   4.043   1.821
13893TIP3    H141620   5.191   4.015   1.827
13893TIP3    H241621   5.305   4.032   1.728
13894TIP3   OH241622   2.148   7.074   5.799
13894TIP3    H141623   2.156   7.069   5.894
13894TIP3    H241624   2.217   7.017   5.766
13895TIP3   OH241625   6.820   6.585   1.070
13895TIP3    H141626   6.865   6.519   1.017
13895TIP3    H241627   6.880   6.603   1.142
13896TIP3   OH241628   8.229   6.984   0.558
13896TIP3    H141629   8.193   7.053   0.502
13896TIP3    H241630   8.152   6.941   0.594
13897TIP3   OH241631   3.117   1.497   5.211
13897TIP3    H141632   3.176   1.475   5.283
13897TIP3    H241633   3.150   1.446   5.137
13898TIP3   OH241634   0.832   3.280   2.754
13898TIP3    H141635   0.918   3.237   2.751
13898TIP3    H241636   0.819   3.302   2.846
13899TIP3   OH241637   3.732   2.940   1.889
13899TIP3    H141638   3.702   3.020   1.934
13899TIP3    H241639   3.676   2.871   1.924
13900TIP3   OH241640   0.410   1.556   1.065
13900TIP3    H141641   0.349   1.627   1.088
13900TIP3    H241642   0.405   1.495   1.139
13901TIP3   OH241643   4.154   7.313   0.479
13901TIP3    H141644   4.171   7.402   0.450
13901TIP3    H241645   4.219   7.297   0.548
13902TIP3   OH241646   0.529   1.821   1.646
13902TIP3    H141647   0.556   1.887   1.710
13902TIP3    H241648   0.455   1.777   1.689
13903TIP3   OH241649   1.056   3.951   1.950
13903TIP3    H141650   1.137   4.001   1.964
13903TIP3    H241651   1.083   3.860   1.953
13904TIP3   OH241652   2.623   5.050   6.606
13904TIP3    H141653   2.675   5.078   6.681
13904TIP3    H241654   2.548   5.110   6.605
13905TIP3   OH241655   3.279   7.702   1.441
13905TIP3    H141656   3.259   7.770   1.376
13905TIP3    H241657   3.221   7.630   1.417
13906TIP3   OH241658   0.907   0.493   3.098
13906TIP3    H141659   0.869   0.571   3.139
13906TIP3    H241660   0.867   0.490   3.011
13907TIP3   OH241661   0.154   5.542   3.314
13907TIP3    H141662   0.097   5.488   3.369
13907TIP3    H241663   0.123   5.632   3.328
13908TIP3   OH241664   1.387   7.482   5.605
13908TIP3    H141665   1.297   7.457   5.625
13908TIP3    H241666   1.389   7.493   5.510
13909TIP3   OH241667   5.313   1.532   2.745
13909TIP3    H141668   5.318   1.463   2.812
13909TIP3    H241669   5.402   1.568   2.742
13910TIP3   OH241670   2.913   2.103   5.794
13910TIP3    H141671   2.956   2.180   5.755
13910TIP3    H241672   2.986   2.047   5.822
13911TIP3   OH241673   4.000   5.702   1.253
13911TIP3    H141674   3.929   5.702   1.189
13911TIP3    H241675   4.054   5.778   1.230
13912TIP3   OH241676   0.732   6.703   5.914
13912TIP3    H141677   0.793   6.763   5.958
13912TIP3    H241678   0.669   6.679   5.981
13913TIP3   OH241679   6.689   4.386   0.970
13913TIP3    H141680   6.633   4.327   0.919
13913TIP3    H241681   6.679   4.358   1.060
13914TIP3   OH241682   6.312   4.107   6.224
13914TIP3    H141683   6.272   4.160   6.292
13914TIP3    H241684   6.317   4.166   6.148
13915TIP3   OH241685   2.333   1.204   4.284
13915TIP3    H141686   2.320   1.292   4.319
13915TIP3    H241687   2.360   1.152   4.359
13916TIP3   OH241688   1.173   6.865   4.154
13916TIP3    H141689   1.256   6.903   4.124
13916TIP3    H241690   1.120   6.858   4.075
13917TIP3   OH241691   1.602   4.045   4.886
13917TIP3    H141692   1.574   4.013   4.800
13917TIP3    H241693   1.612   3.966   4.939
13918TIP3   OH241694   6.255   7.367   4.082
13918TIP3    H141695   6.327   7.311   4.110
13918TIP3    H241696   6.176   7.324   4.115
13919TIP3   OH241697   1.547   1.969   0.807
13919TIP3    H141698   1.615   2.010   0.753
13919TIP3    H241699   1.531   2.032   0.877
13920TIP3   OH241700   5.146   6.800   0.724
13920TIP3    H141701   5.066   6.850   0.742
13920TIP3    H241702   5.147   6.788   0.630
13921TIP3   OH241703   5.181   6.843   5.829
13921TIP3    H141704   5.159   6.752   5.849
13921TIP3    H241705   5.127   6.894   5.889
13922TIP3   OH241706   1.590   2.263   1.756
13922TIP3    H141707   1.628   2.348   1.736
13922TIP3    H241708   1.658   2.217   1.805
13923TIP3   OH241709   2.426   4.139   4.667
13923TIP3    H141710   2.493   4.204   4.686
13923TIP3    H241711   2.348   4.172   4.712
13924TIP3   OH241712   3.496   2.403   6.239
13924TIP3    H141713   3.530   2.491   6.220
13924TIP3    H241714   3.549   2.373   6.312
13925TIP3   OH241715   7.452   4.895   0.730
13925TIP3    H141716   7.546   4.884   0.744
13925TIP3    H241717   7.440   4.989   0.720
13926TIP3   OH241718   4.540   2.679   5.135
13926TIP3    H141719   4.524   2.630   5.055
13926TIP3    H241720   4.536   2.771   5.108
13927TIP3   OH241721   7.444   0.018   3.164
13927TIP3    H141722   7.474   0.040   3.076
13927TIP3    H241723   7.383  -0.055   3.152
13928TIP3   OH241724   5.847   1.176   3.271
13928TIP3    H141725   5.807   1.156   3.186
13928TIP3    H241726   5.838   1.270   3.280
13929TIP3   OH241727   2.848   0.732   2.173
13929TIP3    H141728   2.921   0.795   2.177
13929TIP3    H241729   2.882   0.653   2.215
13930TIP3   OH241730   7.081   5.946   0.637
13930TIP3    H141731   7.038   6.011   0.582
13930TIP3    H241732   7.049   5.862   0.603
13931TIP3   OH241733   6.221   0.940   2.972
13931TIP3    H141734   6.315   0.924   2.981
13931TIP3    H241735   6.199   0.997   3.046
13932TIP3   OH241736   3.873   7.455   4.928
13932TIP3    H141737   3.864   7.453   4.833
13932TIP3    H241738   3.885   7.364   4.953
13933TIP3   OH241739   5.477   4.542   4.302
13933TIP3    H141740   5.538   4.609   4.271
13933TIP3    H241741   5.532   4.467   4.326
13934TIP3   OH241742   2.398   6.197   4.963
13934TIP3    H141743   2.316   6.233   4.928
13934TIP3    H241744   2.372   6.117   5.008
13935TIP3   OH241745   4.812   6.781   3.934
13935TIP3    H141746   4.817   6.732   3.852
13935TIP3    H241747   4.896   6.826   3.941
13936TIP3   OH241748   1.767   4.846   0.056
13936TIP3    H141749   1.729   4.780   0.113
13936TIP3    H241750   1.696   4.870  -0.004
13937TIP3   OH241751   7.493   5.349   3.407
13937TIP3    H141752   7.515   5.376   3.497
13937TIP3    H241753   7.576   5.354   3.360
13938TIP3   OH241754   1.877   2.441   1.613
13938TIP3    H141755   1.923   2.512   1.658
13938TIP3    H241756   1.785   2.455   1.633
13939TIP3   OH241757   7.938   1.766   0.581
13939TIP3    H141758   7.968   1.839   0.635
13939TIP3    H241759   8.019   1.722   0.552
13940TIP3   OH241760   8.232   1.035   3.929
13940TIP3    H141761   8.184   1.001   4.005
13940TIP3    H241762   8.289   0.962   3.902
13941TIP3   OH241763   6.349   4.886   1.779
13941TIP3    H141764   6.261   4.902   1.812
13941TIP3    H241765   6.407   4.917   1.849
13942TIP3   OH241766   6.678   7.363   3.768
13942TIP3    H141767   6.590   7.378   3.734
13942TIP3    H241768   6.727   7.328   3.694
13943TIP3   OH241769   7.666   1.004   1.892
13943TIP3    H141770   7.697   0.933   1.948
13943TIP3    H241771   7.682   1.084   1.943
13944TIP3   OH241772   1.085   3.081   0.464
13944TIP3    H141773   1.106   3.060   0.373
13944TIP3    H241774   0.994   3.111   0.461
13945TIP3   OH241775   4.763   5.099   0.609
13945TIP3    H141776   4.834   5.147   0.567
13945TIP3    H241777   4.800   5.013   0.630
13946TIP3   OH241778   5.858   0.649   5.294
13946TIP3    H141779   5.911   0.707   5.239
13946TIP3    H241780   5.796   0.609   5.233
13947TIP3   OH241781   2.450   2.622   6.010
13947TIP3    H141782   2.523   2.681   6.033
13947TIP3    H241783   2.396   2.619   6.088
13948TIP3   OH241784   6.821   7.555   6.865
13948TIP3    H141785   6.781   7.555   6.952
13948TIP3    H241786   6.863   7.640   6.858
13949TIP3   OH241787   8.310   4.689   3.114
13949TIP3    H141788   8.301   4.695   3.209
13949TIP3    H241789   8.287   4.599   3.093
13950TIP3   OH241790   5.542   5.381   5.322
13950TIP3    H141791   5.501   5.315   5.265
13950TIP3    H241792   5.534   5.343   5.410
13951TIP3   OH241793   5.732   1.867   0.966
13951TIP3    H141794   5.641   1.870   0.997
13951TIP3    H241795   5.770   1.949   0.996
13952TIP3   OH241796   3.852   2.146   3.161
13952TIP3    H141797   3.821   2.197   3.087
13952TIP3    H241798   3.792   2.169   3.232
13953TIP3   OH241799   8.086   1.425   5.163
13953TIP3    H141800   8.082   1.509   5.117
13953TIP3    H241801   8.012   1.428   5.223
13954TIP3   OH241802   1.136   7.502   1.127
13954TIP3    H141803   1.114   7.476   1.038
13954TIP3    H241804   1.071   7.569   1.149
13955TIP3   OH241805   6.590   2.872   3.770
13955TIP3    H141806   6.661   2.844   3.828
13955TIP3    H241807   6.629   2.872   3.682
13956TIP3   OH241808   3.258   5.668   1.029
13956TIP3    H141809   3.326   5.727   1.061
13956TIP3    H241810   3.194   5.726   0.987
13957TIP3   OH241811   7.958   2.593   2.723
13957TIP3    H141812   7.939   2.671   2.671
13957TIP3    H241813   8.050   2.574   2.706
13958TIP3   OH241814   4.730   2.667   6.719
13958TIP3    H141815   4.798   2.660   6.786
13958TIP3    H241816   4.723   2.761   6.702
13959TIP3   OH241817   6.908   2.733   4.389
13959TIP3    H141818   6.889   2.639   4.388
13959TIP3    H241819   6.996   2.740   4.353
13960TIP3   OH241820   8.197   3.002   5.112
13960TIP3    H141821   8.161   2.968   5.030
13960TIP3    H241822   8.248   3.078   5.085
13961TIP3   OH241823   7.984   3.369   3.974
13961TIP3    H141824   7.915   3.435   3.979
13961TIP3    H241825   8.030   3.389   3.892
13962TIP3   OH241826   1.025   5.143   2.324
13962TIP3    H141827   0.986   5.060   2.299
13962TIP3    H241828   0.988   5.162   2.411
13963TIP3   OH241829   5.347   0.636   3.397
13963TIP3    H141830   5.376   0.710   3.344
13963TIP3    H241831   5.288   0.588   3.339
13964TIP3   OH241832   0.337   6.979   4.046
13964TIP3    H141833   0.293   6.981   4.131
13964TIP3    H241834   0.357   6.887   4.032
13965TIP3   OH241835   0.145   2.823   1.493
13965TIP3    H141836   0.217   2.844   1.553
13965TIP3    H241837   0.136   2.902   1.439
13966TIP3   OH241838   2.053   3.123   2.042
13966TIP3    H141839   1.984   3.088   1.985
13966TIP3    H241840   2.122   3.057   2.039
13967TIP3   OH241841   1.816   6.911   5.837
13967TIP3    H141842   1.757   6.849   5.879
13967TIP3    H241843   1.870   6.858   5.779
13968TIP3   OH241844   1.324   3.094  -0.027
13968TIP3    H141845   1.372   3.013  -0.045
13968TIP3    H241846   1.373   3.136   0.043
13969TIP3   OH241847   0.319   5.261   2.929
13969TIP3    H141848   0.381   5.333   2.939
13969TIP3    H241849   0.247   5.298   2.878
13970TIP3   OH241850   0.273   0.938   2.678
13970TIP3    H141851   0.219   0.987   2.739
13970TIP3    H241852   0.213   0.912   2.608
13971TIP3   OH241853   6.858   2.674   1.018
13971TIP3    H141854   6.799   2.636   0.953
13971TIP3    H241855   6.839   2.767   1.016
13972TIP3   OH241856   0.556   2.220   4.705
13972TIP3    H141857   0.581   2.222   4.798
13972TIP3    H241858   0.639   2.229   4.658
13973TIP3   OH241859   0.885   6.850   3.247
13973TIP3    H141860   0.903   6.939   3.215
13973TIP3    H241861   0.867   6.862   3.340
13974TIP3   OH241862   6.336   6.652   0.413
13974TIP3    H141863   6.283   6.691   0.483
13974TIP3    H241864   6.418   6.701   0.415
13975TIP3   OH241865   1.805   3.356   1.970
13975TIP3    H141866   1.863   3.344   1.895
13975TIP3    H241867   1.746   3.281   1.968
13976TIP3   OH241868   3.731   6.894   4.633
13976TIP3    H141869   3.792   6.931   4.698
13976TIP3    H241870   3.773   6.813   4.605
13977TIP3   OH241871   3.385   1.845   4.648
13977TIP3    H141872   3.460   1.791   4.670
13977TIP3    H241873   3.338   1.857   4.731
13978TIP3   OH241874   7.312   3.589   5.542
13978TIP3    H141875   7.243   3.572   5.606
13978TIP3    H241876   7.284   3.543   5.463
13979TIP3   OH241877   4.230   2.253   5.312
13979TIP3    H141878   4.244   2.262   5.406
13979TIP3    H241879   4.150   2.302   5.295
13980TIP3   OH241880   2.145   5.774   2.592
13980TIP3    H141881   2.076   5.723   2.635
13980TIP3    H241882   2.106   5.802   2.509
13981TIP3   OH241883   5.597   1.976   2.973
13981TIP3    H141884   5.510   2.003   2.944
13981TIP3    H241885   5.632   2.053   3.018
13982TIP3   OH241886   6.071   7.709   3.103
13982TIP3    H141887   6.021   7.763   3.042
13982TIP3    H241888   6.061   7.619   3.069
13983TIP3   OH241889   2.546   0.884   0.220
13983TIP3    H141890   2.477   0.878   0.286
13983TIP3    H241891   2.569   0.977   0.218
13984TIP3   OH241892   3.551   4.159   2.797
13984TIP3    H141893   3.499   4.209   2.860
13984TIP3    H241894   3.639   4.196   2.804
13985TIP3   OH241895   2.932   2.720   2.090
13985TIP3    H141896   2.899   2.749   2.175
13985TIP3    H241897   2.935   2.625   2.096
13986TIP3   OH241898   3.319   5.283   2.627
13986TIP3    H141899   3.306   5.257   2.536
13986TIP3    H241900   3.236   5.262   2.670
13987TIP3   OH241901   6.922   6.313   3.672
13987TIP3    H141902   6.963   6.339   3.590
13987TIP3    H241903   6.834   6.284   3.647
13988TIP3   OH241904   0.586   7.305   6.316
13988TIP3    H141905   0.626   7.355   6.387
13988TIP3    H241906   0.519   7.364   6.279
13989TIP3   OH241907   1.323   4.454   0.948
13989TIP3    H141908   1.251   4.516   0.934
13989TIP3    H241909   1.399   4.509   0.963
13990TIP3   OH241910   6.994   1.100   4.282
13990TIP3    H141911   6.948   1.138   4.207
13990TIP3    H241912   7.075   1.064   4.245
13991TIP3   OH241913   6.074   5.921   6.067
13991TIP3    H141914   6.129   5.999   6.070
13991TIP3    H241915   6.089   5.884   5.980
13992TIP3   OH241916   1.018   0.902   0.121
13992TIP3    H141917   1.067   0.938   0.194
13992TIP3    H241918   1.000   0.978   0.065
13993TIP3   OH241919   7.434   0.013   0.441
13993TIP3    H141920   7.508   0.070   0.462
13993TIP3    H241921   7.411   0.035   0.351
13994TIP3   OH241922   5.936   7.889   3.542
13994TIP3    H141923   5.961   7.797   3.543
13994TIP3    H241924   5.947   7.919   3.632
13995TIP3   OH241925   5.102   5.507   1.876
13995TIP3    H141926   5.114   5.596   1.908
13995TIP3    H241927   5.011   5.504   1.848
13996TIP3   OH241928   0.246   0.366   3.965
13996TIP3    H141929   0.196   0.299   4.011
13996TIP3    H241930   0.203   0.374   3.880
13997TIP3   OH241931   7.519   6.689   5.802
13997TIP3    H141932   7.446   6.746   5.828
13997TIP3    H241933   7.508   6.610   5.854
13998TIP3   OH241934   5.191   4.193   0.750
13998TIP3    H141935   5.121   4.177   0.813
13998TIP3    H241936   5.183   4.123   0.686
13999TIP3   OH241937   4.917   2.575   2.979
13999TIP3    H141938   4.846   2.526   3.020
13999TIP3    H241939   4.940   2.643   3.043
14000TIP3   OH241940   7.491   5.762   1.193
14000TIP3    H141941   7.457   5.783   1.280
14000TIP3    H241942   7.567   5.706   1.209
14001TIP3   OH241943   0.370   3.140   6.312
14001TIP3    H141944   0.312   3.066   6.289
14001TIP3    H241945   0.323   3.217   6.281
14002TIP3   OH241946   8.066   5.251   2.172
14002TIP3    H141947   8.064   5.161   2.202
14002TIP3    H241948   8.010   5.299   2.233
14003TIP3   OH241949   0.079   4.183   1.091
14003TIP3    H141950   0.062   4.274   1.068
14003TIP3    H241951   0.018   4.164   1.163
14004TIP3   OH241952   5.554   0.698   3.561
14004TIP3    H141953   5.480   0.663   3.511
14004TIP3    H241954   5.616   0.729   3.495
14005TIP3   OH241955   6.909   1.138   6.543
14005TIP3    H141956   6.955   1.204   6.491
14005TIP3    H241957   6.851   1.094   6.480
14006TIP3   OH241958   0.954   6.852   5.949
14006TIP3    H141959   1.048   6.843   5.969
14006TIP3    H241960   0.950   6.928   5.890
14007TIP3   OH241961   2.799   0.311   2.655
14007TIP3    H141962   2.745   0.267   2.720
14007TIP3    H241963   2.830   0.390   2.698
14008TIP3   OH241964   7.961   7.860   3.384
14008TIP3    H141965   7.985   7.911   3.306
14008TIP3    H241966   7.866   7.862   3.386
14009TIP3   OH241967   1.219   5.808   4.054
14009TIP3    H141968   1.264   5.735   4.011
14009TIP3    H241969   1.290   5.860   4.093
14010TIP3   OH241970   3.611   5.695   3.953
14010TIP3    H141971   3.618   5.746   4.034
14010TIP3    H241972   3.637   5.757   3.884
14011TIP3   OH241973   1.264   2.133   4.291
14011TIP3    H141974   1.216   2.116   4.210
14011TIP3    H241975   1.294   2.224   4.283
14012TIP3   OH241976   1.312   0.082   3.475
14012TIP3    H141977   1.308  -0.009   3.502
14012TIP3    H241978   1.394   0.115   3.512
14013TIP3   OH241979   1.782   5.805   4.230
14013TIP3    H141980   1.744   5.785   4.144
14013TIP3    H241981   1.836   5.882   4.215
14014TIP3   OH241982   1.051   2.654   2.962
14014TIP3    H141983   1.032   2.577   2.908
14014TIP3    H241984   1.137   2.637   3.000
14015TIP3   OH241985   4.343   2.384   6.416
14015TIP3    H141986   4.270   2.375   6.355
14015TIP3    H241987   4.364   2.478   6.415
14016TIP3   OH241988   2.795   1.655   6.575
14016TIP3    H141989   2.735   1.727   6.595
14016TIP3    H241990   2.840   1.683   6.496
14017TIP3   OH241991   3.327   0.134   2.440
14017TIP3    H141992   3.263   0.101   2.504
14017TIP3    H241993   3.274   0.184   2.377
14018TIP3   OH241994   7.991   1.872   0.871
14018TIP3    H141995   8.044   1.920   0.808
14018TIP3    H241996   7.901   1.888   0.844
14019TIP3   OH241997   5.659   7.403   6.262
14019TIP3    H141998   5.631   7.357   6.342
14019TIP3    H241999   5.577   7.438   6.226
14020TIP3   OH242000   6.784   0.517   2.125
14020TIP3    H142001   6.700   0.551   2.093
14020TIP3    H242002   6.760   0.449   2.187
14021TIP3   OH242003   2.853   7.529   1.940
14021TIP3    H142004   2.879   7.464   1.875
14021TIP3    H242005   2.936   7.563   1.974
14022TIP3   OH242006   5.505   0.971   0.497
14022TIP3    H142007   5.493   1.066   0.501
14022TIP3    H242008   5.481   0.940   0.584
14023TIP3   OH242009   5.274   1.054   5.570
14023TIP3    H142010   5.333   1.120   5.607
14023TIP3    H242011   5.290   1.058   5.475
14024TIP3   OH242012   6.827   5.077   5.983
14024TIP3    H142013   6.892   5.120   6.038
14024TIP3    H242014   6.835   5.121   5.898
14025TIP3   OH242015   0.711   5.932   2.294
14025TIP3    H142016   0.753   5.857   2.253
14025TIP3    H242017   0.622   5.933   2.259
14026TIP3   OH242018   8.013   0.828   6.804
14026TIP3    H142019   7.975   0.867   6.882
14026TIP3    H242020   8.099   0.797   6.832
14027TIP3   OH242021   7.484   6.645   2.401
14027TIP3    H142022   7.452   6.556   2.411
14027TIP3    H242023   7.439   6.695   2.469
14028TIP3   OH242024   0.103   3.735   1.584
14028TIP3    H142025   0.058   3.694   1.658
14028TIP3    H242026   0.147   3.811   1.622
14029TIP3   OH242027   2.053   3.814   6.073
14029TIP3    H142028   2.040   3.880   6.006
14029TIP3    H242029   1.969   3.808   6.118
14030TIP3   OH242030   1.685   0.074   2.909
14030TIP3    H142031   1.733   0.121   2.977
14030TIP3    H242032   1.596   0.109   2.914
14031TIP3   OH242033   5.798   6.210   2.037
14031TIP3    H142034   5.872   6.246   2.087
14031TIP3    H242035   5.784   6.123   2.075
14032TIP3   OH242036   8.055   7.554   5.650
14032TIP3    H142037   8.102   7.526   5.729
14032TIP3    H242038   7.978   7.600   5.683
14033TIP3   OH242039   2.842   0.150   4.386
14033TIP3    H142040   2.824   0.134   4.479
14033TIP3    H242041   2.902   0.080   4.361
14034TIP3   OH242042   1.027   7.087   5.215
14034TIP3    H142043   1.102   7.141   5.192
14034TIP3    H242044   0.998   7.120   5.300
14035TIP3   OH242045   5.198   5.197   3.727
14035TIP3    H142046   5.145   5.257   3.675
14035TIP3    H242047   5.287   5.210   3.696
14036TIP3   OH242048   1.612   0.116   3.894
14036TIP3    H142049   1.692   0.125   3.946
14036TIP3    H242050   1.541   0.122   3.958
14037TIP3   OH242051   4.801   5.937   4.352
14037TIP3    H142052   4.779   5.979   4.269
14037TIP3    H242053   4.871   5.876   4.330
14038TIP3   OH242054   0.081   1.349   3.111
14038TIP3    H142055   0.135   1.272   3.124
14038TIP3    H242056   0.010   1.320   3.054
14039TIP3   OH242057   4.350   2.918   1.195
14039TIP3    H142058   4.419   2.981   1.176
14039TIP3    H242059   4.317   2.892   1.109
14040TIP3   OH242060   4.993   2.759   3.802
14040TIP3    H142061   5.014   2.670   3.828
14040TIP3    H242062   4.969   2.752   3.710
14041TIP3   OH242063   5.145   5.459   3.336
14041TIP3    H142064   5.090   5.474   3.413
14041TIP3    H242065   5.082   5.452   3.264
14042TIP3   OH242066  -0.009   2.089   0.405
14042TIP3    H142067   0.066   2.096   0.463
14042TIP3    H242068  -0.063   2.019   0.443
14043TIP3   OH242069   7.266   3.393   2.924
14043TIP3    H142070   7.210   3.365   2.852
14043TIP3    H242071   7.245   3.333   2.996
14044TIP3   OH242072   8.432   3.806   6.309
14044TIP3    H142073   8.514   3.759   6.322
14044TIP3    H242074   8.364   3.741   6.325
14045TIP3   OH242075   4.148   7.012   3.181
14045TIP3    H142076   4.174   6.982   3.268
14045TIP3    H242077   4.053   7.001   3.179
14046TIP3   OH242078   8.235   0.821   1.594
14046TIP3    H142079   8.164   0.791   1.650
14046TIP3    H242080   8.309   0.764   1.616
14047TIP3   OH242081   2.812   7.335   6.708
14047TIP3    H142082   2.796   7.327   6.614
14047TIP3    H242083   2.852   7.251   6.732
14048TIP3   OH242084   3.726   6.722   0.498
14048TIP3    H142085   3.779   6.713   0.419
14048TIP3    H242086   3.658   6.785   0.474
14049TIP3   OH242087   4.725   0.244   3.372
14049TIP3    H142088   4.796   0.200   3.420
14049TIP3    H242089   4.728   0.205   3.284
14050TIP3   OH242090   2.917   0.372   5.324
14050TIP3    H142091   2.922   0.277   5.329
14050TIP3    H242092   2.831   0.394   5.361
14051TIP3   OH242093   1.268   3.125   1.464
14051TIP3    H142094   1.303   3.061   1.527
14051TIP3    H242095   1.336   3.131   1.397
14052TIP3   OH242096   6.569   1.681   3.696
14052TIP3    H142097   6.546   1.592   3.722
14052TIP3    H242098   6.488   1.717   3.659
14053TIP3   OH242099   6.731   4.956   0.465
14053TIP3    H142100   6.723   5.040   0.510
14053TIP3    H242101   6.677   4.965   0.387
14054TIP3   OH242102   0.645   6.938   2.744
14054TIP3    H142103   0.656   7.019   2.694
14054TIP3    H242104   0.720   6.936   2.803
14055TIP3   OH242105   7.041   3.916   0.297
14055TIP3    H142106   6.974   3.849   0.305
14055TIP3    H242107   7.031   3.950   0.207
14056TIP3   OH242108   5.840   7.089   4.602
14056TIP3    H142109   5.849   7.011   4.656
14056TIP3    H242110   5.929   7.119   4.587
14057TIP3   OH242111   2.928   3.879   4.174
14057TIP3    H142112   2.914   3.913   4.086
14057TIP3    H242113   2.998   3.815   4.164
14058TIP3   OH242114   5.423   6.354   4.482
14058TIP3    H142115   5.487   6.321   4.419
14058TIP3    H242116   5.419   6.448   4.464
14059TIP3   OH242117   4.911   7.906   4.934
14059TIP3    H142118   4.882   7.902   5.025
14059TIP3    H242119   4.955   7.822   4.920
14060TIP3   OH242120   6.848   7.563   4.105
14060TIP3    H142121   6.887   7.598   4.025
14060TIP3    H242122   6.869   7.628   4.172
14061TIP3   OH242123   5.942   3.946   4.296
14061TIP3    H142124   5.999   3.890   4.349
14061TIP3    H242125   5.910   3.890   4.226
14062TIP3   OH242126   6.625   7.774   1.257
14062TIP3    H142127   6.562   7.715   1.215
14062TIP3    H242128   6.711   7.739   1.232
14063TIP3   OH242129   3.406   7.498   1.090
14063TIP3    H142130   3.357   7.512   1.009
14063TIP3    H242131   3.458   7.577   1.101
14064TIP3   OH242132   5.807   6.916   4.232
14064TIP3    H142133   5.816   6.893   4.139
14064TIP3    H242134   5.896   6.915   4.265
14065TIP3   OH242135   1.424   3.084   4.696
14065TIP3    H142136   1.465   2.998   4.685
14065TIP3    H242137   1.363   3.090   4.623
14066TIP3   OH242138   2.031   3.633   4.243
14066TIP3    H142139   2.004   3.567   4.307
14066TIP3    H242140   2.124   3.615   4.227
14067TIP3   OH242141   7.171   1.561   3.179
14067TIP3    H142142   7.131   1.501   3.242
14067TIP3    H242143   7.144   1.648   3.208
14068TIP3   OH242144   3.761   1.087   6.493
14068TIP3    H142145   3.739   1.161   6.436
14068TIP3    H242146   3.726   1.010   6.447
14069TIP3   OH242147   3.039   6.919   2.192
14069TIP3    H142148   3.119   6.932   2.242
14069TIP3    H242149   2.973   6.896   2.257
14070TIP3   OH242150   7.082   2.479   6.647
14070TIP3    H142151   7.039   2.401   6.682
14070TIP3    H242152   7.010   2.534   6.615
14071TIP3   OH242153   2.824   4.477   0.897
14071TIP3    H142154   2.877   4.526   0.833
14071TIP3    H242155   2.840   4.385   0.877
14072TIP3   OH242156   4.820   2.074   3.668
14072TIP3    H142157   4.800   2.000   3.724
14072TIP3    H242158   4.761   2.065   3.593
14073TIP3   OH242159   3.104   7.797   3.604
14073TIP3    H142160   3.124   7.885   3.573
14073TIP3    H242161   3.177   7.775   3.662
14074TIP3   OH242162   2.915   6.418   3.674
14074TIP3    H142163   2.872   6.345   3.631
14074TIP3    H242164   2.844   6.473   3.707
14075TIP3   OH242165   7.744   3.435   3.806
14075TIP3    H142166   7.804   3.509   3.797
14075TIP3    H242167   7.667   3.460   3.755
14076TIP3   OH242168   6.388   6.157   6.271
14076TIP3    H142169   6.406   6.101   6.347
14076TIP3    H242170   6.446   6.232   6.283
14077TIP3   OH242171   1.570   0.725   2.713
14077TIP3    H142172   1.542   0.765   2.795
14077TIP3    H242173   1.665   0.724   2.718
14078TIP3   OH242174   7.853   2.934   2.071
14078TIP3    H142175   7.899   2.962   2.151
14078TIP3    H242176   7.762   2.956   2.087
14079TIP3   OH242177   1.045   0.278   5.442
14079TIP3    H142178   1.133   0.268   5.407
14079TIP3    H242179   1.054   0.342   5.512
14080TIP3   OH242180   6.611   4.431   6.463
14080TIP3    H142181   6.568   4.443   6.379
14080TIP3    H242182   6.540   4.406   6.523
14081TIP3   OH242183   0.809   7.644   4.269
14081TIP3    H142184   0.877   7.682   4.215
14081TIP3    H242185   0.773   7.573   4.217
14082TIP3   OH242186   7.419   7.118   5.733
14082TIP3    H142187   7.407   7.213   5.731
14082TIP3    H242188   7.479   7.103   5.806
14083TIP3   OH242189   0.916   4.053   5.056
14083TIP3    H142190   0.846   4.073   5.118
14083TIP3    H242191   0.932   4.135   5.009
14084TIP3   OH242192   8.314   4.944   5.334
14084TIP3    H142193   8.270   5.007   5.277
14084TIP3    H242194   8.372   4.896   5.275
14085TIP3   OH242195   0.780   7.121   5.724
14085TIP3    H142196   0.795   7.133   5.818
14085TIP3    H242197   0.848   7.174   5.682
14086TIP3   OH242198   5.920   1.324   0.531
14086TIP3    H142199   5.934   1.414   0.504
14086TIP3    H242200   5.934   1.324   0.626
14087TIP3   OH242201   1.441   6.904   4.712
14087TIP3    H142202   1.417   6.865   4.796
14087TIP3    H242203   1.488   6.834   4.665
14088TIP3   OH242204   7.299   7.208   6.186
14088TIP3    H142205   7.264   7.183   6.272
14088TIP3    H242206   7.254   7.290   6.166
14089TIP3   OH242207   6.150   3.487   6.051
14089TIP3    H142208   6.143   3.409   5.996
14089TIP3    H242209   6.171   3.454   6.138
14090TIP3   OH242210   7.673   1.835   2.563
14090TIP3    H142211   7.730   1.857   2.489
14090TIP3    H242212   7.585   1.855   2.531
14091TIP3   OH242213   7.093   3.490   6.671
14091TIP3    H142214   7.065   3.418   6.727
14091TIP3    H242215   7.033   3.486   6.596
14092TIP3   OH242216   1.081   0.922   0.542
14092TIP3    H142217   1.102   0.890   0.630
14092TIP3    H242218   1.154   0.980   0.520
14093TIP3   OH242219   8.189   3.982   2.404
14093TIP3    H142220   8.236   3.998   2.486
14093TIP3    H242221   8.137   3.903   2.420
14094TIP3   OH242222   6.717   2.358   4.937
14094TIP3    H142223   6.676   2.406   4.865
14094TIP3    H242224   6.799   2.326   4.900
14095TIP3   OH242225   0.258   6.269   4.384
14095TIP3    H142226   0.334   6.214   4.363
14095TIP3    H242227   0.296   6.352   4.413
14096TIP3   OH242228   5.164   2.599   6.466
14096TIP3    H142229   5.076   2.574   6.436
14096TIP3    H242230   5.162   2.583   6.560
14097TIP3   OH242231   2.083   0.768   1.730
14097TIP3    H142232   2.144   0.711   1.776
14097TIP3    H242233   2.139   0.820   1.672
14098TIP3   OH242234   7.621   5.925   2.493
14098TIP3    H142235   7.679   5.991   2.453
14098TIP3    H242236   7.652   5.842   2.458
14099TIP3   OH242237   4.728   7.798   6.377
14099TIP3    H142238   4.788   7.743   6.426
14099TIP3    H242239   4.783   7.867   6.339
14100TIP3   OH242240   4.117   7.866   6.405
14100TIP3    H142241   4.184   7.933   6.416
14100TIP3    H242242   4.054   7.883   6.475
14101TIP3   OH242243   6.770   1.335   1.624
14101TIP3    H142244   6.709   1.347   1.697
14101TIP3    H242245   6.713   1.323   1.548
14102TIP3   OH242246   0.043   2.588   1.363
14102TIP3    H142247   0.101   2.519   1.395
14102TIP3    H242248   0.085   2.669   1.392
14103TIP3   OH242249   2.720   0.237   3.602
14103TIP3    H142250   2.776   0.184   3.545
14103TIP3    H242251   2.635   0.195   3.598
14104TIP3   OH242252   5.940   7.359   4.272
14104TIP3    H142253   5.909   7.287   4.217
14104TIP3    H242254   5.885   7.434   4.247
14105TIP3   OH242255   3.341   1.260   2.627
14105TIP3    H142256   3.299   1.294   2.548
14105TIP3    H242257   3.368   1.338   2.676
14106TIP3   OH242258   4.933   6.409   4.854
14106TIP3    H142259   4.871   6.479   4.832
14106TIP3    H242260   4.928   6.349   4.780
14107TIP3   OH242261   2.612   0.252   6.332
14107TIP3    H142262   2.573   0.303   6.403
14107TIP3    H242263   2.706   0.252   6.353
14108TIP3   OH242264   1.254   4.878   2.185
14108TIP3    H142265   1.255   4.890   2.090
14108TIP3    H242266   1.188   4.809   2.199
14109TIP3   OH242267   4.067   0.552   5.184
14109TIP3    H142268   4.150   0.589   5.155
14109TIP3    H242269   4.048   0.597   5.266
14110TIP3   OH242270   1.190   0.286   3.363
14110TIP3    H142271   1.157   0.249   3.282
14110TIP3    H242272   1.233   0.213   3.407
14111TIP3   OH242273   8.318   3.603   5.244
14111TIP3    H142274   8.231   3.616   5.207
14111TIP3    H242275   8.302   3.581   5.336
14112TIP3   OH242276   5.377   6.251   2.682
14112TIP3    H142277   5.380   6.340   2.717
14112TIP3    H242278   5.458   6.211   2.713
14113TIP3   OH242279   5.564   3.546   4.966
14113TIP3    H142280   5.524   3.485   4.904
14113TIP3    H242281   5.640   3.498   5.001
14114TIP3   OH242282   3.907   6.041   0.992
14114TIP3    H142283   3.983   6.064   0.939
14114TIP3    H242284   3.852   5.987   0.934
14115TIP3   OH242285   5.871   0.618   5.563
14115TIP3    H142286   5.801   0.565   5.601
14115TIP3    H242287   5.853   0.616   5.469
14116TIP3   OH242288   3.359   0.294   5.522
14116TIP3    H142289   3.399   0.368   5.566
14116TIP3    H242290   3.305   0.333   5.453
14117TIP3   OH242291   4.860   4.079   5.245
14117TIP3    H142292   4.935   4.138   5.253
14117TIP3    H242293   4.784   4.136   5.259
14118TIP3   OH242294   4.331   1.461   4.184
14118TIP3    H142295   4.335   1.366   4.194
14118TIP3    H242296   4.239   1.483   4.198
14119TIP3   OH242297   4.290   6.207   3.627
14119TIP3    H142298   4.323   6.185   3.541
14119TIP3    H242299   4.217   6.147   3.642
14120TIP3   OH242300   2.418   7.312   1.405
14120TIP3    H142301   2.434   7.406   1.411
14120TIP3    H242302   2.411   7.283   1.496
14121TIP3   OH242303   1.385   6.635   3.919
14121TIP3    H142304   1.346   6.621   3.833
14121TIP3    H242305   1.313   6.670   3.972
14122TIP3   OH242306   0.189   0.111   2.088
14122TIP3    H142307   0.220   0.099   1.998
14122TIP3    H242308   0.220   0.032   2.134
14123TIP3   OH242309   7.076   3.513   1.218
14123TIP3    H142310   7.139   3.546   1.154
14123TIP3    H242311   6.994   3.558   1.197
14124TIP3   OH242312   4.463   7.870   3.862
14124TIP3    H142313   4.540   7.848   3.810
14124TIP3    H242314   4.394   7.888   3.798
14125TIP3   OH242315   1.466   3.214   0.707
14125TIP3    H142316   1.413   3.291   0.686
14125TIP3    H242317   1.538   3.217   0.644
14126TIP3   OH242318   2.283   3.436   0.776
14126TIP3    H142319   2.237   3.485   0.708
14126TIP3    H242320   2.259   3.344   0.760
14127TIP3   OH242321   6.109   1.907   1.222
14127TIP3    H142322   6.176   1.969   1.251
14127TIP3    H242323   6.152   1.858   1.151
14128TIP3   OH242324   4.388   6.218   2.434
14128TIP3    H142325   4.420   6.308   2.437
14128TIP3    H242326   4.466   6.164   2.420
14129TIP3   OH242327   0.509   6.070   0.149
14129TIP3    H142328   0.555   6.047   0.229
14129TIP3    H242329   0.577   6.102   0.090
14130TIP3   OH242330   1.941   2.332   5.749
14130TIP3    H142331   1.901   2.357   5.833
14130TIP3    H242332   1.890   2.379   5.683
14131TIP3   OH242333   0.635   4.571   6.180
14131TIP3    H142334   0.558   4.514   6.188
14131TIP3    H242335   0.628   4.608   6.092
14132TIP3   OH242336   1.434   2.949   3.808
14132TIP3    H142337   1.446   2.867   3.856
14132TIP3    H242338   1.348   2.980   3.834
14133TIP3   OH242339   1.505   4.401   6.322
14133TIP3    H142340   1.536   4.445   6.243
14133TIP3    H242341   1.414   4.378   6.302
14134TIP3   OH242342   0.891   4.270   3.417
14134TIP3    H142343   0.860   4.345   3.367
14134TIP3    H242344   0.970   4.242   3.371
14135TIP3   OH242345   7.823   5.427   6.505
14135TIP3    H142346   7.798   5.358   6.567
14135TIP3    H242347   7.896   5.472   6.548
14136TIP3   OH242348   5.043   7.813   3.068
14136TIP3    H142349   5.034   7.818   2.973
14136TIP3    H242350   5.057   7.903   3.096
14137TIP3   OH242351   2.194   4.758   5.619
14137TIP3    H142352   2.108   4.791   5.593
14137TIP3    H242353   2.256   4.822   5.584
14138TIP3   OH242354   0.657   2.272   1.713
14138TIP3    H142355   0.711   2.329   1.659
14138TIP3    H242356   0.593   2.331   1.753
14139TIP3   OH242357   8.170   4.215   0.599
14139TIP3    H142358   8.208   4.171   0.675
14139TIP3    H242359   8.166   4.308   0.624
14140TIP3   OH242360   2.419   5.578   1.724
14140TIP3    H142361   2.388   5.534   1.803
14140TIP3    H242362   2.409   5.671   1.743
14141TIP3   OH242363   5.811   3.541   1.278
14141TIP3    H142364   5.776   3.474   1.220
14141TIP3    H242365   5.896   3.507   1.306
14142TIP3   OH242366   3.518   7.697   4.250
14142TIP3    H142367   3.546   7.703   4.159
14142TIP3    H242368   3.429   7.734   4.250
14143TIP3   OH242369   1.909   4.033   3.660
14143TIP3    H142370   1.955   4.073   3.735
14143TIP3    H242371   1.939   3.942   3.659
14144TIP3   OH242372   7.416   5.532   5.648
14144TIP3    H142373   7.331   5.529   5.604
14144TIP3    H242374   7.474   5.574   5.585
14145TIP3   OH242375   3.091   2.833   5.921
14145TIP3    H142376   3.044   2.916   5.917
14145TIP3    H242377   3.096   2.813   6.015
14146TIP3   OH242378   2.227   1.472   2.702
14146TIP3    H142379   2.192   1.477   2.791
14146TIP3    H242380   2.318   1.500   2.710
14147TIP3   OH242381   5.010   1.349   5.873
14147TIP3    H142382   5.041   1.419   5.816
14147TIP3    H242383   4.948   1.391   5.933
14148TIP3   OH242384   7.728   7.043   2.965
14148TIP3    H142385   7.645   7.022   2.922
14148TIP3    H242386   7.749   6.964   3.016
14149TIP3   OH242387   2.624   7.493   2.045
14149TIP3    H142388   2.623   7.548   2.123
14149TIP3    H242389   2.712   7.503   2.010
14150TIP3   OH242390   4.648   1.560   3.185
14150TIP3    H142391   4.598   1.478   3.179
14150TIP3    H242392   4.610   1.605   3.260
14151TIP3   OH242393   4.665   7.638   3.937
14151TIP3    H142394   4.755   7.604   3.927
14151TIP3    H242395   4.675   7.719   3.986
14152TIP3   OH242396   4.573   7.169   2.371
14152TIP3    H142397   4.634   7.186   2.300
14152TIP3    H242398   4.488   7.195   2.337
14153TIP3   OH242399   1.041   6.828   0.092
14153TIP3    H142400   1.083   6.877   0.022
14153TIP3    H242401   1.003   6.895   0.149
14154TIP3   OH242402   2.890   5.919   2.994
14154TIP3    H142403   2.985   5.920   3.000
14154TIP3    H242404   2.872   5.896   2.902
14155TIP3   OH242405   4.513   1.626   4.736
14155TIP3    H142406   4.579   1.695   4.730
14155TIP3    H242407   4.548   1.564   4.800
14156TIP3   OH242408   4.144   5.843   4.956
14156TIP3    H142409   4.135   5.881   4.869
14156TIP3    H242410   4.212   5.777   4.947
14157TIP3   OH242411   1.745   3.260   1.394
14157TIP3    H142412   1.805   3.212   1.452
14157TIP3    H242413   1.712   3.331   1.448
14158TIP3   OH242414   6.048   3.036   1.076
14158TIP3    H142415   6.027   2.943   1.085
14158TIP3    H242416   6.049   3.051   0.981
14159TIP3   OH242417   2.035   0.920   3.007
14159TIP3    H142418   2.037   0.904   2.913
14159TIP3    H242419   1.949   0.959   3.023
14160TIP3   OH242420   5.579   5.074   6.304
14160TIP3    H142421   5.534   5.031   6.231
14160TIP3    H242422   5.532   5.157   6.315
14161TIP3   OH242423   8.266   5.924   1.214
14161TIP3    H142424   8.328   5.858   1.183
14161TIP3    H242425   8.214   5.947   1.137
14162TIP3   OH242426   2.619   5.073   1.902
14162TIP3    H142427   2.614   5.166   1.881
14162TIP3    H242428   2.658   5.033   1.824
14163TIP3   OH242429   5.976   2.506   2.732
14163TIP3    H142430   5.927   2.429   2.761
14163TIP3    H242431   5.996   2.553   2.813
14164TIP3   OH242432   6.457   7.270   5.759
14164TIP3    H142433   6.467   7.285   5.665
14164TIP3    H242434   6.547   7.271   5.792
14165TIP3   OH242435   0.705   4.628   3.517
14165TIP3    H142436   0.794   4.624   3.554
14165TIP3    H242437   0.714   4.684   3.440
14166TIP3   OH242438   0.698   3.677   0.336
14166TIP3    H142439   0.720   3.632   0.254
14166TIP3    H242440   0.754   3.754   0.337
14167TIP3   OH242441   0.989   1.617   1.667
14167TIP3    H142442   1.054   1.554   1.698
14167TIP3    H242443   1.036   1.700   1.664
14168TIP3   OH242444   5.411   5.280   3.285
14168TIP3    H142445   5.394   5.374   3.288
14168TIP3    H242446   5.456   5.266   3.202
14169TIP3   OH242447   0.724   4.621   0.021
14169TIP3    H142448   0.732   4.552   0.088
14169TIP3    H242449   0.786   4.688   0.050
14170TIP3   OH242450   0.361   2.650   2.223
14170TIP3    H142451   0.418   2.701   2.165
14170TIP3    H242452   0.402   2.564   2.227
14171TIP3   OH242453   5.530   0.930   6.428
14171TIP3    H142454   5.623   0.919   6.410
14171TIP3    H242455   5.485   0.874   6.364
14172TIP3   OH242456   3.083   7.399   5.149
14172TIP3    H142457   3.114   7.459   5.081
14172TIP3    H242458   3.015   7.448   5.195
14173TIP3   OH242459   3.933   6.316   0.597
14173TIP3    H142460   3.991   6.382   0.634
14173TIP3    H242461   3.847   6.357   0.597
14174TIP3   OH242462   6.023   6.871   6.536
14174TIP3    H142463   6.061   6.920   6.464
14174TIP3    H242464   6.097   6.819   6.570
14175TIP3   OH242465   4.147   7.751   1.231
14175TIP3    H142466   4.062   7.795   1.239
14175TIP3    H242467   4.177   7.740   1.321
14176TIP3   OH242468   7.959   2.695   5.911
14176TIP3    H142469   7.885   2.652   5.869
14176TIP3    H242470   8.016   2.623   5.938
14177TIP3   OH242471   0.441   1.393   1.569
14177TIP3    H142472   0.472   1.404   1.659
14177TIP3    H242473   0.517   1.361   1.522
14178TIP3   OH242474   3.496   3.192   0.254
14178TIP3    H142475   3.524   3.153   0.171
14178TIP3    H242476   3.577   3.228   0.291
14179TIP3   OH242477   4.885   5.008   4.717
14179TIP3    H142478   4.870   4.957   4.797
14179TIP3    H242479   4.855   5.096   4.739
14180TIP3   OH242480   4.226   5.560   3.220
14180TIP3    H142481   4.274   5.638   3.249
14180TIP3    H242482   4.136   5.574   3.248
14181TIP3   OH242483   6.861   4.412   5.473
14181TIP3    H142484   6.866   4.455   5.388
14181TIP3    H242485   6.919   4.336   5.465
14182TIP3   OH242486   7.392   3.274   4.436
14182TIP3    H142487   7.316   3.309   4.390
14182TIP3    H242488   7.437   3.222   4.369
14183TIP3   OH242489   7.973   6.852   1.405
14183TIP3    H142490   7.945   6.870   1.315
14183TIP3    H242491   8.068   6.841   1.398
14184TIP3   OH242492   8.231   1.754   1.547
14184TIP3    H142493   8.256   1.746   1.455
14184TIP3    H242494   8.282   1.829   1.579
14185TIP3   OH242495   3.888   0.964   3.177
14185TIP3    H142496   3.916   0.913   3.101
14185TIP3    H242497   3.798   0.936   3.193
14186TIP3   OH242498   3.747   2.911   0.085
14186TIP3    H142499   3.791   2.985   0.044
14186TIP3    H242500   3.659   2.912   0.047
14187TIP3   OH242501   7.607   5.596   1.532
14187TIP3    H142502   7.702   5.597   1.523
14187TIP3    H242503   7.588   5.520   1.586
14188TIP3   OH242504   2.825   7.084   5.196
14188TIP3    H142505   2.783   6.998   5.190
14188TIP3    H242506   2.875   7.080   5.278
14189TIP3   OH242507   2.039   1.470   5.545
14189TIP3    H142508   2.058   1.439   5.457
14189TIP3    H242509   2.124   1.477   5.588
14190TIP3   OH242510   2.887   4.658   4.294
14190TIP3    H142511   2.878   4.619   4.207
14190TIP3    H242512   2.806   4.708   4.306
14191TIP3   OH242513   5.478   1.519   4.612
14191TIP3    H142514   5.476   1.444   4.672
14191TIP3    H242515   5.401   1.570   4.636
14192TIP3   OH242516   6.653   7.085   4.670
14192TIP3    H142517   6.743   7.061   4.647
14192TIP3    H242518   6.633   7.033   4.747
14193TIP3   OH242519   5.847   2.518   2.490
14193TIP3    H142520   5.766   2.526   2.541
14193TIP3    H242521   5.916   2.542   2.551
14194TIP3   OH242522   8.330   1.596   0.997
14194TIP3    H142523   8.287   1.662   1.052
14194TIP3    H242524   8.360   1.529   1.058
14195TIP3   OH242525   2.953   0.516   4.068
14195TIP3    H142526   2.955   0.487   3.977
14195TIP3    H242527   2.924   0.440   4.117
14196TIP3   OH242528   7.211   7.470   3.102
14196TIP3    H142529   7.297   7.509   3.090
14196TIP3    H242530   7.160   7.537   3.147
14197TIP3   OH242531   3.358   6.596   4.764
14197TIP3    H142532   3.289   6.625   4.823
14197TIP3    H242533   3.424   6.556   4.821
14198TIP3   OH242534   7.965   1.217   3.202
14198TIP3    H142535   7.945   1.233   3.294
14198TIP3    H242536   8.028   1.145   3.203
14199TIP3   OH242537   7.388   4.009   0.917
14199TIP3    H142538   7.471   4.056   0.911
14199TIP3    H242539   7.410   3.918   0.896
14200TIP3   OH242540   1.133   5.142   4.667
14200TIP3    H142541   1.127   5.051   4.695
14200TIP3    H242542   1.212   5.145   4.612
14201TIP3   OH242543   1.808   0.323   2.011
14201TIP3    H142544   1.902   0.312   1.995
14201TIP3    H242545   1.785   0.253   2.072
14202TIP3   OH242546   5.728   6.181   5.720
14202TIP3    H142547   5.665   6.149   5.785
14202TIP3    H242548   5.710   6.129   5.641
14203TIP3   OH242549   0.367   4.056   5.672
14203TIP3    H142550   0.361   4.017   5.585
14203TIP3    H242551   0.380   3.981   5.731
14204TIP3   OH242552   7.334   2.175   6.401
14204TIP3    H142553   7.343   2.091   6.356
14204TIP3    H242554   7.246   2.204   6.380
14205TIP3   OH242555   2.426   2.761   4.325
14205TIP3    H142556   2.387   2.675   4.343
14205TIP3    H242557   2.506   2.741   4.277
14206TIP3   OH242558   6.257   7.788   3.524
14206TIP3    H142559   6.235   7.790   3.617
14206TIP3    H242560   6.240   7.698   3.497
14207TIP3   OH242561   6.972   0.496   1.771
14207TIP3    H142562   7.006   0.468   1.857
14207TIP3    H242563   7.041   0.471   1.709
14208TIP3   OH242564   2.202   3.331   1.960
14208TIP3    H142565   2.239   3.363   2.042
14208TIP3    H242566   2.142   3.261   1.986
14209TIP3   OH242567   3.217   7.343   2.373
14209TIP3    H142568   3.278   7.273   2.346
14209TIP3    H242569   3.194   7.322   2.463
14210TIP3   OH242570   5.520   4.116   3.646
14210TIP3    H142571   5.574   4.158   3.713
14210TIP3    H242572   5.483   4.189   3.596
14211TIP3   OH242573   7.005   3.851   1.830
14211TIP3    H142574   6.942   3.878   1.898
14211TIP3    H242575   7.085   3.899   1.852
14212TIP3   OH242576   0.119   6.810   2.686
14212TIP3    H142577   0.154   6.804   2.597
14212TIP3    H242578   0.194   6.792   2.742
14213TIP3   OH242579   7.302   2.930   0.143
14213TIP3    H142580   7.354   2.917   0.065
14213TIP3    H242581   7.219   2.887   0.125
14214TIP3   OH242582   6.593   7.788   1.535
14214TIP3    H142583   6.581   7.784   1.440
14214TIP3    H242584   6.530   7.855   1.564
14215TIP3   OH242585   8.224   4.109   4.493
14215TIP3    H142586   8.205   4.100   4.399
14215TIP3    H242587   8.266   4.195   4.501
14216TIP3   OH242588   5.809   6.823   0.479
14216TIP3    H142589   5.853   6.741   0.500
14216TIP3    H242590   5.780   6.813   0.389
14217TIP3   OH242591   7.291   0.207   3.650
14217TIP3    H142592   7.202   0.240   3.665
14217TIP3    H242593   7.283   0.149   3.574
14218TIP3   OH242594   7.952   6.971   0.059
14218TIP3    H142595   7.958   7.058   0.099
14218TIP3    H242596   8.017   6.919   0.106
14219TIP3   OH242597   7.414   7.891   1.479
14219TIP3    H142598   7.427   7.803   1.515
14219TIP3    H242599   7.498   7.914   1.440
14220TIP3   OH242600   3.547   1.878   4.361
14220TIP3    H142601   3.454   1.856   4.358
14220TIP3    H242602   3.569   1.873   4.454
14221TIP3   OH242603   3.694   6.696   6.776
14221TIP3    H142604   3.752   6.769   6.753
14221TIP3    H242605   3.720   6.672   6.864
14222TIP3   OH242606   0.282   3.944   6.795
14222TIP3    H142607   0.304   4.005   6.724
14222TIP3    H242608   0.218   3.885   6.756
14223TIP3   OH242609   1.865   1.714   3.079
14223TIP3    H142610   1.842   1.625   3.105
14223TIP3    H242611   1.938   1.737   3.137
14224TIP3   OH242612   4.287   5.829   1.573
14224TIP3    H142613   4.374   5.816   1.536
14224TIP3    H242614   4.298   5.812   1.667
14225TIP3   OH242615   1.538   4.040   3.515
14225TIP3    H142616   1.604   4.004   3.457
14225TIP3    H242617   1.493   3.964   3.551
14226TIP3   OH242618   2.153   6.914   0.999
14226TIP3    H142619   2.109   6.865   0.930
14226TIP3    H242620   2.240   6.931   0.964
14227TIP3   OH242621   0.471   4.864   2.442
14227TIP3    H142622   0.377   4.869   2.427
14227TIP3    H242623   0.507   4.942   2.399
14228TIP3   OH242624   7.707   4.162   4.746
14228TIP3    H142625   7.682   4.132   4.833
14228TIP3    H242626   7.680   4.092   4.687
14229TIP3   OH242627   2.786   7.407   4.226
14229TIP3    H142628   2.813   7.481   4.281
14229TIP3    H242629   2.867   7.359   4.210
14230TIP3   OH242630   6.568   4.928   1.181
14230TIP3    H142631   6.571   5.003   1.240
14230TIP3    H242632   6.486   4.938   1.133
14231TIP3   OH242633   1.444   0.242   0.071
14231TIP3    H142634   1.531   0.253   0.110
14231TIP3    H242635   1.434   0.317   0.013
14232TIP3   OH242636   3.804   1.482   6.714
14232TIP3    H142637   3.873   1.481   6.648
14232TIP3    H242638   3.729   1.523   6.671
14233TIP3   OH242639   3.030   3.401   3.886
14233TIP3    H142640   3.072   3.365   3.808
14233TIP3    H242641   3.098   3.402   3.952
14234TIP3   OH242642   2.226   3.339   5.890
14234TIP3    H142643   2.146   3.286   5.891
14234TIP3    H242644   2.195   3.430   5.897
14235TIP3   OH242645   2.639   3.933   0.112
14235TIP3    H142646   2.634   4.013   0.060
14235TIP3    H242647   2.549   3.919   0.143
14236TIP3   OH242648   5.517   0.414   3.876
14236TIP3    H142649   5.437   0.403   3.823
14236TIP3    H242650   5.588   0.409   3.812
14237TIP3   OH242651   5.388   6.194   2.103
14237TIP3    H142652   5.332   6.128   2.144
14237TIP3    H242653   5.433   6.236   2.175
14238TIP3   OH242654   7.631   2.101   3.274
14238TIP3    H142655   7.579   2.134   3.201
14238TIP3    H242656   7.652   2.011   3.250
14239TIP3   OH242657   3.280   0.490   4.091
14239TIP3    H142658   3.189   0.466   4.108
14239TIP3    H242659   3.309   0.429   4.023
14240TIP3   OH242660   6.359   0.850   2.540
14240TIP3    H142661   6.376   0.907   2.615
14240TIP3    H242662   6.445   0.820   2.512
14241TIP3   OH242663   4.381   3.854   5.550
14241TIP3    H142664   4.420   3.817   5.471
14241TIP3    H242665   4.357   3.943   5.525
14242TIP3   OH242666   5.606   6.965   5.192
14242TIP3    H142667   5.613   7.009   5.276
14242TIP3    H242668   5.674   6.897   5.194
14243TIP3   OH242669   1.544   0.065   3.635
14243TIP3    H142670   1.558   0.055   3.729
14243TIP3    H242671   1.590  -0.009   3.596
14244TIP3   OH242672   6.916   1.825   1.650
14244TIP3    H142673   6.830   1.864   1.664
14244TIP3    H242674   6.898   1.734   1.626
14245TIP3   OH242675   0.904   4.604   1.932
14245TIP3    H142676   0.942   4.522   1.961
14245TIP3    H242677   0.816   4.581   1.902
14246TIP3   OH242678   2.354   6.215   0.608
14246TIP3    H142679   2.285   6.278   0.632
14246TIP3    H242680   2.426   6.236   0.667
14247TIP3   OH242681   4.291   7.780   4.081
14247TIP3    H142682   4.357   7.842   4.050
14247TIP3    H242683   4.284   7.797   4.175
14248TIP3   OH242684   5.018   2.446   0.648
14248TIP3    H142685   5.025   2.489   0.562
14248TIP3    H242686   5.109   2.432   0.675
14249TIP3   OH242687   0.755   3.540   3.836
14249TIP3    H142688   0.816   3.492   3.779
14249TIP3    H242689   0.744   3.624   3.793
14250TIP3   OH242690   7.791   4.185   3.120
14250TIP3    H142691   7.849   4.110   3.134
14250TIP3    H242692   7.717   4.149   3.072
14251TIP3   OH242693   1.558   7.847   0.401
14251TIP3    H142694   1.463   7.857   0.395
14251TIP3    H242695   1.577   7.768   0.352
14252TIP3   OH242696   2.419   7.340   0.942
14252TIP3    H142697   2.480   7.409   0.967
14252TIP3    H242698   2.429   7.273   1.010
14253TIP3   OH242699   1.455   7.727   5.132
14253TIP3    H142700   1.444   7.728   5.037
14253TIP3    H242701   1.544   7.759   5.147
14254TIP3   OH242702   3.607   5.193   3.905
14254TIP3    H142703   3.656   5.173   3.985
14254TIP3    H242704   3.576   5.283   3.917
14255TIP3   OH242705   2.943   1.509   4.185
14255TIP3    H142706   2.909   1.424   4.157
14255TIP3    H242707   2.944   1.561   4.104
14256TIP3   OH242708   0.538   1.427   1.859
14256TIP3    H142709   0.593   1.349   1.872
14256TIP3    H242710   0.578   1.494   1.914
14257TIP3   OH242711   1.953   2.459   5.419
14257TIP3    H142712   1.882   2.400   5.392
14257TIP3    H242713   2.022   2.443   5.355
14258TIP3   OH242714   4.241   6.716   3.841
14258TIP3    H142715   4.269   6.701   3.751
14258TIP3    H242716   4.296   6.658   3.894
14259TIP3   OH242717   4.568   6.879   5.789
14259TIP3    H142718   4.630   6.829   5.737
14259TIP3    H242719   4.517   6.929   5.725
14260TIP3   OH242720   3.384   5.250   4.150
14260TIP3    H142721   3.359   5.285   4.236
14260TIP3    H242722   3.418   5.325   4.102
14261TIP3   OH242723   0.315   2.255   5.785
14261TIP3    H142724   0.379   2.283   5.851
14261TIP3    H242725   0.274   2.177   5.823
14262TIP3   OH242726   7.694   5.947   3.756
14262TIP3    H142727   7.676   5.885   3.827
14262TIP3    H242728   7.789   5.946   3.747
14263TIP3   OH242729   5.539   2.666   0.571
14263TIP3    H142730   5.565   2.751   0.536
14263TIP3    H242731   5.584   2.603   0.514
14264TIP3   OH242732   6.352   6.878   3.574
14264TIP3    H142733   6.400   6.798   3.551
14264TIP3    H242734   6.290   6.850   3.642
14265TIP3   OH242735   7.013   6.723   3.330
14265TIP3    H142736   6.944   6.710   3.395
14265TIP3    H242737   7.094   6.724   3.381
14266TIP3   OH242738   8.424   2.204   4.848
14266TIP3    H142739   8.420   2.114   4.817
14266TIP3    H242740   8.412   2.258   4.770
14267TIP3   OH242741   7.283   4.357   5.858
14267TIP3    H142742   7.191   4.367   5.879
14267TIP3    H242743   7.315   4.446   5.844
14268TIP3   OH242744   5.232   2.953   5.496
14268TIP3    H142745   5.143   2.978   5.523
14268TIP3    H242746   5.251   3.010   5.422
14269TIP3   OH242747   8.203   2.688   1.391
14269TIP3    H142748   8.280   2.631   1.386
14269TIP3    H242749   8.177   2.685   1.483
14270TIP3   OH242750   3.179   2.245   4.925
14270TIP3    H142751   3.154   2.289   5.007
14270TIP3    H242752   3.224   2.312   4.875
14271TIP3   OH242753   3.710   2.500   0.152
14271TIP3    H142754   3.664   2.416   0.153
14271TIP3    H242755   3.653   2.559   0.103
14272TIP3   OH242756   5.758   4.477   1.141
14272TIP3    H142757   5.702   4.483   1.219
14272TIP3    H242758   5.825   4.544   1.155
14273TIP3   OH242759   0.376   0.190   6.227
14273TIP3    H142760   0.448   0.250   6.248
14273TIP3    H242761   0.313   0.202   6.297
14274TIP3   OH242762   2.211   3.611   5.988
14274TIP3    H142763   2.237   3.575   6.073
14274TIP3    H242764   2.142   3.674   6.009
14275TIP3   OH242765   5.022   5.863   1.890
14275TIP3    H142766   5.112   5.832   1.877
14275TIP3    H242767   5.010   5.864   1.985
14276TIP3   OH242768   1.082   7.415   2.378
14276TIP3    H142769   1.078   7.501   2.420
14276TIP3    H242770   0.990   7.392   2.363
14277TIP3   OH242771   7.095   1.383   6.219
14277TIP3    H142772   7.094   1.374   6.315
14277TIP3    H242773   7.118   1.475   6.205
14278TIP3   OH242774   1.614   4.139   0.091
14278TIP3    H142775   1.708   4.145   0.072
14278TIP3    H242776   1.603   4.191   0.171
14279TIP3   OH242777   3.303   7.797   6.639
14279TIP3    H142778   3.281   7.796   6.732
14279TIP3    H242779   3.368   7.727   6.630
14280TIP3   OH242780   2.076   6.673   1.673
14280TIP3    H142781   2.024   6.752   1.656
14280TIP3    H242782   2.141   6.701   1.738
14281TIP3   OH242783   0.728   2.944   2.128
14281TIP3    H142784   0.786   2.879   2.169
14281TIP3    H242785   0.676   2.979   2.200
14282TIP3   OH242786   6.291   4.393   3.206
14282TIP3    H142787   6.226   4.364   3.143
14282TIP3    H242788   6.374   4.359   3.172
14283TIP3   OH242789   6.299   1.980   6.618
14283TIP3    H142790   6.387   1.945   6.632
14283TIP3    H242791   6.258   1.916   6.560
14284TIP3   OH242792   7.120   0.201   0.745
14284TIP3    H142793   7.210   0.222   0.772
14284TIP3    H242794   7.077   0.286   0.738
14285TIP3   OH242795   3.077   0.312   5.929
14285TIP3    H142796   3.069   0.316   6.025
14285TIP3    H242797   3.004   0.365   5.897
14286TIP3   OH242798   1.776   7.323   4.911
14286TIP3    H142799   1.821   7.387   4.856
14286TIP3    H242800   1.746   7.373   4.986
14287TIP3   OH242801   5.266   1.717   2.941
14287TIP3    H142802   5.228   1.678   2.863
14287TIP3    H242803   5.293   1.804   2.914
14288TIP3   OH242804   3.030   2.212   2.015
14288TIP3    H142805   3.097   2.200   2.082
14288TIP3    H242806   3.078   2.236   1.937
14289TIP3   OH242807   4.802   5.599   3.399
14289TIP3    H142808   4.867   5.636   3.459
14289TIP3    H242809   4.722   5.647   3.418
14290TIP3   OH242810   0.635   7.351   2.271
14290TIP3    H142811   0.673   7.266   2.292
14290TIP3    H242812   0.688   7.414   2.320
14291TIP3   OH242813   5.045   7.190   5.094
14291TIP3    H142814   5.061   7.129   5.166
14291TIP3    H242815   5.119   7.251   5.098
14292TIP3   OH242816   8.254   3.507   1.346
14292TIP3    H142817   8.183   3.530   1.286
14292TIP3    H242818   8.253   3.411   1.349
14293TIP3   OH242819   3.746   7.175   0.862
14293TIP3    H142820   3.832   7.133   0.870
14293TIP3    H242821   3.747   7.216   0.776
14294TIP3   OH242822   5.761   6.722   5.943
14294TIP3    H142823   5.693   6.787   5.926
14294TIP3    H242824   5.722   6.639   5.915
14295TIP3   OH242825   4.692   4.275   2.627
14295TIP3    H142826   4.758   4.265   2.695
14295TIP3    H242827   4.666   4.186   2.605
14296TIP3   OH242828   7.593   3.910   5.886
14296TIP3    H142829   7.593   3.941   5.796
14296TIP3    H242830   7.678   3.866   5.897
14297TIP3   OH242831   1.916   2.149   2.661
14297TIP3    H142832   1.883   2.157   2.572
14297TIP3    H242833   1.991   2.091   2.654
14298TIP3   OH242834   1.547   7.039   0.033
14298TIP3    H142835   1.522   6.968   0.092
14298TIP3    H242836   1.625   7.077   0.075
14299TIP3   OH242837   2.171   6.400   0.361
14299TIP3    H142838   2.222   6.322   0.340
14299TIP3    H242839   2.093   6.367   0.406
14300TIP3   OH242840   1.158   0.675   4.642
14300TIP3    H142841   1.220   0.671   4.715
14300TIP3    H242842   1.083   0.623   4.671
14301TIP3   OH242843   1.941   2.724   2.480
14301TIP3    H142844   1.872   2.789   2.493
14301TIP3    H242845   2.009   2.772   2.432
14302TIP3   OH242846   6.323   7.121   0.640
14302TIP3    H142847   6.364   7.143   0.723
14302TIP3    H242848   6.284   7.035   0.654
14303TIP3   OH242849   5.215   4.591   5.777
14303TIP3    H142850   5.194   4.647   5.702
14303TIP3    H242851   5.294   4.629   5.814
14304TIP3   OH242852   4.833   1.744   5.439
14304TIP3    H142853   4.901   1.753   5.372
14304TIP3    H242854   4.862   1.802   5.510
14305TIP3   OH242855   0.776   4.836   2.003
14305TIP3    H142856   0.830   4.760   1.983
14305TIP3    H242857   0.697   4.824   1.950
14306TIP3   OH242858   4.555   6.710   3.055
14306TIP3    H142859   4.496   6.679   3.124
14306TIP3    H242860   4.524   6.667   2.975
14307TIP3   OH242861   4.068   4.858   5.801
14307TIP3    H142862   3.973   4.866   5.801
14307TIP3    H242863   4.100   4.945   5.825
14308TIP3   OH242864   5.086   0.235   2.247
14308TIP3    H142865   4.997   0.202   2.229
14308TIP3    H242866   5.125   0.168   2.302
14309TIP3   OH242867   6.913   0.830   4.780
14309TIP3    H142868   6.991   0.886   4.778
14309TIP3    H242869   6.946   0.741   4.772
14310TIP3   OH242870   4.079   7.067   5.201
14310TIP3    H142871   4.000   7.112   5.172
14310TIP3    H242872   4.075   6.981   5.157
14311TIP3   OH242873   4.833   0.613   3.302
14311TIP3    H142874   4.768   0.554   3.341
14311TIP3    H242875   4.853   0.676   3.371
14312TIP3   OH242876   8.038   7.167   0.444
14312TIP3    H142877   8.003   7.180   0.532
14312TIP3    H242878   7.961   7.155   0.389
14313TIP3   OH242879   3.759   0.834   2.146
14313TIP3    H142880   3.845   0.800   2.171
14313TIP3    H242881   3.714   0.850   2.229
14314TIP3   OH242882   5.157   4.823   5.633
14314TIP3    H142883   5.117   4.870   5.560
14314TIP3    H242884   5.223   4.883   5.668
14315TIP3   OH242885   2.808   3.507   5.384
14315TIP3    H142886   2.750   3.531   5.457
14315TIP3    H242887   2.753   3.454   5.327
14316TIP3   OH242888   5.210   6.544   3.418
14316TIP3    H142889   5.295   6.589   3.420
14316TIP3    H242890   5.160   6.591   3.352
14317TIP3   OH242891   5.570   1.861   0.334
14317TIP3    H142892   5.508   1.917   0.380
14317TIP3    H242893   5.630   1.921   0.290
14318TIP3   OH242894   7.909   1.501   4.881
14318TIP3    H142895   7.879   1.539   4.799
14318TIP3    H242896   7.987   1.451   4.858
14319TIP3   OH242897   2.542   5.025   3.134
14319TIP3    H142898   2.575   4.937   3.120
14319TIP3    H242899   2.552   5.069   3.049
14320TIP3   OH242900   1.731   7.019   5.585
14320TIP3    H142901   1.736   6.994   5.677
14320TIP3    H242902   1.792   6.959   5.541
14321TIP3   OH242903   5.094   7.382   3.259
14321TIP3    H142904   5.107   7.302   3.311
14321TIP3    H242905   5.074   7.350   3.171
14322TIP3   OH242906   4.236   7.457   6.766
14322TIP3    H142907   4.242   7.552   6.759
14322TIP3    H242908   4.258   7.438   6.857
14323TIP3   OH242909   6.883   0.916   0.353
14323TIP3    H142910   6.956   0.875   0.306
14323TIP3    H242911   6.825   0.844   0.376
14324TIP3   OH242912   7.940   2.130   1.211
14324TIP3    H142913   7.896   2.119   1.295
14324TIP3    H242914   7.968   2.222   1.210
14325TIP3   OH242915   0.552   4.611   1.529
14325TIP3    H142916   0.544   4.660   1.611
14325TIP3    H242917   0.479   4.549   1.530
14326TIP3   OH242918   8.030   0.642   1.725
14326TIP3    H142919   7.978   0.621   1.803
14326TIP3    H242920   8.071   0.559   1.700
14327TIP3   OH242921   7.993   6.154   3.682
14327TIP3    H142922   7.921   6.192   3.631
14327TIP3    H242923   8.016   6.074   3.634
14328TIP3   OH242924   3.367   5.169   1.230
14328TIP3    H142925   3.456   5.200   1.247
14328TIP3    H242926   3.362   5.087   1.278
14329TIP3   OH242927   3.038   7.622   4.577
14329TIP3    H142928   3.121   7.663   4.599
14329TIP3    H242929   3.062   7.539   4.537
14330TIP3   OH242930   3.888   7.025   2.379
14330TIP3    H142931   3.902   7.119   2.371
14330TIP3    H242932   3.976   6.987   2.385
14331TIP3   OH242933   4.646   3.229   3.355
14331TIP3    H142934   4.666   3.322   3.367
14331TIP3    H242935   4.655   3.191   3.442
14332TIP3   OH242936   4.396   2.065   4.293
14332TIP3    H142937   4.422   1.990   4.345
14332TIP3    H242938   4.460   2.133   4.314
14333TIP3   OH242939   3.049   0.467   1.110
14333TIP3    H142940   3.011   0.502   1.190
14333TIP3    H242941   3.115   0.405   1.140
14334TIP3   OH242942   3.460   6.126   1.602
14334TIP3    H142943   3.538   6.164   1.562
14334TIP3    H242944   3.493   6.055   1.658
14335TIP3   OH242945   7.254   3.193   6.103
14335TIP3    H142946   7.206   3.212   6.184
14335TIP3    H242947   7.344   3.221   6.122
14336TIP3   OH242948   1.553   1.215   4.396
14336TIP3    H142949   1.587   1.162   4.469
14336TIP3    H242950   1.513   1.291   4.439
14337TIP3   OH242951   4.329   2.925   6.654
14337TIP3    H142952   4.253   2.977   6.629
14337TIP3    H242953   4.306   2.889   6.740
14338TIP3   OH242954   2.465   7.828   1.240
14338TIP3    H142955   2.537   7.832   1.178
14338TIP3    H242956   2.476   7.904   1.296
14339TIP3   OH242957   4.114   6.217   5.394
14339TIP3    H142958   4.103   6.308   5.367
14339TIP3    H242959   4.110   6.167   5.312
14340TIP3   OH242960   2.710   1.993   0.579
14340TIP3    H142961   2.709   2.013   0.486
14340TIP3    H242962   2.624   2.022   0.611
14341TIP3   OH242963   4.647   6.468   4.206
14341TIP3    H142964   4.589   6.478   4.281
14341TIP3    H242965   4.732   6.500   4.236
14342TIP3   OH242966   2.674   2.379   1.471
14342TIP3    H142967   2.588   2.336   1.474
14342TIP3    H242968   2.702   2.384   1.562
14343TIP3   OH242969   6.735   0.126   0.363
14343TIP3    H142970   6.691   0.210   0.347
14343TIP3    H242971   6.678   0.081   0.425
14344TIP3   OH242972   4.936   6.263   5.881
14344TIP3    H142973   4.945   6.251   5.786
14344TIP3    H242974   5.018   6.231   5.917
14345TIP3   OH242975   5.573   1.081   1.396
14345TIP3    H142976   5.610   1.054   1.312
14345TIP3    H242977   5.486   1.042   1.398
14346TIP3   OH242978   4.894   6.559   2.302
14346TIP3    H142979   4.897   6.505   2.381
14346TIP3    H242980   4.917   6.500   2.231
14347TIP3   OH242981   8.361   6.193   5.455
14347TIP3    H142982   8.288   6.254   5.448
14347TIP3    H242983   8.424   6.237   5.512
14348TIP3   OH242984   3.839   4.642   3.771
14348TIP3    H142985   3.748   4.634   3.742
14348TIP3    H242986   3.870   4.552   3.778
14349TIP3   OH242987   2.674   6.618   0.545
14349TIP3    H142988   2.604   6.683   0.539
14349TIP3    H242989   2.648   6.549   0.485
14350TIP3   OH242990   2.084   4.439   2.457
14350TIP3    H142991   2.039   4.522   2.475
14350TIP3    H242992   2.016   4.383   2.417
14351TIP3   OH242993   7.250   7.433   2.484
14351TIP3    H142994   7.337   7.412   2.517
14351TIP3    H242995   7.237   7.525   2.507
14352TIP3   OH242996   4.205   3.374   5.372
14352TIP3    H142997   4.228   3.463   5.399
14352TIP3    H242998   4.250   3.318   5.434
14353TIP3   OH242999   5.943   0.555   4.966
14353TIP3    H143000   5.859   0.588   4.999
14353TIP3    H243001   6.009   0.609   5.011
14354TIP3   OH243002   2.795   3.226   6.079
14354TIP3    H143003   2.818   3.315   6.106
14354TIP3    H243004   2.715   3.236   6.027
14355TIP3   OH243005   0.670   7.291   2.773
14355TIP3    H143006   0.646   7.336   2.854
14355TIP3    H243007   0.757   7.256   2.789
14356TIP3   OH243008   7.491   7.580   5.556
14356TIP3    H143009   7.558   7.648   5.568
14356TIP3    H243010   7.525   7.523   5.488
14357TIP3   OH243011   1.535   4.910   2.203
14357TIP3    H143012   1.464   4.853   2.231
14357TIP3    H243013   1.492   4.982   2.156
14358TIP3   OH243014   0.043   7.289   5.739
14358TIP3    H143015   0.078   7.262   5.654
14358TIP3    H243016  -0.051   7.297   5.724
14359TIP3   OH243017   3.053   5.716   6.320
14359TIP3    H143018   2.997   5.649   6.281
14359TIP3    H243019   3.092   5.761   6.245
14360TIP3   OH243020   0.991   2.871   5.854
14360TIP3    H143021   1.039   2.882   5.936
14360TIP3    H243022   0.903   2.904   5.872
14361TIP3   OH243023   5.058   3.238   5.742
14361TIP3    H143024   5.114   3.298   5.694
14361TIP3    H243025   5.002   3.295   5.796
14362TIP3   OH243026   3.697   3.398   3.957
14362TIP3    H143027   3.781   3.362   3.985
14362TIP3    H243028   3.633   3.355   4.013
14363TIP3   OH243029   3.205   2.549   0.115
14363TIP3    H143030   3.151   2.484   0.070
14363TIP3    H243031   3.157   2.570   0.194
14364TIP3   OH243032   4.736   3.479   5.615
14364TIP3    H143033   4.768   3.565   5.641
14364TIP3    H243034   4.808   3.441   5.564
14365TIP3   OH243035   4.111   0.698   4.483
14365TIP3    H143036   4.048   0.626   4.491
14365TIP3    H243037   4.057   0.777   4.481
14366TIP3   OH243038   0.251   5.283   5.136
14366TIP3    H143039   0.241   5.215   5.204
14366TIP3    H243040   0.333   5.326   5.157
14367TIP3   OH243041   0.392   1.681   5.514
14367TIP3    H143042   0.339   1.760   5.503
14367TIP3    H243043   0.437   1.670   5.430
14368TIP3   OH243044   0.178   4.856   3.269
14368TIP3    H143045   0.106   4.815   3.318
14368TIP3    H243046   0.218   4.784   3.220
14369TIP3   OH243047   5.617   7.207   6.449
14369TIP3    H143048   5.696   7.244   6.490
14369TIP3    H243049   5.608   7.120   6.489
14370TIP3   OH243050   3.479   0.022   2.675
14370TIP3    H143051   3.474   0.114   2.652
14370TIP3    H243052   3.403  -0.018   2.632
14371TIP3   OH243053   4.010   4.028   5.794
14371TIP3    H143054   3.957   4.084   5.851
14371TIP3    H243055   3.963   4.027   5.711
14372TIP3   OH243056   8.325   4.599   1.013
14372TIP3    H143057   8.253   4.632   0.961
14372TIP3    H243058   8.283   4.549   1.083
14373TIP3   OH243059   4.984   5.471   2.809
14373TIP3    H143060   5.055   5.499   2.752
14373TIP3    H243061   5.005   5.381   2.832
14374TIP3   OH243062   7.708   7.811   2.812
14374TIP3    H143063   7.660   7.761   2.746
14374TIP3    H243064   7.645   7.875   2.845
14375TIP3   OH243065   7.011   3.215   5.757
14375TIP3    H143066   7.020   3.215   5.662
14375TIP3    H243067   6.948   3.284   5.776
14376TIP3   OH243068   5.989   2.843   0.257
14376TIP3    H143069   6.041   2.763   0.253
14376TIP3    H243070   5.938   2.834   0.338
14377TIP3   OH243071   7.269   3.932   4.253
14377TIP3    H143072   7.316   4.015   4.243
14377TIP3    H243073   7.258   3.922   4.347
14378TIP3   OH243074   7.641   4.747   1.423
14378TIP3    H143075   7.599   4.811   1.481
14378TIP3    H243076   7.579   4.674   1.419
14379TIP3   OH243077   3.939   7.321   1.203
14379TIP3    H143078   3.941   7.413   1.177
14379TIP3    H243079   3.848   7.294   1.189
14380TIP3   OH243080   7.286   5.554   4.154
14380TIP3    H143081   7.212   5.581   4.209
14380TIP3    H243082   7.272   5.601   4.072
14381TIP3   OH243083   3.181   0.546   1.509
14381TIP3    H143084   3.242   0.596   1.454
14381TIP3    H243085   3.098   0.548   1.462
14382TIP3   OH243086   2.357   3.409   0.278
14382TIP3    H143087   2.342   3.327   0.325
14382TIP3    H243088   2.318   3.395   0.192
14383TIP3   OH243089   0.439   1.783   6.403
14383TIP3    H143090   0.438   1.808   6.495
14383TIP3    H243091   0.359   1.820   6.367
14384TIP3   OH243092   7.359   7.260   2.996
14384TIP3    H143093   7.285   7.308   3.031
14384TIP3    H243094   7.416   7.327   2.958
14385TIP3   OH243095   6.722   4.720   1.767
14385TIP3    H143096   6.769   4.649   1.812
14385TIP3    H243097   6.631   4.689   1.762
14386TIP3   OH243098   5.552   5.917   6.813
14386TIP3    H143099   5.577   5.884   6.727
14386TIP3    H243100   5.601   5.862   6.875
14387TIP3   OH243101   1.122   3.698   1.855
14387TIP3    H143102   1.215   3.703   1.880
14387TIP3    H243103   1.089   3.622   1.902
14388TIP3   OH243104   1.821   2.742   4.259
14388TIP3    H143105   1.764   2.672   4.226
14388TIP3    H243106   1.909   2.709   4.244
14389TIP3   OH243107   7.899   2.524   1.462
14389TIP3    H143108   7.841   2.530   1.538
14389TIP3    H243109   7.950   2.605   1.465
14390TIP3   OH243110   4.500   0.823   0.375
14390TIP3    H143111   4.404   0.817   0.374
14390TIP3    H243112   4.520   0.863   0.459
14391TIP3   OH243113   1.330   5.755   6.462
14391TIP3    H143114   1.346   5.841   6.422
14391TIP3    H243115   1.245   5.766   6.506
14392TIP3   OH243116   0.512   3.283   2.964
14392TIP3    H143117   0.438   3.228   2.938
14392TIP3    H243118   0.475   3.345   3.027
14393TIP3   OH243119   5.555   6.046   2.413
14393TIP3    H143120   5.558   5.991   2.492
14393TIP3    H243121   5.629   6.016   2.360
14394TIP3   OH243122   7.815   3.339   1.934
14394TIP3    H143123   7.853   3.340   2.022
14394TIP3    H243124   7.722   3.358   1.947
14395TIP3   OH243125   3.017   5.624   2.776
14395TIP3    H143126   3.035   5.534   2.748
14395TIP3    H243127   3.061   5.632   2.860
14396TIP3   OH243128   6.997   6.220   3.361
14396TIP3    H143129   6.907   6.191   3.376
14396TIP3    H243130   7.042   6.141   3.331
14397TIP3   OH243131   5.917   0.278   4.399
14397TIP3    H143132   5.922   0.347   4.467
14397TIP3    H243133   5.836   0.298   4.352
14398TIP3   OH243134   1.417   5.593   2.776
14398TIP3    H143135   1.325   5.580   2.797
14398TIP3    H243136   1.465   5.545   2.844
14399TIP3   OH243137   2.862   6.497   2.141
14399TIP3    H143138   2.787   6.497   2.082
14399TIP3    H243139   2.870   6.407   2.171
14400TIP3   OH243140   6.835   4.768   1.498
14400TIP3    H143141   6.824   4.863   1.494
14400TIP3    H243142   6.797   4.743   1.583
14401TIP3   OH243143   2.469   5.861   3.280
14401TIP3    H143144   2.425   5.846   3.364
14401TIP3    H243145   2.497   5.952   3.284
14402TIP3   OH243146   5.295   4.507   2.576
14402TIP3    H143147   5.387   4.512   2.551
14402TIP3    H243148   5.278   4.590   2.621
14403TIP3   OH243149   3.272   6.061   2.631
14403TIP3    H143150   3.285   5.970   2.658
14403TIP3    H243151   3.180   6.080   2.653
14404TIP3   OH243152   1.594   2.707   1.878
14404TIP3    H143153   1.685   2.731   1.899
14404TIP3    H243154   1.560   2.783   1.831
14405TIP3   OH243155   0.871   6.852   6.732
14405TIP3    H143156   0.937   6.862   6.664
14405TIP3    H243157   0.906   6.785   6.790
14406TIP3   OH243158   0.024   2.832   5.005
14406TIP3    H143159   0.063   2.919   5.014
14406TIP3    H243160  -0.048   2.845   4.943
14407TIP3   OH243161   8.088   6.623   3.204
14407TIP3    H143162   8.143   6.589   3.134
14407TIP3    H243163   8.005   6.644   3.161
14408TIP3   OH243164   1.923   1.469   1.654
14408TIP3    H143165   1.878   1.522   1.720
14408TIP3    H243166   1.982   1.530   1.610
14409TIP3   OH243167   6.503   0.607   2.073
14409TIP3    H143168   6.432   0.606   2.136
14409TIP3    H243169   6.464   0.639   1.992
14410TIP3   OH243170   4.391   4.519   1.664
14410TIP3    H143171   4.329   4.446   1.658
14410TIP3    H243172   4.391   4.543   1.757
14411TIP3   OH243173   7.558   2.901   1.961
14411TIP3    H143174   7.533   2.831   2.022
14411TIP3    H243175   7.539   2.866   1.874
14412TIP3   OH243176   2.289   3.847   4.552
14412TIP3    H143177   2.374   3.889   4.562
14412TIP3    H243178   2.299   3.761   4.594
14413TIP3   OH243179   0.501   4.684   0.172
14413TIP3    H143180   0.529   4.769   0.138
14413TIP3    H243181   0.537   4.620   0.110
14414TIP3   OH243182   4.684   5.411   3.996
14414TIP3    H143183   4.752   5.343   3.992
14414TIP3    H243184   4.630   5.385   4.071
14415TIP3   OH243185   1.541   5.808   0.318
14415TIP3    H143186   1.532   5.889   0.268
14415TIP3    H243187   1.603   5.755   0.268
14416TIP3   OH243188   7.115   7.008   1.321
14416TIP3    H143189   7.054   7.055   1.378
14416TIP3    H243190   7.153   7.076   1.265
14417TIP3   OH243191   4.894   4.449   5.338
14417TIP3    H143192   4.919   4.435   5.429
14417TIP3    H243193   4.975   4.441   5.289
14418TIP3   OH243194   8.282   5.961   5.305
14418TIP3    H143195   8.219   5.920   5.364
14418TIP3    H243196   8.285   6.052   5.332
14419TIP3   OH243197   7.064   4.458   4.896
14419TIP3    H143198   7.094   4.537   4.941
14419TIP3    H243199   7.068   4.480   4.803
14420TIP3   OH243200   1.520   0.711   5.737
14420TIP3    H143201   1.592   0.650   5.756
14420TIP3    H243202   1.564   0.791   5.708
14421TIP3   OH243203   6.114   3.747   5.088
14421TIP3    H143204   6.157   3.757   5.003
14421TIP3    H243205   6.186   3.728   5.149
14422TIP3   OH243206   6.980   5.283   2.587
14422TIP3    H143207   6.893   5.300   2.621
14422TIP3    H243208   7.001   5.194   2.615
14423TIP3   OH243209   6.796   3.596   2.533
14423TIP3    H143210   6.880   3.554   2.512
14423TIP3    H243211   6.802   3.614   2.627
14424TIP3   OH243212   2.586   5.935   0.123
14424TIP3    H143213   2.662   5.904   0.172
14424TIP3    H243214   2.609   5.920   0.031
14425TIP3   OH243215   4.838   3.820   5.112
14425TIP3    H143216   4.901   3.782   5.051
14425TIP3    H243217   4.879   3.900   5.143
14426TIP3   OH243218   4.111   2.695   6.751
14426TIP3    H143219   4.064   2.774   6.778
14426TIP3    H243220   4.095   2.633   6.822
14427TIP3   OH243221   0.586   1.326   2.878
14427TIP3    H143222   0.560   1.256   2.818
14427TIP3    H243223   0.527   1.317   2.953
14428TIP3   OH243224   6.872   7.452   6.019
14428TIP3    H143225   6.957   7.424   5.985
14428TIP3    H243226   6.893   7.519   6.084
14429TIP3   OH243227   4.130   3.507   3.633
14429TIP3    H143228   4.172   3.485   3.550
14429TIP3    H243229   4.038   3.524   3.609
14430TIP3   OH243230   3.053   1.436   6.648
14430TIP3    H143231   3.074   1.529   6.637
14430TIP3    H243232   3.083   1.394   6.568
14431TIP3   OH243233   7.598   5.654   2.399
14431TIP3    H143234   7.603   5.574   2.451
14431TIP3    H243235   7.542   5.631   2.324
14432TIP3   OH243236   2.499   5.551   2.440
14432TIP3    H143237   2.495   5.632   2.491
14432TIP3    H243238   2.590   5.546   2.411
14433TIP3   OH243239   8.344   2.243   3.174
14433TIP3    H143240   8.381   2.188   3.242
14433TIP3    H243241   8.404   2.317   3.168
14434TIP3   OH243242   6.943   2.464   4.372
14434TIP3    H143243   6.992   2.392   4.413
14434TIP3    H243244   6.944   2.444   4.279
14435TIP3   OH243245   3.546   5.322   1.866
14435TIP3    H143246   3.575   5.319   1.775
14435TIP3    H243247   3.451   5.310   1.861
14436TIP3   OH243248   7.566   7.080   2.680
14436TIP3    H143249   7.513   7.088   2.601
14436TIP3    H243250   7.589   6.987   2.684
14437TIP3   OH243251   6.123   0.982   1.144
14437TIP3    H143252   6.193   1.045   1.128
14437TIP3    H243253   6.091   0.958   1.057
14438TIP3   OH243254   7.803   6.265   3.932
14438TIP3    H143255   7.806   6.360   3.929
14438TIP3    H243256   7.867   6.236   3.867
14439TIP3   OH243257   7.883   5.419   5.141
14439TIP3    H143258   7.942   5.494   5.153
14439TIP3    H243259   7.911   5.380   5.059
14440TIP3   OH243260   3.937   7.436   2.812
14440TIP3    H143261   3.860   7.379   2.812
14440TIP3    H243262   3.910   7.514   2.860
14441TIP3   OH243263   5.624   2.406   3.596
14441TIP3    H143264   5.576   2.328   3.623
14441TIP3    H243265   5.710   2.397   3.637
14442TIP3   OH243266   5.214   5.222   1.825
14442TIP3    H143267   5.185   5.141   1.867
14442TIP3    H243268   5.175   5.219   1.738
14443TIP3   OH243269   3.993   6.665   1.639
14443TIP3    H143270   4.059   6.723   1.603
14443TIP3    H243271   4.004   6.671   1.734
14444TIP3   OH243272   5.047   4.078   4.796
14444TIP3    H143273   5.059   3.997   4.845
14444TIP3    H243274   5.072   4.056   4.706
14445TIP3   OH243275   1.784   7.220   2.346
14445TIP3    H143276   1.767   7.137   2.389
14445TIP3    H243277   1.767   7.203   2.253
14446TIP3   OH243278   0.156   7.514   5.870
14446TIP3    H143279   0.092   7.572   5.828
14446TIP3    H243280   0.140   7.428   5.831
14447TIP3   OH243281   6.208   2.641   0.228
14447TIP3    H143282   6.271   2.708   0.201
14447TIP3    H243283   6.262   2.573   0.270
14448TIP3   OH243284   3.553   5.427   4.302
14448TIP3    H143285   3.603   5.385   4.372
14448TIP3    H243286   3.463   5.428   4.333
14449TIP3   OH243287   1.625   1.149   2.100
14449TIP3    H143288   1.563   1.176   2.032
14449TIP3    H243289   1.570   1.112   2.169
14450TIP3   OH243290   3.865   2.563   5.067
14450TIP3    H143291   3.847   2.547   4.974
14450TIP3    H243292   3.779   2.564   5.108
14451TIP3   OH243293   7.309   3.668   1.133
14451TIP3    H143294   7.403   3.658   1.142
14451TIP3    H243295   7.290   3.756   1.167
14452TIP3   OH243296   2.527   6.289   0.804
14452TIP3    H143297   2.547   6.374   0.845
14452TIP3    H243298   2.581   6.226   0.852
14453TIP3   OH243299   2.883   5.830   6.599
14453TIP3    H143300   2.881   5.895   6.529
14453TIP3    H243301   2.852   5.749   6.558
14454TIP3   OH243302   8.118   4.658   2.645
14454TIP3    H143303   8.102   4.738   2.695
14454TIP3    H243304   8.145   4.594   2.711
14455TIP3   OH243305   5.301   1.854   5.904
14455TIP3    H143306   5.298   1.759   5.917
14455TIP3    H243307   5.394   1.874   5.892
14456TIP3   OH243308   3.866   0.498   4.576
14456TIP3    H143309   3.934   0.510   4.641
14456TIP3    H243310   3.808   0.432   4.614
14457TIP3   OH243311   3.349   3.239   6.243
14457TIP3    H143312   3.426   3.246   6.300
14457TIP3    H243313   3.370   3.168   6.182
14458TIP3   OH243314   1.348   2.264   1.952
14458TIP3    H143315   1.383   2.352   1.954
14458TIP3    H243316   1.424   2.207   1.962
14459TIP3   OH243317   4.253   4.715   1.541
14459TIP3    H143318   4.311   4.648   1.577
14459TIP3    H243319   4.196   4.738   1.614
14460TIP3   OH243320   0.945   1.847   2.382
14460TIP3    H143321   0.869   1.903   2.395
14460TIP3    H243322   0.999   1.894   2.319
14461TIP3   OH243323   0.132   4.747   1.646
14461TIP3    H143324   0.080   4.798   1.707
14461TIP3    H243325   0.070   4.683   1.609
14462TIP3   OH243326   6.877   2.682   3.322
14462TIP3    H143327   6.917   2.745   3.261
14462TIP3    H243328   6.798   2.653   3.277
14463TIP3   OH243329   4.522   1.650   2.916
14463TIP3    H143330   4.552   1.630   3.005
14463TIP3    H243331   4.427   1.661   2.926
14464TIP3   OH243332   1.164   0.722   6.663
14464TIP3    H143333   1.101   0.790   6.636
14464TIP3    H243334   1.250   0.762   6.646
14465TIP3   OH243335   6.980   0.980   1.287
14465TIP3    H143336   6.967   0.975   1.192
14465TIP3    H243337   6.891   0.975   1.323
14466TIP3   OH243338   2.037   4.554   1.567
14466TIP3    H143339   1.960   4.547   1.624
14466TIP3    H243340   2.079   4.636   1.593
14467TIP3   OH243341   3.438   2.838   3.876
14467TIP3    H143342   3.344   2.828   3.861
14467TIP3    H243343   3.476   2.755   3.848
14468TIP3   OH243344   5.712   1.774   4.351
14468TIP3    H143345   5.679   1.729   4.273
14468TIP3    H243346   5.807   1.761   4.348
14469TIP3   OH243347   2.654   4.863   2.394
14469TIP3    H143348   2.563   4.836   2.404
14469TIP3    H243349   2.681   4.824   2.310
14470TIP3   OH243350   2.499   2.048   1.912
14470TIP3    H143351   2.450   2.058   1.994
14470TIP3    H243352   2.522   2.137   1.887
14471TIP3   OH243353   3.641   5.239   3.049
14471TIP3    H143354   3.600   5.229   2.963
14471TIP3    H243355   3.653   5.334   3.058
14472TIP3   OH243356   6.942   3.334   6.459
14472TIP3    H143357   6.925   3.291   6.375
14472TIP3    H243358   6.951   3.262   6.521
14473TIP3   OH243359   6.248   3.264   4.020
14473TIP3    H143360   6.292   3.210   4.085
14473TIP3    H243361   6.274   3.354   4.042
14474TIP3   OH243362   6.713   5.461   5.757
14474TIP3    H143363   6.786   5.437   5.700
14474TIP3    H243364   6.697   5.382   5.809
14475TIP3   OH243365   4.041   6.599   1.922
14475TIP3    H143366   4.091   6.614   2.002
14475TIP3    H243367   3.953   6.575   1.953
14476TIP3   OH243368   7.580   4.854   1.771
14476TIP3    H143369   7.515   4.925   1.776
14476TIP3    H243370   7.528   4.775   1.761
14477TIP3   OH243371   2.555   6.661   1.892
14477TIP3    H143372   2.476   6.709   1.869
14477TIP3    H243373   2.622   6.693   1.832
14478TIP3   OH243374   0.198   1.747   1.543
14478TIP3    H143375   0.193   1.658   1.578
14478TIP3    H243376   0.133   1.748   1.473
14479TIP3   OH243377   2.130   1.295   3.605
14479TIP3    H143378   2.148   1.283   3.512
14479TIP3    H243379   2.054   1.240   3.622
14480TIP3   OH243380   0.462   5.562   1.036
14480TIP3    H143381   0.501   5.560   0.948
14480TIP3    H243382   0.427   5.650   1.045
14481TIP3   OH243383   2.384   3.859   1.750
14481TIP3    H143384   2.466   3.846   1.797
14481TIP3    H243385   2.316   3.844   1.815
14482TIP3   OH243386   6.216   3.004   4.906
14482TIP3    H143387   6.289   3.040   4.957
14482TIP3    H243388   6.173   2.943   4.966
14483TIP3   OH243389   1.873   3.915   5.730
14483TIP3    H143390   1.902   3.825   5.746
14483TIP3    H243391   1.952   3.968   5.742
14484TIP3   OH243392   6.479   2.249   1.661
14484TIP3    H143393   6.483   2.218   1.570
14484TIP3    H243394   6.393   2.289   1.669
14485TIP3   OH243395   7.490   2.520   3.501
14485TIP3    H143396   7.491   2.581   3.427
14485TIP3    H243397   7.577   2.481   3.501
14486TIP3   OH243398   6.471   6.576   1.636
14486TIP3    H143399   6.521   6.563   1.555
14486TIP3    H243400   6.394   6.520   1.626
14487TIP3   OH243401   3.957   3.846   1.892
14487TIP3    H143402   3.930   3.922   1.840
14487TIP3    H243403   3.881   3.826   1.947
14488TIP3   OH243404   4.590   7.670   0.192
14488TIP3    H143405   4.534   7.657   0.268
14488TIP3    H243406   4.610   7.764   0.192
14489TIP3   OH243407   4.987   2.206   3.274
14489TIP3    H143408   4.933   2.233   3.348
14489TIP3    H243409   5.044   2.138   3.310
14490TIP3   OH243410   4.039   5.712   2.833
14490TIP3    H143411   3.994   5.630   2.849
14490TIP3    H243412   3.970   5.776   2.817
14491TIP3   OH243413   5.272   2.649   1.204
14491TIP3    H143414   5.301   2.566   1.166
14491TIP3    H243415   5.278   2.712   1.132
14492TIP3   OH243416   1.916   0.262   5.423
14492TIP3    H143417   1.831   0.262   5.467
14492TIP3    H243418   1.909   0.192   5.358
14493TIP3   OH243419   4.600   0.673   0.993
14493TIP3    H143420   4.655   0.650   0.918
14493TIP3    H243421   4.662   0.694   1.063
14494TIP3   OH243422   5.993   5.325   4.757
14494TIP3    H143423   5.941   5.357   4.831
14494TIP3    H243424   6.083   5.351   4.778
14495TIP3   OH243425   7.750   4.258   0.323
14495TIP3    H143426   7.841   4.232   0.339
14495TIP3    H243427   7.698   4.193   0.368
14496TIP3   OH243428   0.879   0.349   5.890
14496TIP3    H143429   0.927   0.316   5.967
14496TIP3    H243430   0.787   0.346   5.917
14497TIP3   OH243431   7.831   0.613   0.868
14497TIP3    H143432   7.801   0.691   0.821
14497TIP3    H243433   7.824   0.636   0.960
14498TIP3   OH243434   0.268   1.767   4.313
14498TIP3    H143435   0.245   1.799   4.225
14498TIP3    H243436   0.257   1.843   4.370
14499TIP3   OH243437   6.376   2.099   0.734
14499TIP3    H143438   6.299   2.059   0.694
14499TIP3    H243439   6.362   2.090   0.828
14500TIP3   OH243440   0.713   7.339   0.590
14500TIP3    H143441   0.792   7.285   0.578
14500TIP3    H243442   0.676   7.346   0.502
14501TIP3   OH243443   1.322   7.453   4.994
14501TIP3    H143444   1.286   7.373   4.956
14501TIP3    H243445   1.381   7.487   4.928
14502TIP3   OH243446   2.020   7.796   3.762
14502TIP3    H143447   2.028   7.775   3.669
14502TIP3    H243448   2.089   7.860   3.778
14503TIP3   OH243449   3.524   2.671   6.222
14503TIP3    H143450   3.612   2.672   6.259
14503TIP3    H243451   3.489   2.758   6.238
14504TIP3   OH243452   8.414   3.746   3.314
14504TIP3    H143453   8.326   3.723   3.284
14504TIP3    H243454   8.468   3.671   3.291
14505TIP3   OH243455   8.398   6.399   2.624
14505TIP3    H143456   8.321   6.444   2.660
14505TIP3    H243457   8.389   6.309   2.654
14506TIP3   OH243458   5.889   3.068   5.014
14506TIP3    H143459   5.868   2.988   4.967
14506TIP3    H243460   5.835   3.065   5.093
14507TIP3   OH243461   7.864   4.288   6.325
14507TIP3    H143462   7.770   4.272   6.314
14507TIP3    H243463   7.901   4.274   6.238
14508TIP3   OH243464   0.624   6.777   4.090
14508TIP3    H143465   0.541   6.749   4.130
14508TIP3    H243466   0.678   6.698   4.090
14509TIP3   OH243467   4.295   4.528   3.563
14509TIP3    H143468   4.230   4.539   3.494
14509TIP3    H243469   4.348   4.607   3.559
14510TIP3   OH243470   6.185   5.816   5.059
14510TIP3    H143471   6.121   5.748   5.035
14510TIP3    H243472   6.202   5.862   4.977
14511TIP3   OH243473   0.522   7.271   4.797
14511TIP3    H143474   0.434   7.307   4.789
14511TIP3    H243475   0.578   7.336   4.756
14512TIP3   OH243476  -0.026   5.985   1.988
14512TIP3    H143477   0.052   6.002   1.936
14512TIP3    H243478   0.000   6.006   2.078
14513TIP3   OH243479   7.889   2.809   1.832
14513TIP3    H143480   7.865   2.897   1.803
14513TIP3    H243481   7.906   2.818   1.925
14514TIP3   OH243482   7.242   7.675   5.539
14514TIP3    H143483   7.237   7.705   5.449
14514TIP3    H243484   7.330   7.640   5.548
14515TIP3   OH243485   4.708   7.278   6.320
14515TIP3    H143486   4.698   7.344   6.251
14515TIP3    H243487   4.797   7.291   6.353
14516TIP3   OH243488   5.354   6.065   6.126
14516TIP3    H143489   5.329   6.086   6.216
14516TIP3    H243490   5.417   5.993   6.134
14517TIP3   OH243491   4.095   6.740   6.512
14517TIP3    H143492   4.154   6.815   6.515
14517TIP3    H243493   4.130   6.679   6.577
14518TIP3   OH243494   3.649   0.316   6.252
14518TIP3    H143495   3.556   0.306   6.271
14518TIP3    H243496   3.688   0.338   6.337
14519TIP3   OH243497   8.107   2.507   1.835
14519TIP3    H143498   8.102   2.565   1.759
14519TIP3    H243499   8.196   2.519   1.868
14520TIP3   OH243500   4.686   6.637   1.730
14520TIP3    H143501   4.701   6.605   1.819
14520TIP3    H243502   4.635   6.717   1.742
14521TIP3   OH243503   5.401   5.751   4.866
14521TIP3    H143504   5.424   5.762   4.774
14521TIP3    H243505   5.466   5.802   4.914
14522TIP3   OH243506   0.772   4.657   4.518
14522TIP3    H143507   0.829   4.716   4.467
14522TIP3    H243508   0.721   4.716   4.573
14523TIP3   OH243509   1.404   7.779   4.847
14523TIP3    H143510   1.425   7.783   4.754
14523TIP3    H243511   1.326   7.834   4.857
14524TIP3   OH243512   7.524   7.634   4.554
14524TIP3    H143513   7.459   7.660   4.489
14524TIP3    H243514   7.603   7.684   4.531
14525TIP3   OH243515   6.861   3.539   0.355
14525TIP3    H143516   6.901   3.563   0.439
14525TIP3    H243517   6.836   3.623   0.316
14526TIP3   OH243518   2.097   5.514   2.785
14526TIP3    H143519   2.022   5.572   2.797
14526TIP3    H243520   2.096   5.493   2.692
14527TIP3   OH243521   0.256   4.470   5.898
14527TIP3    H143522   0.313   4.408   5.851
14527TIP3    H243523   0.314   4.511   5.962
14528TIP3   OH243524   0.283   5.894   5.222
14528TIP3    H143525   0.268   5.926   5.311
14528TIP3    H243526   0.195   5.888   5.184
14529TIP3   OH243527   2.955   2.760   1.013
14529TIP3    H143528   2.971   2.727   0.925
14529TIP3    H243529   2.874   2.716   1.041
14530TIP3   OH243530   8.085   6.545   4.374
14530TIP3    H143531   8.001   6.529   4.332
14530TIP3    H243532   8.134   6.598   4.310
14531TIP3   OH243533   1.115   0.861   0.831
14531TIP3    H143534   1.177   0.933   0.845
14531TIP3    H243535   1.039   0.885   0.883
14532TIP3   OH243536   2.745   5.748   6.200
14532TIP3    H143537   2.676   5.700   6.154
14532TIP3    H243538   2.826   5.719   6.159
14533TIP3   OH243539   5.290   0.665   2.801
14533TIP3    H143540   5.277   0.746   2.752
14533TIP3    H243541   5.247   0.598   2.747
14534TIP3   OH243542   6.103   5.400   3.726
14534TIP3    H143543   6.169   5.382   3.792
14534TIP3    H243544   6.060   5.480   3.756
14535TIP3   OH243545   1.994   1.069   2.412
14535TIP3    H143546   2.067   1.092   2.355
14535TIP3    H243547   1.934   1.019   2.355
14536TIP3   OH243548   6.534   2.632   1.985
14536TIP3    H143549   6.595   2.674   2.046
14536TIP3    H243550   6.481   2.703   1.952
14537TIP3   OH243551   0.338   6.300   5.159
14537TIP3    H143552   0.409   6.236   5.160
14537TIP3    H243553   0.258   6.248   5.165
14538TIP3   OH243554   7.992   5.578   1.056
14538TIP3    H143555   7.969   5.669   1.037
14538TIP3    H243556   7.967   5.567   1.148
14539TIP3   OH243557   2.053   1.310   6.628
14539TIP3    H143558   2.046   1.215   6.614
14539TIP3    H243559   1.982   1.330   6.689
14540TIP3   OH243560   3.462   0.318   0.994
14540TIP3    H143561   3.427   0.294   0.908
14540TIP3    H243562   3.555   0.332   0.979
14541TIP3   OH243563   0.874   2.829   4.937
14541TIP3    H143564   0.927   2.811   4.860
14541TIP3    H243565   0.808   2.759   4.938
14542TIP3   OH243566   0.663   6.973   3.871
14542TIP3    H143567   0.631   6.988   3.960
14542TIP3    H243568   0.700   6.885   3.873
14543TIP3   OH243569   3.091   4.824   2.840
14543TIP3    H143570   3.139   4.776   2.773
14543TIP3    H243571   3.106   4.775   2.921
14544TIP3   OH243572   4.748   1.791   2.043
14544TIP3    H143573   4.670   1.763   2.091
14544TIP3    H243574   4.755   1.885   2.060
14545TIP3   OH243575   8.044   2.411   1.257
14545TIP3    H143576   7.984   2.468   1.305
14545TIP3    H243577   8.108   2.384   1.322
14546TIP3   OH243578   6.948   0.766   0.769
14546TIP3    H143579   6.953   0.701   0.839
14546TIP3    H243580   7.033   0.761   0.726
14547TIP3   OH243581   3.597   6.244   5.318
14547TIP3    H143582   3.660   6.218   5.385
14547TIP3    H243583   3.518   6.194   5.338
14548TIP3   OH243584   0.406   3.371   1.113
14548TIP3    H143585   0.320   3.380   1.153
14548TIP3    H243586   0.400   3.421   1.031
14549TIP3   OH243587   3.753   0.531   3.495
14549TIP3    H143588   3.716   0.444   3.509
14549TIP3    H243589   3.847   0.520   3.510
14550TIP3   OH243590   3.153   7.078   2.565
14550TIP3    H143591   3.172   6.992   2.528
14550TIP3    H243592   3.062   7.095   2.543
14551TIP3   OH243593   2.870   6.110   5.588
14551TIP3    H143594   2.869   6.047   5.660
14551TIP3    H243595   2.802   6.174   5.611
14552TIP3   OH243596   3.239   1.393   0.601
14552TIP3    H143597   3.172   1.453   0.635
14552TIP3    H243598   3.243   1.322   0.665
14553TIP3   OH243599   4.471   6.269   1.503
14553TIP3    H143600   4.422   6.187   1.507
14553TIP3    H243601   4.404   6.337   1.496
14554TIP3   OH243602   4.394   1.863   3.160
14554TIP3    H143603   4.388   1.769   3.148
14554TIP3    H243604   4.313   1.897   3.121
14555TIP3   OH243605   7.963   7.744   4.427
14555TIP3    H143606   8.042   7.797   4.432
14555TIP3    H243607   7.914   7.780   4.353
14556TIP3   OH243608   5.550   3.884   4.319
14556TIP3    H143609   5.544   3.792   4.292
14556TIP3    H243610   5.622   3.886   4.382
14557TIP3   OH243611   1.692   2.060   6.381
14557TIP3    H143612   1.724   2.038   6.293
14557TIP3    H243613   1.635   2.136   6.367
14558TIP3   OH243614   6.541   7.511   5.675
14558TIP3    H143615   6.582   7.543   5.755
14558TIP3    H243616   6.540   7.588   5.617
14559TIP3   OH243617   1.022   1.960   6.010
14559TIP3    H143618   1.013   2.037   6.065
14559TIP3    H243619   1.057   1.892   6.068
14560TIP3   OH243620   5.621   7.801   2.726
14560TIP3    H143621   5.642   7.867   2.792
14560TIP3    H243622   5.608   7.720   2.775
14561TIP3   OH243623   4.852   7.262   1.241
14561TIP3    H143624   4.907   7.234   1.314
14561TIP3    H243625   4.902   7.242   1.163
14562TIP3   OH243626   4.597   1.414   5.945
14562TIP3    H143627   4.619   1.505   5.925
14562TIP3    H243628   4.628   1.364   5.870
14563TIP3   OH243629   5.996   7.033   0.489
14563TIP3    H143630   5.940   6.954   0.486
14563TIP3    H243631   6.060   7.019   0.419
14564TIP3   OH243632   1.509   1.752   6.429
14564TIP3    H143633   1.602   1.733   6.414
14564TIP3    H243634   1.480   1.682   6.488
14565TIP3   OH243635   0.776   2.585   3.911
14565TIP3    H143636   0.816   2.526   3.847
14565TIP3    H243637   0.850   2.620   3.961
14566TIP3   OH243638   5.283  -0.017   4.001
14566TIP3    H143639   5.295  -0.001   3.908
14566TIP3    H243640   5.361  -0.067   4.027
14567TIP3   OH243641   8.361   6.638   5.778
14567TIP3    H143642   8.307   6.619   5.702
14567TIP3    H243643   8.305   6.690   5.835
14568TIP3   OH243644   4.994   4.533   6.125
14568TIP3    H143645   4.997   4.439   6.110
14568TIP3    H243646   5.083   4.557   6.152
14569TIP3   OH243647   2.252   7.641   2.988
14569TIP3    H143648   2.340   7.611   2.967
14569TIP3    H243649   2.220   7.578   3.053
14570TIP3   OH243650   5.675   3.011   5.823
14570TIP3    H143651   5.590   3.056   5.830
14570TIP3    H243652   5.733   3.076   5.786
14571TIP3   OH243653   6.452   6.172   5.640
14571TIP3    H143654   6.530   6.117   5.646
14571TIP3    H243655   6.476   6.240   5.577
14572TIP3   OH243656   2.843   0.493   3.186
14572TIP3    H143657   2.769   0.553   3.179
14572TIP3    H243658   2.838   0.457   3.275
14573TIP3   OH243659   1.151   6.315   3.935
14573TIP3    H143660   1.105   6.337   3.854
14573TIP3    H243661   1.182   6.226   3.922
14574TIP3   OH243662   6.389   6.845   2.463
14574TIP3    H143663   6.335   6.920   2.487
14574TIP3    H243664   6.474   6.863   2.504
14575TIP3   OH243665   4.135   7.005   2.480
14575TIP3    H143666   4.125   7.055   2.561
14575TIP3    H243667   4.109   6.916   2.503
14576TIP3   OH243668   3.290   0.234   0.780
14576TIP3    H143669   3.291   0.300   0.711
14576TIP3    H243670   3.215   0.258   0.835
14577TIP3   OH243671   3.126   3.956   4.968
14577TIP3    H143672   3.148   3.940   5.060
14577TIP3    H243673   3.172   3.887   4.921
14578TIP3   OH243674   2.593   2.462   4.357
14578TIP3    H143675   2.607   2.482   4.265
14578TIP3    H243676   2.515   2.406   4.358
14579TIP3   OH243677   7.935   3.218   4.198
14579TIP3    H143678   7.888   3.139   4.174
14579TIP3    H243679   7.959   3.258   4.114
14580TIP3   OH243680   8.175   1.077   3.625
14580TIP3    H143681   8.208   1.107   3.710
14580TIP3    H243682   8.198   1.148   3.565
14581TIP3   OH243683   7.281   3.400   3.567
14581TIP3    H143684   7.299   3.483   3.611
14581TIP3    H243685   7.359   3.347   3.585
14582TIP3   OH243686   0.578   0.318   5.342
14582TIP3    H143687   0.516   0.353   5.279
14582TIP3    H243688   0.538   0.333   5.428
14583TIP3   OH243689   0.912   5.849   1.044
14583TIP3    H143690   0.934   5.756   1.045
14583TIP3    H243691   0.817   5.851   1.034
14584TIP3   OH243692   5.649   2.497   0.837
14584TIP3    H143693   5.564   2.503   0.879
14584TIP3    H243694   5.711   2.531   0.903
14585TIP3   OH243695   8.085   2.504   4.148
14585TIP3    H143696   8.048   2.476   4.065
14585TIP3    H243697   8.175   2.529   4.127
14586TIP3   OH243698   3.739   5.244   3.661
14586TIP3    H143699   3.829   5.215   3.676
14586TIP3    H243700   3.691   5.217   3.740
14587TIP3   OH243701   2.795   0.216   1.353
14587TIP3    H143702   2.879   0.202   1.308
14587TIP3    H243703   2.805   0.300   1.397
14588TIP3   OH243704   7.365   6.702   1.568
14588TIP3    H143705   7.331   6.735   1.484
14588TIP3    H243706   7.400   6.615   1.548
14589TIP3   OH243707   2.308   3.618   5.222
14589TIP3    H143708   2.316   3.713   5.232
14589TIP3    H243709   2.216   3.605   5.200
14590TIP3   OH243710   1.789   3.629   0.086
14590TIP3    H143711   1.775   3.541   0.119
14590TIP3    H243712   1.789   3.619  -0.010
14591TIP3   OH243713   7.794   0.624   1.890
14591TIP3    H143714   7.703   0.637   1.866
14591TIP3    H243715   7.804   0.672   1.973
14592TIP3   OH243716   6.863   1.303   5.021
14592TIP3    H143717   6.885   1.234   5.083
14592TIP3    H243718   6.898   1.272   4.937
14593TIP3   OH243719   4.701   2.927   3.170
14593TIP3    H143720   4.697   2.860   3.101
14593TIP3    H243721   4.651   2.890   3.242
14594TIP3   OH243722   1.248   4.349   6.245
14594TIP3    H143723   1.238   4.367   6.151
14594TIP3    H243724   1.199   4.269   6.260
14595TIP3   OH243725   2.437   1.766   5.455
14595TIP3    H143726   2.343   1.748   5.448
14595TIP3    H243727   2.448   1.853   5.417
14596TIP3   OH243728   1.975   1.176   1.646
14596TIP3    H143729   1.939   1.264   1.638
14596TIP3    H243730   1.902   1.122   1.674
14597TIP3   OH243731   4.063   5.251   5.090
14597TIP3    H143732   3.976   5.277   5.058
14597TIP3    H243733   4.122   5.268   5.016
14598TIP3   OH243734   5.623   1.895   6.599
14598TIP3    H143735   5.696   1.887   6.538
14598TIP3    H243736   5.572   1.814   6.585
14599TIP3   OH243737   5.924   1.576   0.436
14599TIP3    H143738   5.986   1.630   0.387
14599TIP3    H243739   5.857   1.553   0.372
14600TIP3   OH243740   4.603   1.995   1.244
14600TIP3    H143741   4.553   2.032   1.317
14600TIP3    H243742   4.560   1.912   1.225
14601TIP3   OH243743   4.499   0.878   2.640
14601TIP3    H143744   4.516   0.907   2.550
14601TIP3    H243745   4.559   0.804   2.653
14602TIP3   OH243746   0.469   6.674   5.780
14602TIP3    H143747   0.562   6.674   5.802
14602TIP3    H243748   0.465   6.709   5.692
14603TIP3   OH243749   1.862   0.620   2.759
14603TIP3    H143750   1.954   0.624   2.732
14603TIP3    H243751   1.863   0.639   2.853
14604TIP3   OH243752   8.408   7.569   6.774
14604TIP3    H143753   8.425   7.484   6.815
14604TIP3    H243754   8.352   7.615   6.836
14605TIP3   OH243755   4.708   4.391   1.785
14605TIP3    H143756   4.616   4.372   1.806
14605TIP3    H243757   4.741   4.438   1.862
14606TIP3   OH243758   4.286   3.671   4.241
14606TIP3    H143759   4.377   3.693   4.220
14606TIP3    H243760   4.273   3.705   4.330
14607TIP3   OH243761   5.568   1.720   3.467
14607TIP3    H143762   5.505   1.791   3.478
14607TIP3    H243763   5.633   1.754   3.406
14608TIP3   OH243764   0.568   2.588   5.149
14608TIP3    H143765   0.510   2.650   5.194
14608TIP3    H243766   0.622   2.550   5.218
14609TIP3   OH243767   7.858   0.918   4.825
14609TIP3    H143768   7.930   0.939   4.884
14609TIP3    H243769   7.888   0.842   4.776
14610TIP3   OH243770   0.169   0.378   2.185
14610TIP3    H143771   0.099   0.406   2.126
14610TIP3    H243772   0.171   0.283   2.179
14611TIP3   OH243773   2.107   5.339   3.062
14611TIP3    H143774   2.129   5.399   2.991
14611TIP3    H243775   2.165   5.264   3.048
14612TIP3   OH243776   5.699   0.543   5.102
14612TIP3    H143777   5.607   0.543   5.076
14612TIP3    H243778   5.720   0.450   5.114
14613TIP3   OH243779   6.976   3.510   0.093
14613TIP3    H143780   7.019   3.434   0.054
14613TIP3    H243781   6.990   3.500   0.187
14614TIP3   OH243782   1.428   2.884   1.615
14614TIP3    H143783   1.405   2.880   1.523
14614TIP3    H243784   1.361   2.831   1.659
14615TIP3   OH243785   6.401   2.551   6.360
14615TIP3    H143786   6.410   2.646   6.348
14615TIP3    H243787   6.488   2.523   6.388
14616TIP3   OH243788   5.032   0.728   5.926
14616TIP3    H143789   4.972   0.721   6.001
14616TIP3    H243790   5.111   0.769   5.963
14617TIP3   OH243791   7.547   3.444   2.571
14617TIP3    H143792   7.575   3.517   2.516
14617TIP3    H243793   7.502   3.486   2.645
14618TIP3   OH243794   0.772   4.417   4.398
14618TIP3    H143795   0.717   4.356   4.448
14618TIP3    H243796   0.749   4.503   4.432
14619TIP3   OH243797   4.389   5.225   3.869
14619TIP3    H143798   4.372   5.234   3.963
14619TIP3    H243799   4.357   5.308   3.831
14620TIP3   OH243800   2.247   0.906   0.611
14620TIP3    H143801   2.169   0.868   0.652
14620TIP3    H243802   2.239   0.884   0.518
14621TIP3   OH243803   6.399   1.516   3.196
14621TIP3    H143804   6.493   1.525   3.183
14621TIP3    H243805   6.371   1.452   3.131
14622TIP3   OH243806   5.124   2.199   1.220
14622TIP3    H143807   5.163   2.225   1.136
14622TIP3    H243808   5.091   2.110   1.205
14623TIP3   OH243809   5.174   1.875   3.934
14623TIP3    H143810   5.108   1.812   3.962
14623TIP3    H243811   5.237   1.878   4.006
14624TIP3   OH243812   1.089   6.985   2.427
14624TIP3    H143813   1.115   6.905   2.474
14624TIP3    H243814   1.084   6.958   2.335
14625TIP3   OH243815   7.473   2.546   6.162
14625TIP3    H143816   7.489   2.454   6.142
14625TIP3    H243817   7.480   2.552   6.257
14626TIP3   OH243818   6.322   0.384   6.395
14626TIP3    H143819   6.311   0.465   6.345
14626TIP3    H243820   6.335   0.414   6.485
14627TIP3   OH243821   5.292   2.308   3.282
14627TIP3    H143822   5.256   2.396   3.287
14627TIP3    H243823   5.303   2.292   3.188
14628TIP3   OH243824   1.845   0.433   4.025
14628TIP3    H143825   1.821   0.340   4.017
14628TIP3    H243826   1.812   0.459   4.111
14629TIP3   OH243827   5.711   4.313   5.528
14629TIP3    H143828   5.627   4.272   5.507
14629TIP3    H243829   5.688   4.402   5.555
14630TIP3   OH243830   2.463   5.686   6.740
14630TIP3    H143831   2.511   5.682   6.823
14630TIP3    H243832   2.450   5.779   6.724
14631TIP3   OH243833   3.463   1.708   5.986
14631TIP3    H143834   3.431   1.781   5.933
14631TIP3    H243835   3.499   1.646   5.923
14632TIP3   OH243836   5.765   6.463   4.670
14632TIP3    H143837   5.860   6.458   4.670
14632TIP3    H243838   5.736   6.391   4.614
14633TIP3   OH243839   6.229   0.924   4.407
14633TIP3    H143840   6.269   0.859   4.464
14633TIP3    H243841   6.210   0.876   4.326
14634TIP3   OH243842   7.304   7.908   0.480
14634TIP3    H143843   7.211   7.888   0.469
14634TIP3    H243844   7.306   7.968   0.555
14635TIP3   OH243845   0.730   1.320   5.714
14635TIP3    H143846   0.809   1.365   5.746
14635TIP3    H243847   0.685   1.385   5.661
14636TIP3   OH243848   2.857   5.702   5.897
14636TIP3    H143849   2.921   5.701   5.826
14636TIP3    H243850   2.852   5.611   5.927
14637TIP3   OH243851   3.767   2.939   4.089
14637TIP3    H143852   3.692   2.891   4.054
14637TIP3    H243853   3.832   2.872   4.108
14638TIP3   OH243854   7.937   3.457   2.987
14638TIP3    H143855   8.033   3.457   2.985
14638TIP3    H243856   7.912   3.428   2.899
14639TIP3   OH243857   6.027   5.622   6.448
14639TIP3    H143858   6.120   5.615   6.426
14639TIP3    H243859   5.990   5.677   6.379
14640TIP3   OH243860   5.281   5.400   2.078
14640TIP3    H143861   5.203   5.389   2.133
14640TIP3    H243862   5.345   5.441   2.136
14641TIP3   OH243863   5.153   5.276   5.335
14641TIP3    H143864   5.069   5.248   5.372
14641TIP3    H243865   5.178   5.206   5.276
14642TIP3   OH243866   6.639   0.842   5.391
14642TIP3    H143867   6.573   0.890   5.341
14642TIP3    H243868   6.604   0.838   5.480
14643TIP3   OH243869   0.214   2.182   1.972
14643TIP3    H143870   0.274   2.109   1.986
14643TIP3    H243871   0.226   2.238   2.049
14644TIP3   OH243872   7.879   2.903   6.086
14644TIP3    H143873   7.790   2.868   6.092
14644TIP3    H243874   7.918   2.856   6.013
14645TIP3   OH243875   3.341   5.944   2.164
14645TIP3    H143876   3.259   5.894   2.173
14645TIP3    H243877   3.397   5.909   2.234
14646TIP3   OH243878   1.031   1.113   6.288
14646TIP3    H143879   1.003   1.116   6.379
14646TIP3    H243880   1.115   1.159   6.287
14647TIP3   OH243881   4.715   3.772   1.333
14647TIP3    H143882   4.628   3.793   1.365
14647TIP3    H243883   4.754   3.717   1.401
14648TIP3   OH243884   6.520   6.489   6.635
14648TIP3    H143885   6.548   6.402   6.664
14648TIP3    H243886   6.427   6.493   6.656
14649TIP3   OH243887   4.275   7.844   3.646
14649TIP3    H143888   4.300   7.858   3.554
14649TIP3    H243889   4.213   7.772   3.643
14650TIP3   OH243890   8.368   6.201   3.471
14650TIP3    H143891   8.418   6.164   3.399
14650TIP3    H243892   8.317   6.272   3.432
14651TIP3   OH243893   4.671   5.010   2.324
14651TIP3    H143894   4.599   5.039   2.381
14651TIP3    H243895   4.660   4.915   2.318
14652TIP3   OH243896   2.562   3.777   2.788
14652TIP3    H143897   2.572   3.864   2.750
14652TIP3    H243898   2.553   3.793   2.882
14653TIP3   OH243899   0.930   6.866   0.385
14653TIP3    H143900   0.877   6.882   0.463
14653TIP3    H243901   1.004   6.927   0.394
14654TIP3   OH243902   8.146   1.901   4.095
14654TIP3    H143903   8.076   1.888   4.159
14654TIP3    H243904   8.220   1.933   4.147
14655TIP3   OH243905   7.078   1.818   6.511
14655TIP3    H143906   7.034   1.899   6.537
14655TIP3    H243907   7.152   1.847   6.458
14656TIP3   OH243908   3.678   6.680   0.794
14656TIP3    H143909   3.689   6.701   0.701
14656TIP3    H243910   3.758   6.712   0.835
14657TIP3   OH243911   0.437   0.248   3.492
14657TIP3    H143912   0.374   0.175   3.494
14657TIP3    H243913   0.518   0.208   3.460
14658TIP3   OH243914   4.384   3.132   2.062
14658TIP3    H143915   4.455   3.106   2.003
14658TIP3    H243916   4.358   3.219   2.031
14659TIP3   OH243917   5.675   1.712   2.928
14659TIP3    H143918   5.769   1.720   2.943
14659TIP3    H243919   5.637   1.792   2.965
14660TIP3   OH243920   6.958   7.067   2.494
14660TIP3    H143921   7.028   7.009   2.463
14660TIP3    H243922   6.990   7.099   2.579
14661TIP3   OH243923   5.628   0.574   3.278
14661TIP3    H143924   5.660   0.662   3.294
14661TIP3    H243925   5.696   0.517   3.315
14662TIP3   OH243926   4.620   3.568   3.980
14662TIP3    H143927   4.602   3.481   4.016
14662TIP3    H243928   4.550   3.583   3.916
14663TIP3   OH243929   6.480   5.246   4.096
14663TIP3    H143930   6.560   5.195   4.103
14663TIP3    H243931   6.458   5.269   4.187
14664TIP3   OH243932   3.214   7.570   2.238
14664TIP3    H143933   3.168   7.647   2.272
14664TIP3    H243934   3.204   7.504   2.307
14665TIP3   OH243935   2.239   1.123   2.239
14665TIP3    H143936   2.279   1.040   2.262
14665TIP3    H243937   2.300   1.189   2.269
14666TIP3   OH243938   1.934   6.138   4.424
14666TIP3    H143939   1.869   6.154   4.355
14666TIP3    H243940   2.018   6.156   4.383
14667TIP3   OH243941   2.423   5.455   2.148
14667TIP3    H143942   2.492   5.407   2.193
14667TIP3    H243943   2.381   5.390   2.091
14668TIP3   OH243944   6.067   7.030   3.003
14668TIP3    H143945   6.158   7.053   3.020
14668TIP3    H243946   6.029   7.015   3.090
14669TIP3   OH243947   3.322   2.717   6.504
14669TIP3    H143948   3.368   2.742   6.424
14669TIP3    H243949   3.244   2.671   6.473
14670TIP3   OH243950   7.080   6.322   6.173
14670TIP3    H143951   7.092   6.415   6.152
14670TIP3    H243952   7.134   6.276   6.109
14671TIP3   OH243953   0.194   5.139   4.561
14671TIP3    H143954   0.227   5.206   4.620
14671TIP3    H243955   0.204   5.178   4.474
14672TIP3   OH243956   0.621   4.524   5.766
14672TIP3    H143957   0.605   4.480   5.683
14672TIP3    H243958   0.609   4.456   5.833
14673TIP3   OH243959   7.389   2.016   4.749
14673TIP3    H143960   7.421   2.099   4.713
14673TIP3    H243961   7.320   1.989   4.689
14674TIP3   OH243962   3.725   7.927   3.446
14674TIP3    H143963   3.790   7.935   3.516
14674TIP3    H243964   3.703   8.018   3.423
14675TIP3   OH243965   0.744   0.015   1.499
14675TIP3    H143966   0.745  -0.047   1.426
14675TIP3    H243967   0.742   0.101   1.457
14676TIP3   OH243968   6.784   7.205   6.579
14676TIP3    H143969   6.709   7.206   6.520
14676TIP3    H243970   6.746   7.223   6.665
14677TIP3   OH243971   7.640   2.563   5.248
14677TIP3    H143972   7.642   2.640   5.191
14677TIP3    H243973   7.554   2.566   5.290
14678TIP3   OH243974   0.890   1.673   5.443
14678TIP3    H143975   0.839   1.682   5.524
14678TIP3    H243976   0.978   1.701   5.468
14679TIP3   OH243977   6.002   1.159   5.844
14679TIP3    H143978   6.014   1.250   5.817
14679TIP3    H243979   5.922   1.131   5.799
14680TIP3   OH243980   6.555   4.091   0.023
14680TIP3    H143981   6.614   4.018   0.001
14680TIP3    H243982   6.474   4.049   0.052
14681TIP3   OH243983   5.706   1.281   0.379
14681TIP3    H143984   5.765   1.269   0.305
14681TIP3    H243985   5.763   1.288   0.455
14682TIP3   OH243986   0.449   1.506   3.675
14682TIP3    H143987   0.460   1.415   3.645
14682TIP3    H243988   0.512   1.515   3.746
14683TIP3   OH243989   7.961   6.139   4.612
14683TIP3    H143990   8.029   6.139   4.545
14683TIP3    H243991   7.943   6.047   4.629
14684TIP3   OH243992   5.568   1.381   6.228
14684TIP3    H143993   5.633   1.361   6.160
14684TIP3    H243994   5.586   1.317   6.297
14685TIP3   OH243995   1.228   6.204   4.786
14685TIP3    H143996   1.140   6.230   4.759
14685TIP3    H243997   1.285   6.231   4.714
14686TIP3   OH243998   3.618   5.863   3.738
14686TIP3    H143999   3.632   5.864   3.643
14686TIP3    H244000   3.679   5.929   3.772
14687TIP3   OH244001   6.668   2.061   5.213
14687TIP3    H144002   6.713   2.146   5.219
14687TIP3    H244003   6.725   2.001   5.260
14688TIP3   OH244004   5.148   2.770   5.263
14688TIP3    H144005   5.229   2.721   5.248
14688TIP3    H244006   5.155   2.802   5.353
14689TIP3   OH244007   5.713   5.795   6.543
14689TIP3    H144008   5.794   5.752   6.516
14689TIP3    H244009   5.728   5.888   6.528
14690TIP3   OH244010   6.877   6.145   5.809
14690TIP3    H144011   6.959   6.166   5.765
14690TIP3    H244012   6.836   6.230   5.825
14691TIP3   OH244013   7.530   5.807   5.515
14691TIP3    H144014   7.460   5.859   5.555
14691TIP3    H244015   7.605   5.819   5.572
14692TIP3   OH244016   2.524   5.963   6.155
14692TIP3    H144017   2.579   5.909   6.212
14692TIP3    H244018   2.438   5.964   6.198
14693TIP3   OH244019   3.203   4.174   3.263
14693TIP3    H144020   3.273   4.134   3.315
14693TIP3    H244021   3.148   4.218   3.327
14694TIP3   OH244022   4.126   7.822   5.719
14694TIP3    H144023   4.138   7.899   5.774
14694TIP3    H244024   4.088   7.756   5.778
14695TIP3   OH244025   1.182   7.374   1.412
14695TIP3    H144026   1.128   7.400   1.336
14695TIP3    H244027   1.120   7.331   1.471
14696TIP3   OH244028   3.569   6.955   0.994
14696TIP3    H144029   3.577   7.001   1.078
14696TIP3    H244030   3.606   7.016   0.930
14697TIP3   OH244031   4.566   7.874   1.758
14697TIP3    H144032   4.494   7.886   1.820
14697TIP3    H244033   4.645   7.895   1.807
14698TIP3   OH244034   0.353   6.697   0.324
14698TIP3    H144035   0.355   6.609   0.360
14698TIP3    H244036   0.278   6.696   0.263
14699TIP3   OH244037   6.907   7.727   3.519
14699TIP3    H144038   6.861   7.661   3.570
14699TIP3    H244039   6.919   7.687   3.433
14700TIP3   OH244040   4.388   6.917   4.529
14700TIP3    H144041   4.451   6.969   4.579
14700TIP3    H244042   4.385   6.959   4.443
14701TIP3   OH244043   3.784   3.971   3.435
14701TIP3    H144044   3.798   3.913   3.361
14701TIP3    H244045   3.799   3.917   3.512
14702TIP3   OH244046   4.652   3.981   2.112
14702TIP3    H144047   4.630   3.902   2.161
14702TIP3    H244048   4.571   4.006   2.068
14703TIP3   OH244049   2.196   3.095   3.645
14703TIP3    H144050   2.275   3.063   3.602
14703TIP3    H244051   2.164   3.020   3.696
14704TIP3   OH244052   5.956   6.162   0.854
14704TIP3    H144053   5.939   6.158   0.760
14704TIP3    H244054   5.922   6.248   0.880
14705TIP3   OH244055   3.809   6.993   6.024
14705TIP3    H144056   3.894   7.000   5.980
14705TIP3    H244057   3.813   7.059   6.093
14706TIP3   OH244058   4.552   0.632   6.150
14706TIP3    H144059   4.479   0.571   6.163
14706TIP3    H244060   4.527   0.683   6.072
14707TIP3   OH244061   1.772   3.397   0.754
14707TIP3    H144062   1.793   3.444   0.674
14707TIP3    H244063   1.857   3.378   0.794
14708TIP3   OH244064   5.056   3.793   5.770
14708TIP3    H144065   5.053   3.702   5.802
14708TIP3    H244066   5.025   3.845   5.844
14709TIP3   OH244067   0.943   0.730   5.332
14709TIP3    H144068   1.037   0.733   5.346
14709TIP3    H244069   0.906   0.710   5.418
14710TIP3   OH244070   6.678   4.452   2.619
14710TIP3    H144071   6.740   4.401   2.566
14710TIP3    H244072   6.716   4.452   2.707
14711TIP3   OH244073   1.689   6.354   6.743
14711TIP3    H144074   1.639   6.287   6.696
14711TIP3    H244075   1.678   6.331   6.836
14712TIP3   OH244076   4.478   7.053   0.459
14712TIP3    H144077   4.526   7.122   0.505
14712TIP3    H244078   4.544   6.985   0.443
14713TIP3   OH244079   0.594   0.765   1.074
14713TIP3    H144080   0.679   0.725   1.058
14713TIP3    H244081   0.607   0.822   1.149
14714TIP3   OH244082   0.346   2.487   6.410
14714TIP3    H144083   0.404   2.561   6.422
14714TIP3    H244084   0.269   2.507   6.464
14715TIP3   OH244085   7.251   7.550   0.425
14715TIP3    H144086   7.156   7.546   0.417
14715TIP3    H244087   7.277   7.623   0.369
14716TIP3   OH244088   7.537   3.383   1.930
14716TIP3    H144089   7.495   3.332   1.861
14716TIP3    H244090   7.508   3.473   1.914
14717TIP3   OH244091   7.180   3.391   4.287
14717TIP3    H144092   7.201   3.484   4.277
14717TIP3    H244093   7.098   3.391   4.337
14718TIP3   OH244094   7.692   6.038   4.838
14718TIP3    H144095   7.714   6.028   4.746
14718TIP3    H244096   7.677   5.949   4.869
14719TIP3   OH244097   6.976   0.110   5.877
14719TIP3    H144098   7.056   0.145   5.915
14719TIP3    H244099   6.919   0.092   5.952
14720TIP3   OH244100   3.927   3.176   2.049
14720TIP3    H144101   3.835   3.157   2.062
14720TIP3    H244102   3.931   3.271   2.038
14721TIP3   OH244103   5.842   6.605   3.831
14721TIP3    H144104   5.894   6.603   3.751
14721TIP3    H244105   5.901   6.569   3.898
14722TIP3   OH244106   6.124   0.584   2.716
14722TIP3    H144107   6.075   0.505   2.690
14722TIP3    H244108   6.213   0.568   2.687
14723TIP3   OH244109   4.054   0.456   0.397
14723TIP3    H144110   4.072   0.371   0.356
14723TIP3    H244111   4.141   0.489   0.421
14724TIP3   OH244112   2.628   6.595   2.529
14724TIP3    H144113   2.599   6.556   2.447
14724TIP3    H244114   2.574   6.673   2.540
14725TIP3   OH244115   3.037   6.106   0.129
14725TIP3    H144116   2.951   6.126   0.091
14725TIP3    H244117   3.074   6.191   0.151
14726TIP3   OH244118   1.913   6.807   3.924
14726TIP3    H144119   1.917   6.903   3.927
14726TIP3    H244120   1.935   6.785   3.834
14727TIP3   OH244121   1.880   0.169   5.924
14727TIP3    H144122   1.902   0.099   5.863
14727TIP3    H244123   1.800   0.208   5.890
14728TIP3   OH244124   3.988   3.390   1.874
14728TIP3    H144125   3.921   3.368   1.809
14728TIP3    H244126   3.967   3.479   1.901
14729TIP3   OH244127   6.679   2.181   5.998
14729TIP3    H144128   6.642   2.137   6.075
14729TIP3    H244129   6.761   2.219   6.030
14730TIP3   OH244130   2.722   6.194   3.027
14730TIP3    H144131   2.776   6.124   2.990
14730TIP3    H244132   2.713   6.171   3.120
14731TIP3   OH244133   6.260   6.088   1.829
14731TIP3    H144134   6.175   6.105   1.869
14731TIP3    H244135   6.324   6.118   1.894
14732TIP3   OH244136   2.289   2.286   1.230
14732TIP3    H144137   2.339   2.206   1.212
14732TIP3    H244138   2.245   2.305   1.147
14733TIP3   OH244139   4.955   6.611   6.648
14733TIP3    H144140   5.011   6.670   6.597
14733TIP3    H244141   5.007   6.590   6.726
14734TIP3   OH244142   0.028   2.356   1.234
14734TIP3    H144143  -0.027   2.388   1.306
14734TIP3    H244144   0.111   2.404   1.244
14735TIP3   OH244145   6.509   3.223   3.277
14735TIP3    H144146   6.539   3.271   3.200
14735TIP3    H244147   6.589   3.204   3.326
14736TIP3   OH244148   6.004   4.031   4.768
14736TIP3    H144149   6.038   3.946   4.739
14736TIP3    H244150   5.961   4.012   4.852
14737TIP3   OH244151   3.200   0.247   0.402
14737TIP3    H144152   3.266   0.183   0.428
14737TIP3    H244153   3.126   0.194   0.371
14738TIP3   OH244154   5.097   3.291   4.152
14738TIP3    H144155   5.175   3.255   4.193
14738TIP3    H244156   5.128   3.363   4.097
14739TIP3   OH244157   1.094   7.526   0.337
14739TIP3    H144158   1.028   7.562   0.279
14739TIP3    H244159   1.086   7.431   0.326
14740TIP3   OH244160   5.203   6.531   1.040
14740TIP3    H144161   5.130   6.495   0.990
14740TIP3    H244162   5.180   6.623   1.054
14741TIP3   OH244163   2.653   1.954   3.054
14741TIP3    H144164   2.636   2.025   3.116
14741TIP3    H244165   2.668   1.997   2.970
14742TIP3   OH244166   4.591   1.188   2.729
14742TIP3    H144167   4.539   1.108   2.727
14742TIP3    H244168   4.682   1.157   2.725
14743TIP3   OH244169   0.265   7.421   5.129
14743TIP3    H144170   0.343   7.402   5.077
14743TIP3    H244171   0.195   7.371   5.087
14744TIP3   OH244172   0.203   2.874   2.151
14744TIP3    H144173   0.267   2.811   2.186
14744TIP3    H244174   0.253   2.954   2.138
14745TIP3   OH244175   8.309   7.327   5.450
14745TIP3    H144176   8.382   7.271   5.424
14745TIP3    H244177   8.350   7.406   5.485
14746TIP3   OH244178   4.761   1.519   1.407
14746TIP3    H144179   4.711   1.476   1.477
14746TIP3    H244180   4.810   1.588   1.453
14747TIP3   OH244181   6.872   5.152   5.713
14747TIP3    H144182   6.944   5.215   5.722
14747TIP3    H244183   6.819   5.186   5.641
14748TIP3   OH244184   7.297   3.231   4.966
14748TIP3    H144185   7.299   3.139   4.941
14748TIP3    H244186   7.307   3.279   4.883
14749TIP3   OH244187   4.092   6.121   3.064
14749TIP3    H144188   4.052   6.127   2.978
14749TIP3    H244189   4.154   6.194   3.067
14750TIP3   OH244190   4.747   6.654   0.694
14750TIP3    H144191   4.776   6.742   0.718
14750TIP3    H244192   4.824   6.613   0.654
14751TIP3   OH244193   4.253   3.741   6.619
14751TIP3    H144194   4.260   3.722   6.713
14751TIP3    H244195   4.326   3.694   6.579
14752TIP3   OH244196   3.481   6.838   3.203
14752TIP3    H144197   3.389   6.864   3.210
14752TIP3    H244198   3.479   6.742   3.207
14753TIP3   OH244199   1.295   2.024   1.010
14753TIP3    H144200   1.333   1.947   0.967
14753TIP3    H244201   1.211   1.994   1.042
14754TIP3   OH244202   3.795   1.600   2.912
14754TIP3    H144203   3.793   1.512   2.874
14754TIP3    H244204   3.808   1.658   2.838
14755TIP3   OH244205   6.568   3.874   2.621
14755TIP3    H144206   6.567   3.787   2.662
14755TIP3    H244207   6.621   3.863   2.542
14756TIP3   OH244208   5.886   4.145   4.099
14756TIP3    H144209   5.791   4.148   4.088
14756TIP3    H244210   5.900   4.095   4.180
14757TIP3   OH244211   2.255   7.338   4.119
14757TIP3    H144212   2.276   7.428   4.092
14757TIP3    H244213   2.161   7.329   4.103
14758TIP3   OH244214   5.800   0.807   5.016
14758TIP3    H144215   5.716   0.829   5.056
14758TIP3    H244216   5.782   0.809   4.922
14759TIP3   OH244217   7.056   0.334   5.642
14759TIP3    H144218   7.090   0.255   5.684
14759TIP3    H244219   7.018   0.303   5.560
14760TIP3   OH244220   0.629   6.725   2.589
14760TIP3    H144221   0.616   6.800   2.647
14760TIP3    H244222   0.711   6.743   2.544
14761TIP3   OH244223   3.927   7.203   3.518
14761TIP3    H144224   4.001   7.233   3.465
14761TIP3    H244225   3.960   7.206   3.608
14762TIP3   OH244226   1.008   0.456   5.672
14762TIP3    H144227   0.934   0.483   5.617
14762TIP3    H244228   0.968   0.418   5.750
14763TIP3   OH244229   6.775   3.146   2.269
14763TIP3    H144230   6.765   3.113   2.358
14763TIP3    H244231   6.774   3.067   2.214
14764TIP3   OH244232   8.182   3.958   1.608
14764TIP3    H144233   8.180   3.885   1.671
14764TIP3    H244234   8.114   3.937   1.545
14765TIP3   OH244235   4.491   5.907   6.165
14765TIP3    H144236   4.469   5.985   6.114
14765TIP3    H244237   4.413   5.853   6.159
14766TIP3   OH244238   8.218   1.313   1.769
14766TIP3    H144239   8.274   1.238   1.787
14766TIP3    H244240   8.266   1.388   1.804
14767TIP3   OH244241   1.997   1.677   4.995
14767TIP3    H144242   2.089   1.699   5.007
14767TIP3    H244243   1.950   1.758   5.015
14768TIP3   OH244244   7.923   3.545   3.241
14768TIP3    H144245   7.939   3.502   3.157
14768TIP3    H244246   7.928   3.475   3.305
14769TIP3   OH244247   0.668   3.056   2.879
14769TIP3    H144248   0.663   3.070   2.785
14769TIP3    H244249   0.659   3.143   2.917
14770TIP3   OH244250   3.068   2.330   3.196
14770TIP3    H144251   3.110   2.246   3.215
14770TIP3    H244252   3.124   2.395   3.238
14771TIP3   OH244253   2.261   7.144   6.069
14771TIP3    H144254   2.198   7.084   6.109
14771TIP3    H244255   2.345   7.120   6.109
14772TIP3   OH244256   0.341   7.437   6.254
14772TIP3    H144257   0.317   7.526   6.280
14772TIP3    H244258   0.272   7.410   6.194
14773TIP3   OH244259   1.141   4.532   3.356
14773TIP3    H144260   1.132   4.446   3.397
14773TIP3    H244261   1.233   4.536   3.329
14774TIP3   OH244262   3.733   0.018   1.044
14774TIP3    H144263   3.773   0.069   0.974
14774TIP3    H244264   3.679  -0.047   0.999
14775TIP3   OH244265   0.060   6.898   3.251
14775TIP3    H144266   0.009   6.954   3.194
14775TIP3    H244267   0.097   6.831   3.193
14776TIP3   OH244268   0.385   6.132   6.870
14776TIP3    H144269   0.408   6.146   6.778
14776TIP3    H244270   0.370   6.219   6.905
14777TIP3   OH244271   5.966   1.000   6.615
14777TIP3    H144272   5.948   1.094   6.621
14777TIP3    H244273   6.009   0.979   6.698
14778TIP3   OH244274   3.206   0.076   6.694
14778TIP3    H144275   3.302   0.081   6.691
14778TIP3    H244276   3.185   0.070   6.788
14779TIP3   OH244277   1.464   2.746   3.015
14779TIP3    H144278   1.426   2.758   3.101
14779TIP3    H244279   1.426   2.816   2.961
14780TIP3   OH244280   7.258   3.463   5.792
14780TIP3    H144281   7.198   3.456   5.867
14780TIP3    H244282   7.334   3.510   5.826
14781TIP3   OH244283   5.225   5.211   1.382
14781TIP3    H144284   5.194   5.256   1.304
14781TIP3    H244285   5.184   5.124   1.378
14782TIP3   OH244286   5.002   6.856   6.836
14782TIP3    H144287   4.964   6.769   6.848
14782TIP3    H244288   5.005   6.893   6.924
14783TIP3   OH244289   2.349   4.269   2.847
14783TIP3    H144290   2.435   4.307   2.867
14783TIP3    H244291   2.297   4.343   2.816
14784TIP3   OH244292   2.565   6.566   6.038
14784TIP3    H144293   2.638   6.558   5.976
14784TIP3    H244294   2.586   6.644   6.090
14785TIP3   OH244295   4.489   5.943   0.878
14785TIP3    H144296   4.583   5.941   0.862
14785TIP3    H244297   4.475   5.879   0.949
14786TIP3   OH244298   2.449   1.542   6.351
14786TIP3    H144299   2.482   1.627   6.322
14786TIP3    H244300   2.527   1.489   6.363
14787TIP3   OH244301   2.858   1.023   2.360
14787TIP3    H144302   2.882   1.003   2.451
14787TIP3    H244303   2.802   1.100   2.367
14788TIP3   OH244304   6.964   4.428   0.439
14788TIP3    H144305   6.968   4.524   0.438
14788TIP3    H244306   7.031   4.403   0.502
14789TIP3   OH244307   4.250   6.245   0.552
14789TIP3    H144308   4.292   6.314   0.604
14789TIP3    H244309   4.294   6.248   0.467
14790TIP3   OH244310   4.536   0.343   4.573
14790TIP3    H144311   4.572   0.380   4.492
14790TIP3    H244312   4.479   0.272   4.543
14791TIP3   OH244313   7.818   7.642   6.875
14791TIP3    H144314   7.806   7.629   6.781
14791TIP3    H244315   7.844   7.556   6.907
14792TIP3   OH244316   3.844   4.869   0.925
14792TIP3    H144317   3.906   4.925   0.878
14792TIP3    H244318   3.778   4.930   0.959
14793TIP3   OH244319   7.719   6.199   2.399
14793TIP3    H144320   7.761   6.280   2.429
14793TIP3    H244321   7.653   6.180   2.465
14794TIP3   OH244322   7.409   5.136   5.539
14794TIP3    H144323   7.473   5.105   5.475
14794TIP3    H244324   7.453   5.208   5.583
14795TIP3   OH244325   5.388   7.484   4.663
14795TIP3    H144326   5.361   7.543   4.592
14795TIP3    H244327   5.420   7.406   4.618
14796TIP3   OH244328   8.324   3.299   1.662
14796TIP3    H144329   8.414   3.267   1.673
14796TIP3    H244330   8.281   3.231   1.610
14797TIP3   OH244331   2.505   1.286   5.523
14797TIP3    H144332   2.590   1.243   5.516
14797TIP3    H244333   2.526   1.377   5.544
14798TIP3   OH244334   4.299   6.404   5.566
14798TIP3    H144335   4.251   6.351   5.630
14798TIP3    H244336   4.234   6.466   5.532
14799TIP3   OH244337   7.317   2.783   2.488
14799TIP3    H144338   7.236   2.776   2.437
14799TIP3    H244339   7.353   2.694   2.489
14800TIP3   OH244340   3.343   2.703   4.850
14800TIP3    H144341   3.381   2.751   4.777
14800TIP3    H244342   3.333   2.614   4.818
14801TIP3   OH244343   0.265   7.380   1.445
14801TIP3    H144344   0.299   7.448   1.388
14801TIP3    H244345   0.312   7.301   1.418
14802TIP3   OH244346   1.898   4.310   4.666
14802TIP3    H144347   1.808   4.325   4.695
14802TIP3    H244348   1.941   4.394   4.679
14803TIP3   OH244349   4.013   6.826   5.155
14803TIP3    H144350   3.999   6.740   5.115
14803TIP3    H244351   4.046   6.806   5.243
14804TIP3   OH244352   4.907   2.795   3.359
14804TIP3    H144353   4.821   2.838   3.359
14804TIP3    H244354   4.904   2.736   3.434
14805TIP3   OH244355   2.367   0.232   0.934
14805TIP3    H144356   2.375   0.319   0.895
14805TIP3    H244357   2.430   0.231   1.006
14806TIP3   OH244358   6.750   5.715   6.094
14806TIP3    H144359   6.668   5.757   6.069
14806TIP3    H244360   6.733   5.621   6.083
14807TIP3   OH244361   3.006   3.180   6.522
14807TIP3    H144362   2.987   3.265   6.484
14807TIP3    H244363   2.921   3.134   6.523
14808TIP3   OH244364   1.703   7.288   2.716
14808TIP3    H144365   1.669   7.329   2.636
14808TIP3    H244366   1.778   7.342   2.741
14809TIP3   OH244367   1.711   6.246   2.199
14809TIP3    H144368   1.675   6.157   2.210
14809TIP3    H244369   1.659   6.300   2.259
14810TIP3   OH244370   1.446   3.691   6.337
14810TIP3    H144371   1.385   3.633   6.291
14810TIP3    H244372   1.524   3.637   6.350
14811TIP3   OH244373   2.882   7.531   5.342
14811TIP3    H144374   2.821   7.604   5.338
14811TIP3    H244375   2.964   7.568   5.374
14812TIP3   OH244376   3.017   0.443   6.674
14812TIP3    H144377   3.002   0.350   6.692
14812TIP3    H244378   3.098   0.445   6.624
14813TIP3   OH244379   0.180   0.779   3.618
14813TIP3    H144380   0.172   0.874   3.629
14813TIP3    H244381   0.187   0.745   3.707
14814TIP3   OH244382   0.429   0.144   5.775
14814TIP3    H144383   0.390   0.190   5.849
14814TIP3    H244384   0.522   0.136   5.798
14815TIP3   OH244385   1.816   5.962   1.605
14815TIP3    H144386   1.727   5.927   1.609
14815TIP3    H244387   1.813   6.041   1.660
14816TIP3   OH244388   4.932   4.143   3.610
14816TIP3    H144389   4.942   4.236   3.591
14816TIP3    H244390   5.018   4.116   3.642
14817TIP3   OH244391   6.647   1.712   3.263
14817TIP3    H144392   6.662   1.621   3.240
14817TIP3    H244393   6.561   1.733   3.227
14818TIP3   OH244394   2.405   3.542   3.934
14818TIP3    H144395   2.407   3.463   3.880
14818TIP3    H244396   2.497   3.561   3.952
14819TIP3   OH244397   0.775   3.851   1.500
14819TIP3    H144398   0.839   3.791   1.537
14819TIP3    H244399   0.770   3.826   1.407
14820TIP3   OH244400   6.311   6.878   3.994
14820TIP3    H144401   6.247   6.924   4.048
14820TIP3    H244402   6.266   6.866   3.910
14821TIP3   OH244403   4.976   0.160   5.788
14821TIP3    H144404   4.895   0.198   5.754
14821TIP3    H244405   4.948   0.075   5.823
14822TIP3   OH244406   7.384   1.707   5.984
14822TIP3    H144407   7.375   1.749   5.898
14822TIP3    H244408   7.300   1.724   6.027
14823TIP3   OH244409   8.118   7.496   1.939
14823TIP3    H144410   8.147   7.459   1.855
14823TIP3    H244411   8.197   7.529   1.980
14824TIP3   OH244412   7.166   1.702   2.384
14824TIP3    H144413   7.098   1.649   2.342
14824TIP3    H244414   7.128   1.790   2.388
14825TIP3   OH244415   3.220   6.786   6.266
14825TIP3    H144416   3.197   6.763   6.176
14825TIP3    H244417   3.286   6.721   6.291
14826TIP3   OH244418   0.855   0.153   4.978
14826TIP3    H144419   0.910   0.081   5.010
14826TIP3    H244420   0.878   0.228   5.033
14827TIP3   OH244421   6.703   0.369   6.497
14827TIP3    H144422   6.794   0.339   6.491
14827TIP3    H244423   6.659   0.302   6.549
14828TIP3   OH244424   5.127   1.349   3.164
14828TIP3    H144425   5.052   1.407   3.149
14828TIP3    H244426   5.115   1.318   3.254
14829TIP3   OH244427   4.329   1.424   6.045
14829TIP3    H144428   4.411   1.424   5.996
14829TIP3    H244429   4.298   1.514   6.038
14830TIP3   OH244430   5.494   6.741   6.195
14830TIP3    H144431   5.518   6.795   6.120
14830TIP3    H244432   5.567   6.679   6.204
14831TIP3   OH244433   4.895   1.481   6.090
14831TIP3    H144434   4.944   1.563   6.087
14831TIP3    H244435   4.914   1.446   6.177
14832TIP3   OH244436   5.595   5.901   4.983
14832TIP3    H144437   5.606   5.992   5.013
14832TIP3    H244438   5.578   5.852   5.064
14833TIP3   OH244439   1.883   1.631   0.957
14833TIP3    H144440   1.955   1.629   0.894
14833TIP3    H244441   1.850   1.721   0.954
14834TIP3   OH244442   4.333   7.557   1.081
14834TIP3    H144443   4.277   7.609   1.139
14834TIP3    H244444   4.346   7.475   1.128
14835TIP3   OH244445   3.618   6.637   5.714
14835TIP3    H144446   3.624   6.545   5.737
14835TIP3    H244447   3.709   6.667   5.707
14836TIP3   OH244448   7.930   3.060   0.401
14836TIP3    H144449   7.999   3.021   0.455
14836TIP3    H244450   7.945   3.024   0.313
14837TIP3   OH244451   6.839   5.586   0.863
14837TIP3    H144452   6.764   5.567   0.918
14837TIP3    H244453   6.883   5.501   0.852
14838TIP3   OH244454   2.807   6.989   4.112
14838TIP3    H144455   2.785   6.937   4.190
14838TIP3    H244456   2.741   7.059   4.111
14839TIP3   OH244457   1.977   5.669   6.105
14839TIP3    H144458   2.042   5.615   6.152
14839TIP3    H244459   1.916   5.605   6.069
14840TIP3   OH244460   3.635   0.892   3.931
14840TIP3    H144461   3.605   0.982   3.931
14840TIP3    H244462   3.714   0.893   3.878
14841TIP3   OH244463   3.326   4.583   5.060
14841TIP3    H144464   3.285   4.551   4.980
14841TIP3    H244465   3.341   4.676   5.043
14842TIP3   OH244466   8.199   6.898   3.138
14842TIP3    H144467   8.213   6.846   3.060
14842TIP3    H244468   8.171   6.835   3.205
14843TIP3   OH244469   1.649   2.882   3.230
14843TIP3    H144470   1.648   2.887   3.135
14843TIP3    H244471   1.678   2.793   3.250
14844TIP3   OH244472   5.379   6.549   2.485
14844TIP3    H144473   5.447   6.608   2.451
14844TIP3    H244474   5.353   6.589   2.568
14845TIP3   OH244475   1.985   3.677   2.152
14845TIP3    H144476   1.976   3.648   2.061
14845TIP3    H244477   1.990   3.597   2.203
14846TIP3   OH244478   1.402   5.438   0.949
14846TIP3    H144479   1.477   5.495   0.931
14846TIP3    H244480   1.371   5.410   0.863
14847TIP3   OH244481   6.174   4.094   3.131
14847TIP3    H144482   6.211   4.069   3.216
14847TIP3    H244483   6.090   4.048   3.127
14848TIP3   OH244484   1.864   3.080   0.126
14848TIP3    H144485   1.845   2.997   0.084
14848TIP3    H244486   1.959   3.081   0.137
14849TIP3   OH244487   6.793   2.857   6.401
14849TIP3    H144488   6.855   2.926   6.375
14849TIP3    H244489   6.740   2.841   6.323
14850TIP3   OH244490   0.729   4.508   6.883
14850TIP3    H144491   0.714   4.479   6.794
14850TIP3    H244492   0.651   4.559   6.905
14851TIP3   OH244493   3.481   2.606   3.284
14851TIP3    H144494   3.533   2.538   3.325
14851TIP3    H244495   3.440   2.562   3.209
14852TIP3   OH244496   3.505   2.277   2.144
14852TIP3    H144497   3.468   2.201   2.098
14852TIP3    H244498   3.498   2.349   2.081
14853TIP3   OH244499   1.131   3.362   5.992
14853TIP3    H144500   1.047   3.365   5.946
14853TIP3    H244501   1.132   3.276   6.035
14854TIP3   OH244502   5.020   5.231   5.734
14854TIP3    H144503   4.973   5.310   5.706
14854TIP3    H244504   4.951   5.169   5.758
14855TIP3   OH244505   5.964   2.228   1.832
14855TIP3    H144506   5.881   2.256   1.793
14855TIP3    H244507   5.941   2.201   1.921
14856TIP3   OH244508   3.078   7.108   3.240
14856TIP3    H144509   3.035   7.057   3.171
14856TIP3    H244510   3.007   7.150   3.287
14857TIP3   OH244511   3.610   0.152   1.542
14857TIP3    H144512   3.588   0.173   1.452
14857TIP3    H244513   3.557   0.074   1.563
14858TIP3   OH244514   5.299   7.349   5.173
14858TIP3    H144515   5.301   7.289   5.247
14858TIP3    H244516   5.298   7.436   5.213
14859TIP3   OH244517   5.625   1.415   1.514
14859TIP3    H144518   5.706   1.396   1.467
14859TIP3    H244519   5.608   1.337   1.566
14860TIP3   OH244520   8.330   6.986   0.032
14860TIP3    H144521   8.283   7.059   0.073
14860TIP3    H244522   8.400   7.029  -0.018
14861TIP3   OH244523   2.136   1.128   5.160
14861TIP3    H144524   2.204   1.173   5.211
14861TIP3    H244525   2.067   1.110   5.223
14862TIP3   OH244526   7.105   7.528   3.647
14862TIP3    H144527   7.112   7.620   3.619
14862TIP3    H244528   7.195   7.502   3.667
14863TIP3   OH244529   1.215   0.943   2.549
14863TIP3    H144530   1.305   0.912   2.543
14863TIP3    H244531   1.210   0.986   2.635
14864TIP3   OH244532   4.257   2.512   5.740
14864TIP3    H144533   4.296   2.596   5.718
14864TIP3    H244534   4.265   2.460   5.660
14865TIP3   OH244535   4.783   7.583   5.583
14865TIP3    H144536   4.820   7.658   5.629
14865TIP3    H244537   4.784   7.512   5.646
14866TIP3   OH244538   4.611   2.979   4.869
14866TIP3    H144539   4.627   3.068   4.900
14866TIP3    H244540   4.690   2.930   4.892
14867TIP3   OH244541   4.727   0.653   5.041
14867TIP3    H144542   4.742   0.739   5.079
14867TIP3    H244543   4.632   0.645   5.035
14868TIP3   OH244544   3.976   7.788   5.372
14868TIP3    H144545   4.055   7.819   5.416
14868TIP3    H244546   3.995   7.697   5.349
14869TIP3   OH244547   3.300   6.153   1.377
14869TIP3    H144548   3.344   6.168   1.460
14869TIP3    H244549   3.370   6.136   1.314
14870TIP3   OH244550   6.696   1.986   1.774
14870TIP3    H144551   6.679   2.070   1.731
14870TIP3    H244552   6.733   2.010   1.859
14871TIP3   OH244553   6.873   1.888   6.138
14871TIP3    H144554   6.887   1.797   6.165
14871TIP3    H244555   6.777   1.896   6.131
14872TIP3   OH244556   2.319   3.458   2.176
14872TIP3    H144557   2.376   3.416   2.241
14872TIP3    H244558   2.379   3.501   2.116
14873TIP3   OH244559   2.052   6.317   3.349
14873TIP3    H144560   1.961   6.348   3.341
14873TIP3    H244561   2.099   6.392   3.384
14874TIP3   OH244562   8.108   2.966   3.402
14874TIP3    H144563   8.028   2.975   3.454
14874TIP3    H244564   8.083   2.908   3.330
14875TIP3   OH244565   5.450   7.578   1.053
14875TIP3    H144566   5.459   7.667   1.087
14875TIP3    H244567   5.359   7.554   1.072
14876TIP3   OH244568   3.127   3.507   6.760
14876TIP3    H144569   3.123   3.574   6.828
14876TIP3    H244570   3.084   3.431   6.798
14877TIP3   OH244571   2.361   2.581   2.420
14877TIP3    H144572   2.296   2.618   2.361
14877TIP3    H244573   2.312   2.521   2.476
14878TIP3   OH244574   5.775   2.480   3.196
14878TIP3    H144575   5.691   2.446   3.224
14878TIP3    H244576   5.811   2.524   3.273
14879TIP3   OH244577   3.163   3.056   6.792
14879TIP3    H144578   3.246   3.036   6.750
14879TIP3    H244579   3.098   3.007   6.741
14880TIP3   OH244580   5.691   2.578   4.993
14880TIP3    H144581   5.657   2.515   4.929
14880TIP3    H244582   5.664   2.544   5.077
14881TIP3   OH244583   2.966   7.651   5.098
14881TIP3    H144584   2.882   7.688   5.126
14881TIP3    H244585   2.945   7.594   5.025
14882TIP3   OH244586   7.375   7.009   6.380
14882TIP3    H144587   7.307   6.984   6.317
14882TIP3    H244588   7.392   6.929   6.430
14883TIP3   OH244589   4.800   3.698   5.751
14883TIP3    H144590   4.729   3.738   5.801
14883TIP3    H244591   4.847   3.773   5.713
14884TIP3   OH244592   2.499   6.636   2.170
14884TIP3    H144593   2.545   6.713   2.202
14884TIP3    H244594   2.475   6.657   2.080
14885TIP3   OH244595   6.161   6.409   6.356
14885TIP3    H144596   6.107   6.435   6.281
14885TIP3    H244597   6.200   6.490   6.387
14886TIP3   OH244598   6.983   2.529   2.993
14886TIP3    H144599   7.011   2.457   2.937
14886TIP3    H244600   7.063   2.577   3.013
14887TIP3   OH244601   7.438   3.412   4.829
14887TIP3    H144602   7.460   3.455   4.747
14887TIP3    H244603   7.400   3.481   4.883
14888TIP3   OH244604   3.941   2.261   4.822
14888TIP3    H144605   3.961   2.191   4.883
14888TIP3    H244606   3.920   2.217   4.740
14889TIP3   OH244607   6.474   4.355   6.742
14889TIP3    H144608   6.432   4.395   6.817
14889TIP3    H244609   6.473   4.261   6.761
14890TIP3   OH244610   8.125   4.884   2.776
14890TIP3    H144611   8.105   4.893   2.869
14890TIP3    H244612   8.220   4.876   2.772
14891TIP3   OH244613   2.476   3.305   2.673
14891TIP3    H144614   2.392   3.349   2.678
14891TIP3    H244615   2.457   3.214   2.697
14892TIP3   OH244616   8.173   4.579   1.990
14892TIP3    H144617   8.089   4.594   1.947
14892TIP3    H244618   8.154   4.519   2.061
14893TIP3   OH244619   6.002   5.330   3.303
14893TIP3    H144620   5.945   5.314   3.378
14893TIP3    H244621   6.050   5.248   3.291
14894TIP3   OH244622   6.793   4.368   4.796
14894TIP3    H144623   6.862   4.400   4.854
14894TIP3    H244624   6.835   4.298   4.746
14895TIP3   OH244625   5.383   3.839   6.702
14895TIP3    H144626   5.434   3.855   6.623
14895TIP3    H244627   5.304   3.891   6.691
14896TIP3   OH244628   5.669   1.014   6.153
14896TIP3    H144629   5.702   1.005   6.064
14896TIP3    H244630   5.657   0.923   6.183
14897TIP3   OH244631   6.787   5.532   0.128
14897TIP3    H144632   6.824   5.580   0.054
14897TIP3    H244633   6.693   5.527   0.109
14898TIP3   OH244634   1.811   2.026   0.333
14898TIP3    H144635   1.741   1.966   0.359
14898TIP3    H244636   1.890   1.991   0.375
14899TIP3   OH244637   1.386   7.295   2.974
14899TIP3    H144638   1.387   7.253   2.888
14899TIP3    H244639   1.296   7.326   2.985
14900TIP3   OH244640   1.632   6.424   1.127
14900TIP3    H144641   1.676   6.477   1.193
14900TIP3    H244642   1.670   6.337   1.137
14901TIP3   OH244643   2.820   4.141   0.381
14901TIP3    H144644   2.736   4.188   0.384
14901TIP3    H244645   2.795   4.049   0.378
14902TIP3   OH244646   3.893   4.939   2.047
14902TIP3    H144647   3.810   4.987   2.047
14902TIP3    H244648   3.871   4.851   2.078
14903TIP3   OH244649   6.998   6.446   2.445
14903TIP3    H144650   7.078   6.447   2.498
14903TIP3    H244651   6.965   6.536   2.448
14904TIP3   OH244652   5.338   2.952   1.641
14904TIP3    H144653   5.330   2.870   1.593
14904TIP3    H244654   5.272   2.945   1.711
14905TIP3   OH244655   0.908   4.631   3.259
14905TIP3    H144656   0.838   4.571   3.286
14905TIP3    H244657   0.988   4.589   3.291
14906TIP3   OH244658   2.966   3.797   2.210
14906TIP3    H144659   2.987   3.816   2.118
14906TIP3    H244660   3.047   3.814   2.257
14907TIP3   OH244661   6.911   6.171   0.609
14907TIP3    H144662   6.931   6.178   0.515
14907TIP3    H244663   6.894   6.261   0.637
14908TIP3   OH244664   6.028   4.712   6.266
14908TIP3    H144665   5.955   4.687   6.209
14908TIP3    H244666   5.987   4.727   6.351
14909TIP3   OH244667   4.632   0.679   5.626
14909TIP3    H144668   4.597   0.741   5.562
14909TIP3    H244669   4.609   0.592   5.591
14910TIP3   OH244670   5.705   4.381   2.826
14910TIP3    H144671   5.736   4.295   2.854
14910TIP3    H244672   5.690   4.371   2.732
14911TIP3   OH244673   5.471   1.756   6.194
14911TIP3    H144674   5.416   1.773   6.270
14911TIP3    H244675   5.503   1.843   6.167
14912TIP3   OH244676   7.418   3.507   4.016
14912TIP3    H144677   7.366   3.510   4.096
14912TIP3    H244678   7.355   3.517   3.945
14913TIP3   OH244679   7.771   4.343   1.697
14913TIP3    H144680   7.695   4.287   1.686
14913TIP3    H244681   7.805   4.320   1.783
14914TIP3   OH244682   5.699   7.640   0.387
14914TIP3    H144683   5.732   7.722   0.423
14914TIP3    H244684   5.776   7.599   0.347
14915TIP3   OH244685   3.471   3.907   5.429
14915TIP3    H144686   3.522   3.849   5.373
14915TIP3    H244687   3.382   3.871   5.425
14916TIP3   OH244688   7.775   3.085   1.795
14916TIP3    H144689   7.759   3.132   1.877
14916TIP3    H244690   7.688   3.062   1.763
14917TIP3   OH244691   5.417   2.989   0.324
14917TIP3    H144692   5.341   2.935   0.346
14917TIP3    H244693   5.491   2.929   0.324
14918TIP3   OH244694   7.797   6.820   2.342
14918TIP3    H144695   7.727   6.807   2.277
14918TIP3    H244696   7.848   6.739   2.338
14919TIP3   OH244697   0.554   2.053   6.600
14919TIP3    H144698   0.529   2.056   6.508
14919TIP3    H244699   0.479   2.091   6.646
14920TIP3   OH244700   3.522   3.729   1.889
14920TIP3    H144701   3.521   3.762   1.979
14920TIP3    H244702   3.431   3.733   1.861
14921TIP3   OH244703   5.079   3.781   3.244
14921TIP3    H144704   5.081   3.875   3.225
14921TIP3    H244705   5.168   3.761   3.273
14922TIP3   OH244706   2.360   0.559   0.172
14922TIP3    H144707   2.336   0.467   0.176
14922TIP3    H244708   2.425   0.570   0.241
14923TIP3   OH244709   6.913   3.676   5.624
14923TIP3    H144710   6.951   3.725   5.697
14923TIP3    H244711   6.928   3.731   5.547
14924TIP3   OH244712   4.017   5.932   2.152
14924TIP3    H144713   4.079   6.000   2.177
14924TIP3    H244714   4.043   5.907   2.063
14925TIP3   OH244715   0.317   3.751   1.298
14925TIP3    H144716   0.316   3.783   1.208
14925TIP3    H244717   0.254   3.679   1.298
14926TIP3   OH244718   4.620   4.497   1.533
14926TIP3    H144719   4.666   4.456   1.606
14926TIP3    H244720   4.527   4.485   1.554
14927TIP3   OH244721   5.162   7.878   0.956
14927TIP3    H144722   5.253   7.848   0.955
14927TIP3    H244723   5.162   7.956   0.899
14928TIP3   OH244724   4.662   1.985   3.183
14928TIP3    H144725   4.728   1.916   3.182
14928TIP3    H244726   4.581   1.941   3.158
14929TIP3   OH244727   0.160   0.307   6.382
14929TIP3    H144728   0.078   0.274   6.420
14929TIP3    H244729   0.175   0.390   6.427
14930TIP3   OH244730   6.899   1.576   5.080
14930TIP3    H144731   6.968   1.537   5.027
14930TIP3    H244732   6.944   1.615   5.154
14931TIP3   OH244733   0.926   7.476   0.022
14931TIP3    H144734   1.018   7.455   0.033
14931TIP3    H244735   0.916   7.563   0.062
14932TIP3   OH244736   0.209   4.203   4.477
14932TIP3    H144737   0.266   4.208   4.554
14932TIP3    H244738   0.137   4.263   4.497
14933TIP3   OH244739   1.711   4.349   6.509
14933TIP3    H144740   1.632   4.363   6.456
14933TIP3    H244741   1.783   4.372   6.451
14934TIP3   OH244742   0.582   5.271   5.504
14934TIP3    H144743   0.599   5.350   5.555
14934TIP3    H244744   0.658   5.216   5.519
14935TIP3   OH244745   2.728   1.209   5.279
14935TIP3    H144746   2.755   1.296   5.310
14935TIP3    H244747   2.719   1.157   5.359
14936TIP3   OH244748   7.973   2.327   2.103
14936TIP3    H144749   8.053   2.359   2.143
14936TIP3    H244750   7.975   2.359   2.013
14937TIP3   OH244751   8.043   2.922   5.733
14937TIP3    H144752   8.030   2.833   5.766
14937TIP3    H244753   8.122   2.953   5.778
14938TIP3   OH244754   8.355   0.311   0.382
14938TIP3    H144755   8.260   0.308   0.366
14938TIP3    H244756   8.372   0.403   0.402
14939TIP3   OH244757   1.280   6.728   2.911
14939TIP3    H144758   1.250   6.718   2.820
14939TIP3    H244759   1.230   6.664   2.961
14940TIP3   OH244760   8.079   0.586   1.384
14940TIP3    H144761   8.088   0.617   1.294
14940TIP3    H244762   8.026   0.653   1.427
14941TIP3   OH244763   5.304   2.425   0.763
14941TIP3    H144764   5.352   2.506   0.783
14941TIP3    H244765   5.358   2.381   0.698
14942TIP3   OH244766   3.696   4.755   1.786
14942TIP3    H144767   3.694   4.708   1.703
14942TIP3    H244768   3.650   4.697   1.847
14943TIP3   OH244769   7.454   0.907   5.547
14943TIP3    H144770   7.418   0.924   5.634
14943TIP3    H244771   7.406   0.966   5.489
14944TIP3   OH244772   2.620   0.643   4.684
14944TIP3    H144773   2.679   0.576   4.650
14944TIP3    H244774   2.562   0.664   4.611
14945TIP3   OH244775   2.172   5.661   4.993
14945TIP3    H144776   2.110   5.707   5.049
14945TIP3    H244777   2.159   5.568   5.014
14946TIP3   OH244778   0.271   4.696   3.806
14946TIP3    H144779   0.339   4.714   3.871
14946TIP3    H244780   0.267   4.776   3.753
14947TIP3   OH244781   1.600   5.979   3.451
14947TIP3    H144782   1.544   6.020   3.386
14947TIP3    H244783   1.689   5.986   3.416
14948TIP3   OH244784   2.606   2.494   2.808
14948TIP3    H144785   2.676   2.436   2.838
14948TIP3    H244786   2.648   2.578   2.793
14949TIP3   OH244787   2.250   2.037   0.963
14949TIP3    H144788   2.206   1.993   1.036
14949TIP3    H244789   2.340   2.049   0.992
14950TIP3   OH244790   5.561   7.093   1.421
14950TIP3    H144791   5.582   7.002   1.400
14950TIP3    H244792   5.557   7.137   1.336
14951TIP3   OH244793   0.945   1.945   4.549
14951TIP3    H144794   1.031   1.982   4.569
14951TIP3    H244795   0.954   1.910   4.460
14952TIP3   OH244796   7.778   3.840   3.767
14952TIP3    H144797   7.841   3.769   3.777
14952TIP3    H244798   7.695   3.796   3.746
14953TIP3   OH244799   0.600   4.122   6.217
14953TIP3    H144800   0.685   4.148   6.251
14953TIP3    H244801   0.618   4.047   6.161
14954TIP3   OH244802   4.181   5.292   2.766
14954TIP3    H144803   4.177   5.216   2.825
14954TIP3    H244804   4.136   5.262   2.686
14955TIP3   OH244805   1.094   6.121   2.291
14955TIP3    H144806   0.999   6.131   2.282
14955TIP3    H244807   1.109   6.028   2.280
14956TIP3   OH244808   2.484   4.950   5.580
14956TIP3    H144809   2.523   4.954   5.667
14956TIP3    H244810   2.429   5.028   5.575
14957TIP3   OH244811   2.559   7.583   0.994
14957TIP3    H144812   2.595   7.662   1.034
14957TIP3    H244813   2.574   7.595   0.900
14958TIP3   OH244814   1.987   5.014   0.956
14958TIP3    H144815   1.989   5.083   0.890
14958TIP3    H244816   1.904   4.969   0.941
14959TIP3   OH244817   6.997   1.551   3.554
14959TIP3    H144818   6.962   1.605   3.625
14959TIP3    H244819   7.040   1.614   3.496
14960TIP3   OH244820   1.174   5.634   4.548
14960TIP3    H144821   1.231   5.582   4.491
14960TIP3    H244822   1.223   5.715   4.562
14961TIP3   OH244823   6.750   5.265   1.124
14961TIP3    H144824   6.709   5.294   1.043
14961TIP3    H244825   6.677   5.251   1.184
14962TIP3   OH244826   7.769   4.165   5.828
14962TIP3    H144827   7.844   4.106   5.837
14962TIP3    H244828   7.721   4.131   5.752
14963TIP3   OH244829   0.426   5.414   0.205
14963TIP3    H144830   0.521   5.410   0.201
14963TIP3    H244831   0.400   5.452   0.121
14964TIP3   OH244832   1.387   4.168   6.506
14964TIP3    H144833   1.459   4.176   6.444
14964TIP3    H244834   1.379   4.074   6.523
14965TIP3   OH244835   0.922   3.073   3.629
14965TIP3    H144836   0.969   3.153   3.604
14965TIP3    H244837   0.850   3.067   3.567
14966TIP3   OH244838   4.776   1.756   2.686
14966TIP3    H144839   4.789   1.662   2.673
14966TIP3    H244840   4.681   1.768   2.678
14967TIP3   OH244841   6.000   7.166   6.087
14967TIP3    H144842   5.932   7.099   6.084
14967TIP3    H244843   5.953   7.249   6.093
14968TIP3   OH244844   0.674   1.633   1.988
14968TIP3    H144845   0.621   1.671   2.058
14968TIP3    H244846   0.736   1.702   1.965
14969TIP3   OH244847   4.988   6.125   5.182
14969TIP3    H144848   5.024   6.169   5.104
14969TIP3    H244849   5.022   6.177   5.255
14970TIP3   OH244850   7.734   5.570   3.862
14970TIP3    H144851   7.804   5.634   3.872
14970TIP3    H244852   7.763   5.493   3.911
14971TIP3   OH244853   6.475   1.375   5.794
14971TIP3    H144854   6.536   1.419   5.853
14971TIP3    H244855   6.396   1.362   5.847
14972TIP3   OH244856   7.666   3.139   2.514
14972TIP3    H144857   7.612   3.209   2.551
14972TIP3    H244858   7.603   3.071   2.490
14973TIP3   OH244859   0.103   1.553   3.460
14973TIP3    H144860   0.115   1.552   3.555
14973TIP3    H244861   0.023   1.603   3.447
14974TIP3   OH244862   4.817   0.980   1.935
14974TIP3    H144863   4.878   1.044   1.970
14974TIP3    H244864   4.759   1.030   1.877
14975TIP3   OH244865   3.594   0.483   0.141
14975TIP3    H144866   3.662   0.451   0.201
14975TIP3    H244867   3.580   0.574   0.166
14976TIP3   OH244868   2.047   6.834   3.306
14976TIP3    H144869   2.005   6.890   3.241
14976TIP3    H244870   1.990   6.757   3.312
14977TIP3   OH244871   3.600   1.998   3.730
14977TIP3    H144872   3.576   2.019   3.820
14977TIP3    H244873   3.592   1.903   3.725
14978TIP3   OH244874   1.948   7.177   0.839
14978TIP3    H144875   1.948   7.125   0.759
14978TIP3    H244876   1.906   7.121   0.904
14979TIP3   OH244877   6.618   5.307   5.982
14979TIP3    H144878   6.603   5.229   6.035
14979TIP3    H244879   6.628   5.378   6.046
14980TIP3   OH244880   0.286   6.538   4.471
14980TIP3    H144881   0.373   6.563   4.440
14980TIP3    H244882   0.226   6.590   4.418
14981TIP3   OH244883   1.531   5.903   1.424
14981TIP3    H144884   1.602   5.912   1.360
14981TIP3    H244885   1.489   5.820   1.403
14982TIP3   OH244886   6.226   7.487   4.348
14982TIP3    H144887   6.133   7.463   4.345
14982TIP3    H244888   6.256   7.477   4.258
14983TIP3   OH244889   7.585   3.159   3.287
14983TIP3    H144890   7.561   3.193   3.201
14983TIP3    H244891   7.677   3.135   3.278
14984TIP3   OH244892   8.109   1.155   6.012
14984TIP3    H144893   8.030   1.108   6.040
14984TIP3    H244894   8.122   1.222   6.079
14985TIP3   OH244895   5.158   4.044   5.134
14985TIP3    H144896   5.185   4.112   5.074
14985TIP3    H244897   5.110   3.981   5.080
14986TIP3   OH244898   6.790   2.415   6.765
14986TIP3    H144899   6.789   2.475   6.840
14986TIP3    H244900   6.716   2.356   6.781
14987TIP3   OH244901   7.155   1.258   2.190
14987TIP3    H144902   7.206   1.180   2.170
14987TIP3    H244903   7.065   1.235   2.168
14988TIP3   OH244904   3.674   4.645   4.220
14988TIP3    H144905   3.632   4.589   4.285
14988TIP3    H244906   3.730   4.585   4.170
14989TIP3   OH244907   2.853   6.551   2.786
14989TIP3    H144908   2.820   6.531   2.698
14989TIP3    H244909   2.782   6.600   2.827
14990TIP3   OH244910  -0.009  -0.002   2.353
14990TIP3    H144911   0.082  -0.022   2.332
14990TIP3    H244912  -0.009   0.092   2.368
14991TIP3   OH244913   5.986   7.816   5.887
14991TIP3    H144914   6.027   7.748   5.834
14991TIP3    H244915   5.948   7.876   5.822
14992TIP3   OH244916   1.748   5.784   4.793
14992TIP3    H144917   1.745   5.852   4.726
14992TIP3    H244918   1.678   5.806   4.853
14993TIP3   OH244919   7.540   4.439   0.272
14993TIP3    H144920   7.610   4.390   0.316
14993TIP3    H244921   7.488   4.371   0.228
14994TIP3   OH244922   6.638   1.972   2.565
14994TIP3    H144923   6.546   1.948   2.573
14994TIP3    H244924   6.641   2.031   2.489
14995TIP3   OH244925   2.543   4.356   3.675
14995TIP3    H144926   2.594   4.436   3.676
14995TIP3    H244927   2.468   4.375   3.619
14996TIP3   OH244928   2.953   6.358   1.443
14996TIP3    H144929   2.981   6.287   1.385
14996TIP3    H244930   2.941   6.433   1.385
14997TIP3   OH244931   7.506   4.337   4.715
14997TIP3    H144932   7.437   4.285   4.757
14997TIP3    H244933   7.581   4.278   4.712
14998TIP3   OH244934   2.616   1.747   4.236
14998TIP3    H144935   2.627   1.673   4.295
14998TIP3    H244936   2.679   1.732   4.166
14999TIP3   OH244937   3.732   7.031   1.905
14999TIP3    H144938   3.746   6.940   1.931
14999TIP3    H244939   3.663   7.026   1.838
15000TIP3   OH244940   7.152   1.858   3.792
15000TIP3    H144941   7.228   1.885   3.740
15000TIP3    H244942   7.082   1.917   3.764
15001TIP3   OH244943   4.887   2.165   1.938
15001TIP3    H144944   4.981   2.147   1.937
15001TIP3    H244945   4.870   2.214   1.857
15002TIP3   OH244946   7.914   1.513   0.264
15002TIP3    H144947   7.980   1.573   0.298
15002TIP3    H244948   7.834   1.565   0.258
15003TIP3   OH244949   3.576   2.266   0.619
15003TIP3    H144950   3.585   2.228   0.531
15003TIP3    H244951   3.500   2.324   0.612
15004TIP3   OH244952   6.312   4.077   6.629
15004TIP3    H144953   6.395   4.079   6.581
15004TIP3    H244954   6.282   3.987   6.622
15005TIP3   OH244955   2.828   1.195   0.965
15005TIP3    H144956   2.787   1.273   1.002
15005TIP3    H244957   2.897   1.172   1.028
15006TIP3   OH244958   6.683   5.281   2.723
15006TIP3    H144959   6.588   5.290   2.726
15006TIP3    H244960   6.714   5.333   2.797
15007TIP3   OH244961   0.167   5.215   0.803
15007TIP3    H144962   0.131   5.146   0.748
15007TIP3    H244963   0.156   5.184   0.892
15008TIP3   OH244964   0.825   4.667   5.687
15008TIP3    H144965   0.743   4.636   5.725
15008TIP3    H244966   0.830   4.625   5.601
15009TIP3   OH244967   8.022   1.950   3.626
15009TIP3    H144968   8.078   1.874   3.640
15009TIP3    H244969   8.079   2.026   3.640
15010TIP3   OH244970   2.560   4.980   3.824
15010TIP3    H144971   2.483   4.956   3.876
15010TIP3    H244972   2.631   4.928   3.862
15011TIP3   OH244973   6.218   5.679   3.107
15011TIP3    H144974   6.237   5.638   3.192
15011TIP3    H244975   6.164   5.615   3.061
15012TIP3   OH244976   4.973   6.830   1.885
15012TIP3    H144977   5.060   6.868   1.888
15012TIP3    H244978   4.985   6.743   1.845
15013TIP3   OH244979   2.281   0.743   3.537
15013TIP3    H144980   2.202   0.726   3.589
15013TIP3    H244981   2.350   0.694   3.581
15014TIP3   OH244982   3.324   7.728   3.770
15014TIP3    H144983   3.279   7.643   3.768
15014TIP3    H244984   3.401   7.716   3.714
15015TIP3   OH244985   2.434   3.800   0.798
15015TIP3    H144986   2.356   3.797   0.852
15015TIP3    H244987   2.405   3.841   0.716
15016TIP3   OH244988   0.423   4.040   5.057
15016TIP3    H144989   0.330   4.043   5.032
15016TIP3    H244990   0.444   4.131   5.078
15017TIP3   OH244991   7.932   7.483   3.229
15017TIP3    H144992   7.972   7.406   3.189
15017TIP3    H244993   7.889   7.529   3.156
15018TIP3   OH244994   1.348   1.986   0.408
15018TIP3    H144995   1.338   2.029   0.324
15018TIP3    H244996   1.284   2.029   0.465
15019TIP3   OH244997   3.949   7.810   3.608
15019TIP3    H144998   4.019   7.838   3.549
15019TIP3    H244999   3.949   7.714   3.600
15020TIP3   OH245000   0.014   4.312   5.877
15020TIP3    H145001   0.079   4.380   5.897
15020TIP3    H245002   0.030   4.290   5.785
15021TIP3   OH245003   3.140   5.239   3.966
15021TIP3    H145004   3.132   5.330   3.937
15021TIP3    H245005   3.168   5.245   4.057
15022TIP3   OH245006   0.450   4.757   5.613
15022TIP3    H145007   0.514   4.797   5.672
15022TIP3    H245008   0.368   4.756   5.663
15023TIP3   OH245009   5.687   5.566   1.404
15023TIP3    H145010   5.687   5.655   1.369
15023TIP3    H245011   5.741   5.571   1.483
15024TIP3   OH245012   7.958   5.297   5.608
15024TIP3    H145013   7.955   5.325   5.700
15024TIP3    H245014   7.875   5.326   5.571
15025TIP3   OH245015   6.745   4.790   4.224
15025TIP3    H145016   6.805   4.788   4.149
15025TIP3    H245017   6.781   4.727   4.285
15026TIP3   OH245018   4.009   0.324   5.536
15026TIP3    H145019   3.966   0.404   5.506
15026TIP3    H245020   3.937   0.266   5.562
15027TIP3   OH245021   8.322   2.101   2.935
15027TIP3    H145022   8.242   2.048   2.930
15027TIP3    H245023   8.304   2.165   3.004
15028TIP3   OH245024   6.557   1.385   3.926
15028TIP3    H145025   6.568   1.290   3.927
15028TIP3    H245026   6.464   1.398   3.906
15029TIP3   OH245027   2.064   3.314   0.286
15029TIP3    H145028   2.108   3.334   0.204
15029TIP3    H245029   2.088   3.223   0.305
15030TIP3   OH245030   3.088   6.532   2.888
15030TIP3    H145031   2.994   6.519   2.872
15030TIP3    H245032   3.096   6.535   2.983
15031TIP3   OH245033   7.211   1.515   1.663
15031TIP3    H145034   7.251   1.596   1.631
15031TIP3    H245035   7.283   1.452   1.665
15032TIP3   OH245036   5.476   2.908   6.664
15032TIP3    H145037   5.388   2.870   6.662
15032TIP3    H245038   5.482   2.949   6.750
15033TIP3   OH245039   6.638   7.268   1.597
15033TIP3    H145040   6.680   7.347   1.631
15033TIP3    H245041   6.559   7.259   1.651
15034TIP3   OH245042   5.152   5.947   0.960
15034TIP3    H145043   5.247   5.959   0.957
15034TIP3    H245044   5.126   5.979   1.046
15035TIP3   OH245045   2.949   6.883   1.123
15035TIP3    H145046   2.933   6.821   1.051
15035TIP3    H245047   2.884   6.952   1.111
15036TIP3   OH245048   3.745   4.388   3.808
15036TIP3    H145049   3.670   4.330   3.820
15036TIP3    H245050   3.817   4.330   3.784
15037TIP3   OH245051   8.391   7.015   2.400
15037TIP3    H145052   8.404   7.095   2.451
15037TIP3    H245053   8.470   6.964   2.413
15038TIP3   OH245054   1.091   0.722   5.639
15038TIP3    H145055   1.065   0.631   5.652
15038TIP3    H245056   1.030   0.772   5.695
15039TIP3   OH245057   7.980   5.332   4.909
15039TIP3    H145058   7.921   5.332   4.834
15039TIP3    H245059   8.044   5.400   4.891
15040TIP3   OH245060   4.525   7.901   4.721
15040TIP3    H145061   4.517   7.876   4.813
15040TIP3    H245062   4.619   7.913   4.708
15041TIP3   OH245063   0.074   7.056   4.615
15041TIP3    H145064   0.007   7.027   4.676
15041TIP3    H245065   0.089   7.148   4.637
15042TIP3   OH245066   4.806   0.813   5.778
15042TIP3    H145067   4.728   0.779   5.735
15042TIP3    H245068   4.774   0.851   5.860
15043TIP3   OH245069   6.173   7.104   0.929
15043TIP3    H145070   6.233   7.162   0.976
15043TIP3    H245071   6.155   7.033   0.991
15044TIP3   OH245072   2.796   7.296   3.611
15044TIP3    H145073   2.835   7.329   3.692
15044TIP3    H245074   2.716   7.348   3.600
15045TIP3   OH245075   0.674   3.762   4.472
15045TIP3    H145076   0.639   3.714   4.396
15045TIP3    H245077   0.722   3.695   4.521
15046TIP3   OH245078   4.502   5.281   6.717
15046TIP3    H145079   4.450   5.246   6.645
15046TIP3    H245080   4.572   5.217   6.730
15047TIP3   OH245081   4.723   6.576   1.991
15047TIP3    H145082   4.686   6.648   2.042
15047TIP3    H245083   4.753   6.513   2.057
15048TIP3   OH245084   2.082   0.526   2.028
15048TIP3    H145085   2.095   0.618   2.007
15048TIP3    H245086   2.124   0.514   2.113
15049TIP3   OH245087   5.669   3.151   1.709
15049TIP3    H145088   5.588   3.199   1.730
15049TIP3    H245089   5.738   3.217   1.717
15050TIP3   OH245090   4.844   2.296   2.796
15050TIP3    H145091   4.819   2.243   2.871
15050TIP3    H245092   4.824   2.242   2.719
15051TIP3   OH245093   2.776   4.169   5.427
15051TIP3    H145094   2.718   4.239   5.459
15051TIP3    H245095   2.742   4.147   5.341
15052TIP3   OH245096   4.472   7.238   6.428
15052TIP3    H145097   4.431   7.311   6.381
15052TIP3    H245098   4.566   7.248   6.409
15053TIP3   OH245099   6.292   5.567   1.320
15053TIP3    H145100   6.247   5.605   1.396
15053TIP3    H245101   6.269   5.625   1.247
15054TIP3   OH245102   3.911   7.167   2.052
15054TIP3    H145103   3.832   7.118   2.030
15054TIP3    H245104   3.950   7.189   1.967
15055TIP3   OH245105   0.771   1.821   2.796
15055TIP3    H145106   0.789   1.796   2.705
15055TIP3    H245107   0.748   1.738   2.839
15056TIP3   OH245108   6.204   3.502   5.343
15056TIP3    H145109   6.137   3.434   5.349
15056TIP3    H245110   6.168   3.575   5.392
15057TIP3   OH245111   3.073   0.123   1.263
15057TIP3    H145112   3.087   0.151   1.353
15057TIP3    H245113   3.136   0.174   1.212
15058TIP3   OH245114   2.138   5.652   4.251
15058TIP3    H145115   2.224   5.639   4.213
15058TIP3    H245116   2.117   5.744   4.233
15059TIP3   OH245117   4.602   5.975   1.634
15059TIP3    H145118   4.558   5.958   1.550
15059TIP3    H245119   4.685   5.926   1.627
15060TIP3   OH245120   7.208   1.924   5.205
15060TIP3    H145121   7.276   1.889   5.148
15060TIP3    H245122   7.133   1.866   5.192
15061TIP3   OH245123   4.462   4.857   3.935
15061TIP3    H145124   4.543   4.882   3.891
15061TIP3    H245125   4.490   4.810   4.013
15062TIP3   OH245126   0.923   4.594   3.677
15062TIP3    H145127   0.989   4.539   3.635
15062TIP3    H245128   0.969   4.633   3.752
15063TIP3   OH245129   0.439   0.743   6.636
15063TIP3    H145130   0.478   0.718   6.720
15063TIP3    H245131   0.505   0.800   6.595
15064TIP3   OH245132   3.247   1.404   1.910
15064TIP3    H145133   3.172   1.363   1.867
15064TIP3    H245134   3.320   1.391   1.849
15065TIP3   OH245135   3.669   0.327   4.701
15065TIP3    H145136   3.694   0.281   4.782
15065TIP3    H245137   3.576   0.306   4.689
15066TIP3   OH245138   1.529   7.098   2.790
15066TIP3    H145139   1.499   7.076   2.702
15066TIP3    H245140   1.614   7.141   2.776
15067TIP3   OH245141   1.595   1.134   3.093
15067TIP3    H145142   1.667   1.195   3.114
15067TIP3    H245143   1.544   1.129   3.173
15068TIP3   OH245144   2.372   7.416   2.513
15068TIP3    H145145   2.408   7.439   2.428
15068TIP3    H245146   2.279   7.437   2.506
15069TIP3   OH245147   0.950   7.049   4.572
15069TIP3    H145148   0.931   7.124   4.516
15069TIP3    H245149   0.969   6.977   4.511
15070TIP3   OH245150   3.463   0.962   0.628
15070TIP3    H145151   3.388   1.019   0.609
15070TIP3    H245152   3.435   0.875   0.598
15071TIP3   OH245153   8.224   0.339   3.096
15071TIP3    H145154   8.168   0.348   3.173
15071TIP3    H245155   8.291   0.407   3.107
15072TIP3   OH245156   3.114   7.599   1.990
15072TIP3    H145157   3.154   7.675   1.949
15072TIP3    H245158   3.170   7.580   2.065
15073TIP3   OH245159   5.429   4.827   6.828
15073TIP3    H145160   5.396   4.821   6.918
15073TIP3    H245161   5.416   4.740   6.792
15074TIP3   OH245162   2.563   3.990   2.570
15074TIP3    H145163   2.607   4.075   2.569
15074TIP3    H245164   2.476   4.008   2.607
15075TIP3   OH245165   3.609   2.098   3.317
15075TIP3    H145166   3.578   2.098   3.226
15075TIP3    H245167   3.548   2.040   3.363
15076TIP3   OH245168   3.130   1.311   6.045
15076TIP3    H145169   3.082   1.322   5.962
15076TIP3    H245170   3.090   1.375   6.104
15077TIP3   OH245171   5.296   6.483   6.831
15077TIP3    H145172   5.353   6.463   6.905
15077TIP3    H245173   5.219   6.524   6.871
15078TIP3   OH245174   1.428   2.263   2.478
15078TIP3    H145175   1.449   2.242   2.569
15078TIP3    H245176   1.358   2.327   2.484
15079TIP3   OH245177   2.326   6.839   5.112
15079TIP3    H145178   2.239   6.802   5.129
15079TIP3    H245179   2.382   6.762   5.098
15080TIP3   OH245180   5.913   6.589   4.189
15080TIP3    H145181   5.905   6.504   4.146
15080TIP3    H245182   5.985   6.632   4.144
15081TIP3   OH245183   0.895   6.608   4.881
15081TIP3    H145184   0.877   6.698   4.909
15081TIP3    H245185   0.991   6.603   4.878
15082TIP3   OH245186   6.845   5.444   6.163
15082TIP3    H145187   6.765   5.488   6.191
15082TIP3    H245188   6.846   5.362   6.213
15083TIP3   OH245189   4.996   7.269   6.183
15083TIP3    H145190   5.002   7.363   6.202
15083TIP3    H245191   4.989   7.264   6.088
15084TIP3   OH245192   3.578   1.317   0.068
15084TIP3    H145193   3.533   1.274  -0.004
15084TIP3    H245194   3.659   1.267   0.080
15085TIP3   OH245195   8.137   4.823   0.978
15085TIP3    H145196   8.079   4.888   0.938
15085TIP3    H245197   8.201   4.875   1.026
15086TIP3   OH245198   0.562   3.934   5.984
15086TIP3    H145199   0.517   3.891   5.912
15086TIP3    H245200   0.493   3.959   6.045
15087TIP3   OH245201   1.477   5.660   6.020
15087TIP3    H145202   1.524   5.577   6.025
15087TIP3    H245203   1.508   5.710   6.096
15088TIP3   OH245204   3.004   1.291   2.046
15088TIP3    H145205   2.919   1.250   2.030
15088TIP3    H245206   3.068   1.227   2.017
15089TIP3   OH245207   2.033   0.507   0.663
15089TIP3    H145208   2.024   0.413   0.646
15089TIP3    H245209   2.122   0.528   0.634
15090TIP3   OH245210   7.363   3.739   4.666
15090TIP3    H145211   7.378   3.716   4.758
15090TIP3    H245212   7.411   3.673   4.617
15091TIP3   OH245213   6.473   2.036   1.401
15091TIP3    H145214   6.378   2.048   1.396
15091TIP3    H245215   6.505   2.064   1.316
15092TIP3   OH245216   7.524   3.680   5.275
15092TIP3    H145217   7.521   3.720   5.362
15092TIP3    H245218   7.437   3.696   5.239
15093TIP3   OH245219   6.179   2.031   6.310
15093TIP3    H145220   6.209   2.121   6.316
15093TIP3    H245221   6.255   1.978   6.337
15094TIP3   OH245222   3.647   7.589   5.651
15094TIP3    H145223   3.734   7.560   5.625
15094TIP3    H245224   3.663   7.655   5.719
15095TIP3   OH245225   0.589   6.216   5.244
15095TIP3    H145226   0.628   6.281   5.186
15095TIP3    H245227   0.594   6.255   5.331
15096TIP3   OH245228   4.371   6.685   1.661
15096TIP3    H145229   4.300   6.688   1.596
15096TIP3    H245230   4.350   6.754   1.723
15097TIP3   OH245231   5.050   6.162   3.810
15097TIP3    H145232   5.029   6.162   3.903
15097TIP3    H245233   5.138   6.200   3.805
15098TIP3   OH245234   6.569   5.506   6.174
15098TIP3    H145235   6.557   5.437   6.239
15098TIP3    H245236   6.487   5.556   6.177
15099TIP3   OH245237   2.533   1.049   4.856
15099TIP3    H145238   2.579   1.123   4.895
15099TIP3    H245239   2.601   0.983   4.841
15100TIP3   OH245240   3.278   2.715   1.653
15100TIP3    H145241   3.252   2.654   1.722
15100TIP3    H245242   3.252   2.801   1.686
15101TIP3   OH245243   2.543   3.178   5.947
15101TIP3    H145244   2.549   3.089   5.983
15101TIP3    H245245   2.529   3.165   5.853
15102TIP3   OH245246   5.485   1.488   5.847
15102TIP3    H145247   5.439   1.514   5.927
15102TIP3    H245248   5.577   1.511   5.863
15103TIP3   OH245249   8.109   2.201   4.728
15103TIP3    H145250   8.120   2.165   4.816
15103TIP3    H245251   8.181   2.264   4.719
15104TIP3   OH245252   3.328   2.868   2.080
15104TIP3    H145253   3.371   2.941   2.037
15104TIP3    H245254   3.340   2.885   2.174
15105TIP3   OH245255   3.298   5.340   6.430
15105TIP3    H145256   3.320   5.254   6.465
15105TIP3    H245257   3.350   5.348   6.350
15106TIP3   OH245258   6.695   1.598   2.932
15106TIP3    H145259   6.673   1.510   2.901
15106TIP3    H245260   6.675   1.655   2.858
15107TIP3   OH245261   5.468   3.626   0.592
15107TIP3    H145262   5.533   3.611   0.661
15107TIP3    H245263   5.509   3.692   0.536
15108TIP3   OH245264   7.151   7.138   6.699
15108TIP3    H145265   7.131   7.046   6.685
15108TIP3    H245266   7.242   7.147   6.672
15109TIP3   OH245267   0.841   1.602   0.399
15109TIP3    H145268   0.791   1.659   0.341
15109TIP3    H245269   0.929   1.603   0.363
15110TIP3   OH245270   7.539   2.859   0.672
15110TIP3    H145271   7.566   2.768   0.658
15110TIP3    H245272   7.612   2.911   0.638
15111TIP3   OH245273   8.137   2.043   6.119
15111TIP3    H145274   8.161   2.126   6.160
15111TIP3    H245275   8.211   2.023   6.061
15112TIP3   OH245276   5.076   1.972   5.997
15112TIP3    H145277   5.102   2.044   6.055
15112TIP3    H245278   5.154   1.956   5.943
15113TIP3   OH245279   4.473   4.917   5.650
15113TIP3    H145280   4.465   4.824   5.671
15113TIP3    H245281   4.383   4.950   5.656
15114TIP3   OH245282   3.202   6.830   6.561
15114TIP3    H145283   3.169   6.743   6.585
15114TIP3    H245284   3.226   6.821   6.469
15115TIP3   OH245285   4.505   2.239   3.214
15115TIP3    H145286   4.568   2.167   3.222
15115TIP3    H245287   4.431   2.212   3.267
15116TIP3   OH245288   0.957   2.519   0.455
15116TIP3    H145289   0.987   2.600   0.414
15116TIP3    H245290   1.024   2.499   0.520
15117TIP3   OH245291   4.359   4.431   1.278
15117TIP3    H145292   4.391   4.340   1.277
15117TIP3    H245293   4.437   4.484   1.267
15118TIP3   OH245294   7.482   3.557   0.554
15118TIP3    H145295   7.461   3.620   0.486
15118TIP3    H245296   7.413   3.491   0.549
15119TIP3   OH245297   5.536   4.664   2.522
15119TIP3    H145298   5.589   4.744   2.524
15119TIP3    H245299   5.529   4.638   2.614
15120TIP3   OH245300   3.388   7.895   0.464
15120TIP3    H145301   3.393   7.943   0.382
15120TIP3    H245302   3.476   7.859   0.476
15121TIP3   OH245303   0.664   0.831   2.408
15121TIP3    H145304   0.607   0.780   2.465
15121TIP3    H245305   0.752   0.816   2.443
15122TIP3   OH245306   5.945   3.398   6.522
15122TIP3    H145307   5.963   3.403   6.615
15122TIP3    H245308   5.943   3.490   6.493
15123TIP3   OH245309   4.556   4.163   3.769
15123TIP3    H145310   4.480   4.195   3.721
15123TIP3    H245311   4.614   4.239   3.776
15124TIP3   OH245312   8.315   7.347   3.789
15124TIP3    H145313   8.296   7.434   3.824
15124TIP3    H245314   8.253   7.335   3.718
15125TIP3   OH245315   7.962   2.301   3.545
15125TIP3    H145316   8.049   2.283   3.509
15125TIP3    H245317   7.965   2.265   3.634
15126TIP3   OH245318   1.930   5.327   6.425
15126TIP3    H145319   1.970   5.374   6.352
15126TIP3    H245320   1.872   5.263   6.383
15127TIP3   OH245321   5.766   0.882   2.205
15127TIP3    H145322   5.804   0.891   2.293
15127TIP3    H245323   5.726   0.795   2.205
15128TIP3   OH245324   2.141   3.947   4.872
15128TIP3    H145325   2.170   3.902   4.792
15128TIP3    H245326   2.048   3.966   4.855
15129TIP3   OH245327   3.348   6.921   4.904
15129TIP3    H145328   3.362   7.013   4.924
15129TIP3    H245329   3.429   6.877   4.932
15130TIP3   OH245330   7.145   4.763   2.736
15130TIP3    H145331   7.235   4.748   2.708
15130TIP3    H245332   7.139   4.722   2.822
15131TIP3   OH245333   4.083   2.456   3.510
15131TIP3    H145334   4.117   2.416   3.590
15131TIP3    H245335   4.159   2.457   3.451
15132TIP3   OH245336   6.540   2.819   1.307
15132TIP3    H145337   6.526   2.905   1.267
15132TIP3    H245338   6.517   2.756   1.239
15133TIP3   OH245339   0.233   6.464   2.252
15133TIP3    H145340   0.230   6.389   2.192
15133TIP3    H245341   0.304   6.519   2.219
15134TIP3   OH245342   3.250   7.565   6.319
15134TIP3    H145343   3.221   7.580   6.229
15134TIP3    H245344   3.272   7.652   6.352
15135TIP3   OH245345   7.249   4.716   6.378
15135TIP3    H145346   7.217   4.749   6.294
15135TIP3    H245347   7.299   4.789   6.415
15136TIP3   OH245348   1.975   5.581   3.672
15136TIP3    H145349   2.053   5.560   3.723
15136TIP3    H245350   1.907   5.523   3.708
15137TIP3   OH245351   7.255   4.386   3.071
15137TIP3    H145352   7.240   4.291   3.066
15137TIP3    H245353   7.276   4.402   3.163
15138TIP3   OH245354   3.758   0.429   1.987
15138TIP3    H145355   3.845   0.465   1.970
15138TIP3    H245356   3.769   0.376   2.066
15139TIP3   OH245357   2.395   3.876   0.237
15139TIP3    H145358   2.353   3.813   0.295
15139TIP3    H245359   2.356   3.960   0.262
15140TIP3   OH245360   4.103   7.343   2.176
15140TIP3    H145361   4.046   7.271   2.150
15140TIP3    H245362   4.058   7.383   2.251
15141TIP3   OH245363   5.336   2.362   5.408
15141TIP3    H145364   5.376   2.327   5.328
15141TIP3    H245365   5.353   2.294   5.474
15142TIP3   OH245366   1.069   6.055   3.127
15142TIP3    H145367   0.989   6.088   3.087
15142TIP3    H245368   1.077   5.965   3.094
15143TIP3   OH245369   6.055   0.333   6.442
15143TIP3    H145370   6.131   0.368   6.395
15143TIP3    H245371   6.090   0.259   6.492
15144TIP3   OH245372   2.582   3.241   2.399
15144TIP3    H145373   2.555   3.244   2.490
15144TIP3    H245374   2.610   3.331   2.379
15145TIP3   OH245375   6.924   3.341   3.033
15145TIP3    H145376   6.962   3.338   2.945
15145TIP3    H245377   6.979   3.282   3.085
15146TIP3   OH245378   1.906   4.785   2.052
15146TIP3    H145379   1.833   4.767   1.993
15146TIP3    H245380   1.979   4.733   2.017
15147TIP3   OH245381   7.582   7.378   2.644
15147TIP3    H145382   7.575   7.413   2.733
15147TIP3    H245383   7.520   7.304   2.643
15148TIP3   OH245384   1.655   2.564   4.163
15148TIP3    H145385   1.670   2.474   4.192
15148TIP3    H245386   1.659   2.560   4.068
15149TIP3   OH245387   6.200   4.521   0.968
15149TIP3    H145388   6.288   4.547   0.941
15149TIP3    H245389   6.204   4.518   1.063
15150TIP3   OH245390   5.958   4.808   3.269
15150TIP3    H145391   6.037   4.754   3.269
15150TIP3    H245392   5.907   4.777   3.194
15151TIP3   OH245393   4.056   1.212   3.939
15151TIP3    H145394   3.982   1.181   3.888
15151TIP3    H245395   4.026   1.295   3.976
15152TIP3   OH245396   3.644   6.528   4.004
15152TIP3    H145397   3.600   6.447   4.031
15152TIP3    H245398   3.734   6.500   3.984
15153TIP3   OH245399   3.552   1.995   2.465
15153TIP3    H145400   3.459   2.018   2.460
15153TIP3    H245401   3.583   2.002   2.374
15154TIP3   OH245402   6.365   5.000   5.738
15154TIP3    H145403   6.389   5.068   5.802
15154TIP3    H245404   6.423   4.926   5.758
15155TIP3   OH245405   1.694   4.280   5.089
15155TIP3    H145406   1.758   4.238   5.145
15155TIP3    H245407   1.658   4.209   5.036
15156TIP3   OH245408   6.046   5.894   1.970
15156TIP3    H145409   6.126   5.841   1.968
15156TIP3    H245410   6.006   5.874   2.054
15157TIP3   OH245411   5.368   7.393   5.870
15157TIP3    H145412   5.314   7.416   5.946
15157TIP3    H245413   5.412   7.475   5.847
15158TIP3   OH245414   6.260   3.646   0.916
15158TIP3    H145415   6.345   3.685   0.938
15158TIP3    H245416   6.267   3.623   0.824
15159TIP3   OH245417   6.597   1.239   4.636
15159TIP3    H145418   6.585   1.144   4.636
15159TIP3    H245419   6.599   1.264   4.728
15160TIP3   OH245420   6.528   3.225   1.604
15160TIP3    H145421   6.466   3.228   1.531
15160TIP3    H245422   6.472   3.223   1.682
15161TIP3   OH245423   2.529   1.760   2.817
15161TIP3    H145424   2.435   1.754   2.835
15161TIP3    H245425   2.538   1.835   2.758
15162TIP3   OH245426   0.956   2.400   0.021
15162TIP3    H145427   0.972   2.323   0.075
15162TIP3    H245428   0.950   2.473   0.084
15163TIP3   OH245429   0.261   5.152   1.577
15163TIP3    H145430   0.209   5.088   1.528
15163TIP3    H245431   0.197   5.211   1.616
15164TIP3   OH245432   5.341   4.211   2.093
15164TIP3    H145433   5.378   4.268   2.160
15164TIP3    H245434   5.248   4.203   2.117
15165TIP3   OH245435   6.200   4.016   4.081
15165TIP3    H145436   6.224   3.996   4.172
15165TIP3    H245437   6.118   4.065   4.088
15166TIP3   OH245438   7.065   4.576   4.288
15166TIP3    H145439   7.011   4.612   4.218
15166TIP3    H245440   7.114   4.505   4.245
15167TIP3   OH245441   5.142   6.196   2.512
15167TIP3    H145442   5.235   6.201   2.533
15167TIP3    H245443   5.108   6.126   2.568
15168TIP3   OH245444   3.335   2.765   3.535
15168TIP3    H145445   3.289   2.838   3.494
15168TIP3    H245446   3.422   2.766   3.496
15169TIP3   OH245447   8.308   0.750   3.051
15169TIP3    H145448   8.401   0.730   3.042
15169TIP3    H245449   8.292   0.820   2.987
15170TIP3   OH245450   1.012   7.817   5.178
15170TIP3    H145451   1.030   7.746   5.116
15170TIP3    H245452   1.090   7.872   5.175
15171TIP3   OH245453   7.506   7.561   0.238
15171TIP3    H145454   7.570   7.576   0.168
15171TIP3    H245455   7.538   7.614   0.311
15172TIP3   OH245456   0.503   6.987   1.942
15172TIP3    H145457   0.513   6.896   1.970
15172TIP3    H245458   0.541   6.990   1.855
15173TIP3   OH245459   3.915   5.751   2.395
15173TIP3    H145460   3.956   5.834   2.419
15173TIP3    H245461   3.961   5.723   2.316
15174TIP3   OH245462   8.328   6.052   3.696
15174TIP3    H145463   8.317   6.116   3.766
15174TIP3    H245464   8.344   6.104   3.617
15175TIP3   OH245465   8.060   3.770   1.810
15175TIP3    H145466   8.063   3.810   1.897
15175TIP3    H245467   8.010   3.689   1.823
15176TIP3   OH245468   2.096   7.784   5.899
15176TIP3    H145469   2.077   7.791   5.805
15176TIP3    H245470   2.091   7.690   5.917
15177TIP3   OH245471   6.479   4.985   4.513
15177TIP3    H145472   6.456   4.905   4.561
15177TIP3    H245473   6.444   5.056   4.566
15178TIP3   OH245474   1.993   6.353   4.712
15178TIP3    H145475   2.066   6.360   4.774
15178TIP3    H245476   1.914   6.360   4.767
15179TIP3   OH245477   7.042   4.381   1.567
15179TIP3    H145478   7.046   4.316   1.496
15179TIP3    H245479   6.989   4.338   1.634
15180TIP3   OH245480   3.868   1.188   5.005
15180TIP3    H145481   3.885   1.126   5.076
15180TIP3    H245482   3.939   1.174   4.943
15181TIP3   OH245483   3.948   2.879   3.832
15181TIP3    H145484   3.875   2.876   3.771
15181TIP3    H245485   3.972   2.972   3.836
15182TIP3   OH245486   7.976   4.607   1.806
15182TIP3    H145487   8.048   4.628   1.747
15182TIP3    H245488   7.938   4.526   1.769
15183TIP3   OH245489   6.201   0.594   3.995
15183TIP3    H145490   6.191   0.517   4.052
15183TIP3    H245491   6.173   0.668   4.050
15184TIP3   OH245492   5.608   1.174   1.650
15184TIP3    H145493   5.527   1.179   1.700
15184TIP3    H245494   5.587   1.118   1.575
15185TIP3   OH245495   1.364   0.960   5.542
15185TIP3    H145496   1.320   0.991   5.621
15185TIP3    H245497   1.455   0.949   5.568
15186TIP3   OH245498   5.129   3.587   1.568
15186TIP3    H145499   5.058   3.646   1.543
15186TIP3    H245500   5.209   3.637   1.550
15187TIP3   OH245501   4.978   3.228   2.613
15187TIP3    H145502   5.038   3.223   2.687
15187TIP3    H245503   4.891   3.236   2.652
15188TIP3   OH245504   5.853   0.696   5.846
15188TIP3    H145505   5.945   0.722   5.855
15188TIP3    H245506   5.849   0.647   5.764
15189TIP3   OH245507   2.580   1.232   3.979
15189TIP3    H145508   2.484   1.235   3.977
15189TIP3    H245509   2.603   1.256   4.069
15190TIP3   OH245510   4.826   1.690   0.214
15190TIP3    H145511   4.744   1.677   0.168
15190TIP3    H245512   4.827   1.784   0.234
15191TIP3   OH245513   7.535   4.574   3.860
15191TIP3    H145514   7.532   4.667   3.883
15191TIP3    H245515   7.486   4.569   3.777
15192TIP3   OH245516   2.690   3.844   5.916
15192TIP3    H145517   2.724   3.758   5.943
15192TIP3    H245518   2.596   3.831   5.909
15193TIP3   OH245519   1.619   0.561   1.389
15193TIP3    H145520   1.539   0.542   1.438
15193TIP3    H245521   1.684   0.581   1.457
15194TIP3   OH245522   3.329   2.409   4.744
15194TIP3    H145523   3.403   2.380   4.797
15194TIP3    H245524   3.342   2.365   4.660
15195TIP3   OH245525   1.112   1.865   1.668
15195TIP3    H145526   1.065   1.944   1.694
15195TIP3    H245527   1.204   1.893   1.666
15196TIP3   OH245528   5.472   2.798   2.882
15196TIP3    H145529   5.394   2.762   2.838
15196TIP3    H245530   5.522   2.721   2.908
15197TIP3   OH245531   6.206   7.355   1.861
15197TIP3    H145532   6.118   7.341   1.828
15197TIP3    H245533   6.208   7.310   1.945
15198TIP3   OH245534   1.432   2.611   5.353
15198TIP3    H145535   1.449   2.517   5.356
15198TIP3    H245536   1.359   2.625   5.413
15199TIP3   OH245537   6.878   6.531   1.767
15199TIP3    H145538   6.968   6.549   1.737
15199TIP3    H245539   6.864   6.439   1.745
15200TIP3   OH245540   8.367   7.913   0.492
15200TIP3    H145541   8.374   7.824   0.458
15200TIP3    H245542   8.280   7.917   0.531
15201TIP3   OH245543   1.391   5.071   1.990
15201TIP3    H145544   1.304   5.111   1.994
15201TIP3    H245545   1.452   5.144   2.000
15202TIP3   OH245546   7.297   5.496   2.269
15202TIP3    H145547   7.363   5.551   2.228
15202TIP3    H245548   7.324   5.406   2.249
15203TIP3   OH245549   5.034   4.240   5.628
15203TIP3    H145550   4.967   4.173   5.640
15203TIP3    H245551   5.093   4.203   5.561
15204TIP3   OH245552   2.840   5.341   0.474
15204TIP3    H145553   2.764   5.297   0.435
15204TIP3    H245554   2.902   5.270   0.492
15205TIP3   OH245555   6.990   1.161   3.783
15205TIP3    H145556   6.995   1.084   3.840
15205TIP3    H245557   7.019   1.233   3.838
15206TIP3   OH245558   7.370   2.104   2.538
15206TIP3    H145559   7.418   2.155   2.604
15206TIP3    H245560   7.428   2.031   2.518
15207TIP3   OH245561   0.643   0.918   5.173
15207TIP3    H145562   0.640   0.830   5.212
15207TIP3    H245563   0.660   0.977   5.247
15208TIP3   OH245564   1.646   1.415   1.878
15208TIP3    H145565   1.607   1.418   1.966
15208TIP3    H245566   1.729   1.370   1.891
15209TIP3   OH245567   1.438   5.918   4.207
15209TIP3    H145568   1.513   5.919   4.148
15209TIP3    H245569   1.474   5.893   4.292
15210TIP3   OH245570   2.464   1.472   4.506
15210TIP3    H145571   2.444   1.557   4.543
15210TIP3    H245572   2.423   1.409   4.566
15211TIP3   OH245573   8.355   1.088   1.499
15211TIP3    H145574   8.334   0.997   1.522
15211TIP3    H245575   8.444   1.100   1.531
15212TIP3   OH245576   0.901   5.031   1.732
15212TIP3    H145577   0.842   5.018   1.658
15212TIP3    H245578   0.964   5.096   1.701
15213TIP3   OH245579   5.737   3.039   0.102
15213TIP3    H145580   5.797   3.105   0.066
15213TIP3    H245581   5.761   2.958   0.057
15214TIP3   OH245582   6.950   4.179   4.646
15214TIP3    H145583   6.983   4.188   4.557
15214TIP3    H245584   6.891   4.103   4.643
15215TIP3   OH245585   2.044   0.040   3.359
15215TIP3    H145586   2.081   0.126   3.335
15215TIP3    H245587   2.025   0.047   3.452
15216TIP3   OH245588   2.647   6.772   0.296
15216TIP3    H145589   2.616   6.716   0.225
15216TIP3    H245590   2.569   6.789   0.349
15217TIP3   OH245591   8.187   2.867   4.850
15217TIP3    H145592   8.099   2.866   4.813
15217TIP3    H245593   8.245   2.843   4.777
15218TIP3   OH245594   3.312   7.902   5.503
15218TIP3    H145595   3.349   7.952   5.577
15218TIP3    H245596   3.241   7.956   5.470
15219TIP3   OH245597   5.893   6.269   2.733
15219TIP3    H145598   5.921   6.304   2.818
15219TIP3    H245599   5.943   6.319   2.669
15220TIP3   OH245600   7.452   2.399   1.841
15220TIP3    H145601   7.383   2.347   1.801
15220TIP3    H245602   7.455   2.370   1.932
15221TIP3   OH245603   7.765   0.422   6.186
15221TIP3    H145604   7.779   0.460   6.272
15221TIP3    H245605   7.707   0.483   6.142
15222TIP3   OH245606   5.932   3.147   4.329
15222TIP3    H145607   6.021   3.183   4.327
15222TIP3    H245608   5.925   3.094   4.250
15223TIP3   OH245609   2.642   4.996   2.661
15223TIP3    H145610   2.717   4.966   2.712
15223TIP3    H245611   2.657   4.964   2.573
15224TIP3   OH245612   0.717   3.348   3.247
15224TIP3    H145613   0.688   3.394   3.326
15224TIP3    H245614   0.671   3.265   3.249
15225TIP3   OH245615   2.414   5.361   0.528
15225TIP3    H145616   2.338   5.397   0.481
15225TIP3    H245617   2.427   5.274   0.490
15226TIP3   OH245618   8.412   0.352   0.902
15226TIP3    H145619   8.431   0.382   0.814
15226TIP3    H245620   8.343   0.286   0.891
15227TIP3   OH245621   5.804   4.102   3.437
15227TIP3    H145622   5.884   4.111   3.384
15227TIP3    H245623   5.836   4.094   3.527
15228TIP3   OH245624   6.514   6.931   2.232
15228TIP3    H145625   6.599   6.924   2.276
15228TIP3    H245626   6.452   6.894   2.295
15229TIP3   OH245627   6.049   3.188   3.118
15229TIP3    H145628   6.035   3.245   3.193
15229TIP3    H245629   5.969   3.197   3.065
15230TIP3   OH245630   0.362   0.825   6.377
15230TIP3    H145631   0.319   0.909   6.393
15230TIP3    H245632   0.422   0.814   6.451
15231TIP3   OH245633   4.143   1.516   3.788
15231TIP3    H145634   4.096   1.553   3.862
15231TIP3    H245635   4.086   1.530   3.713
15232TIP3   OH245636   3.012   1.274   4.620
15232TIP3    H145637   3.098   1.295   4.584
15232TIP3    H245638   3.027   1.201   4.680
15233TIP3   OH245639   0.209   2.485   5.670
15233TIP3    H145640   0.258   2.417   5.717
15233TIP3    H245641   0.118   2.457   5.676
15234TIP3   OH245642   1.077   1.871   0.725
15234TIP3    H145643   1.010   1.934   0.751
15234TIP3    H245644   1.137   1.920   0.670
15235TIP3   OH245645   5.896   3.996   5.056
15235TIP3    H145646   5.816   4.049   5.064
15235TIP3    H245647   5.866   3.906   5.068
15236TIP3   OH245648   1.986   5.483   1.173
15236TIP3    H145649   2.055   5.425   1.140
15236TIP3    H245650   1.921   5.424   1.211
15237TIP3   OH245651   1.634   3.464   4.130
15237TIP3    H145652   1.601   3.517   4.202
15237TIP3    H245653   1.684   3.526   4.076
15238TIP3   OH245654   3.165   7.439   6.054
15238TIP3    H145655   3.129   7.523   6.025
15238TIP3    H245656   3.161   7.383   5.977
15239TIP3   OH245657   2.235   7.204   2.915
15239TIP3    H145658   2.287   7.258   2.974
15239TIP3    H245659   2.176   7.266   2.871
15240TIP3   OH245660   7.360   2.302   0.385
15240TIP3    H145661   7.375   2.211   0.360
15240TIP3    H245662   7.342   2.348   0.303
15241TIP3   OH245663   6.674   1.165   6.226
15241TIP3    H145664   6.635   1.083   6.255
15241TIP3    H245665   6.705   1.147   6.137
15242TIP3   OH245666   4.295   1.166   3.050
15242TIP3    H145667   4.360   1.110   3.009
15242TIP3    H245668   4.240   1.107   3.102
15243TIP3   OH245669   6.478   6.936   1.940
15243TIP3    H145670   6.470   6.979   2.025
15243TIP3    H245671   6.545   6.869   1.953
15244TIP3   OH245672   4.995   1.624   2.381
15244TIP3    H145673   5.084   1.606   2.410
15244TIP3    H245674   4.940   1.604   2.457
15245TIP3   OH245675   5.062   6.454   5.627
15245TIP3    H145676   5.053   6.359   5.620
15245TIP3    H245677   5.001   6.489   5.562
15246TIP3   OH245678   7.506   2.649   2.086
15246TIP3    H145679   7.580   2.593   2.060
15246TIP3    H245680   7.455   2.595   2.145
15247TIP3   OH245681   2.831   1.408   4.799
15247TIP3    H145682   2.845   1.354   4.877
15247TIP3    H245683   2.901   1.382   4.739
15248TIP3   OH245684   3.393   1.088   2.277
15248TIP3    H145685   3.351   1.161   2.230
15248TIP3    H245686   3.440   1.039   2.209
15249TIP3   OH245687   2.191   7.054   2.483
15249TIP3    H145688   2.282   7.045   2.453
15249TIP3    H245689   2.153   7.121   2.425
15250TIP3   OH245690   1.503   2.837   1.035
15250TIP3    H145691   1.579   2.852   1.092
15250TIP3    H245692   1.485   2.744   1.044
15251TIP3   OH245693   6.266   7.429   0.698
15251TIP3    H145694   6.270   7.336   0.720
15251TIP3    H245695   6.357   7.459   0.701
15252TIP3   OH245696   7.338   4.053   2.754
15252TIP3    H145697   7.324   4.118   2.685
15252TIP3    H245698   7.413   4.002   2.724
15253TIP3   OH245699   6.241   7.519   3.407
15253TIP3    H145700   6.250   7.558   3.320
15253TIP3    H245701   6.165   7.460   3.400
15254TIP3   OH245702   2.898   5.706   2.337
15254TIP3    H145703   2.967   5.760   2.376
15254TIP3    H245704   2.860   5.658   2.410
15255TIP3   OH245705   5.738   3.712   2.759
15255TIP3    H145706   5.728   3.785   2.698
15255TIP3    H245707   5.672   3.649   2.731
15256TIP3   OH245708   4.763   3.508   4.995
15256TIP3    H145709   4.835   3.550   4.948
15256TIP3    H245710   4.689   3.567   4.983
15257TIP3   OH245711   1.205   6.754   5.551
15257TIP3    H145712   1.210   6.768   5.456
15257TIP3    H245713   1.172   6.664   5.560
15258TIP3   OH245714   4.983   4.376   6.821
15258TIP3    H145715   4.960   4.345   6.908
15258TIP3    H245716   4.899   4.389   6.777
15259TIP3   OH245717   3.984   6.891   4.891
15259TIP3    H145718   3.977   6.909   4.985
15259TIP3    H245719   3.919   6.821   4.876
15260TIP3   OH245720   4.064   2.376   2.899
15260TIP3    H145721   3.983   2.390   2.850
15260TIP3    H245722   4.132   2.415   2.843
15261TIP3   OH245723   4.018   5.826   3.239
15261TIP3    H145724   4.017   5.808   3.333
15261TIP3    H245725   3.926   5.825   3.213
15262TIP3   OH245726   4.877   0.139   2.509
15262TIP3    H145727   4.827   0.117   2.588
15262TIP3    H245728   4.827   0.210   2.469
15263TIP3   OH245729   6.633   5.629   1.848
15263TIP3    H145730   6.638   5.703   1.908
15263TIP3    H245731   6.541   5.621   1.826
15264TIP3   OH245732   6.673   1.307   1.997
15264TIP3    H145733   6.699   1.390   1.956
15264TIP3    H245734   6.602   1.274   1.941
15265TIP3   OH245735   6.716   0.905   4.968
15265TIP3    H145736   6.749   0.848   5.037
15265TIP3    H245737   6.768   0.883   4.891
15266TIP3   OH245738   6.853   7.043   6.371
15266TIP3    H145739   6.847   7.087   6.456
15266TIP3    H245740   6.908   7.101   6.318
15267TIP3   OH245741   4.043   6.127   3.947
15267TIP3    H145742   3.970   6.159   4.000
15267TIP3    H245743   4.112   6.193   3.959
15268TIP3   OH245744   2.697   2.773   0.528
15268TIP3    H145745   2.618   2.736   0.489
15268TIP3    H245746   2.721   2.845   0.469
15269TIP3   OH245747   1.565   7.893   1.614
15269TIP3    H145748   1.632   7.826   1.598
15269TIP3    H245749   1.511   7.893   1.535
15270TIP3   OH245750   0.596   1.170   0.499
15270TIP3    H145751   0.658   1.241   0.515
15270TIP3    H245752   0.641   1.111   0.439
15271TIP3   OH245753   3.341   1.738   3.681
15271TIP3    H145754   3.397   1.746   3.759
15271TIP3    H245755   3.358   1.650   3.648
15272TIP3   OH245756   5.798   6.086   6.597
15272TIP3    H145757   5.812   6.137   6.677
15272TIP3    H245758   5.704   6.095   6.579
15273TIP3   OH245759   4.347   7.779   5.891
15273TIP3    H145760   4.435   7.754   5.863
15273TIP3    H245761   4.293   7.769   5.812
15274TIP3   OH245762   7.693   2.838   0.394
15274TIP3    H145763   7.681   2.933   0.387
15274TIP3    H245764   7.753   2.816   0.322
15275TIP3   OH245765   7.771   7.686   6.585
15275TIP3    H145766   7.770   7.702   6.490
15275TIP3    H245767   7.774   7.773   6.624
15276TIP3   OH245768   5.616   2.879   2.204
15276TIP3    H145769   5.675   2.934   2.153
15276TIP3    H245770   5.672   2.816   2.248
15277TIP3   OH245771   5.861   1.299   0.164
15277TIP3    H145772   5.953   1.309   0.185
15277TIP3    H245773   5.860   1.257   0.078
15278TIP3   OH245774   2.875   1.106   2.617
15278TIP3    H145775   2.905   1.058   2.695
15278TIP3    H245776   2.794   1.149   2.644
15279TIP3   OH245777   1.877   1.165   0.763
15279TIP3    H145778   1.910   1.204   0.682
15279TIP3    H245779   1.878   1.236   0.826
15280TIP3   OH245780   5.437   1.225   0.404
15280TIP3    H145781   5.397   1.305   0.371
15280TIP3    H245782   5.531   1.239   0.396
15281TIP3   OH245783   6.455   7.826   0.252
15281TIP3    H145784   6.547   7.802   0.239
15281TIP3    H245785   6.408   7.743   0.248
15282TIP3   OH245786   3.695   3.821   0.140
15282TIP3    H145787   3.741   3.797   0.060
15282TIP3    H245788   3.666   3.911   0.126
15283TIP3   OH245789   5.525   1.661   1.492
15283TIP3    H145790   5.607   1.690   1.451
15283TIP3    H245791   5.547   1.574   1.527
15284TIP3   OH245792   4.944   7.926   0.460
15284TIP3    H145793   4.945   7.831   0.450
15284TIP3    H245794   5.009   7.958   0.396
15285TIP3   OH245795   4.164   1.345   5.719
15285TIP3    H145796   4.200   1.285   5.653
15285TIP3    H245797   4.163   1.294   5.800
15286TIP3   OH245798   4.547   5.884   6.432
15286TIP3    H145799   4.519   5.887   6.341
15286TIP3    H245800   4.466   5.893   6.482
15287TIP3   OH245801   4.018   5.825   3.530
15287TIP3    H145802   4.017   5.914   3.565
15287TIP3    H245803   3.954   5.777   3.583
15288TIP3   OH245804   7.260   3.672   6.776
15288TIP3    H145805   7.206   3.749   6.795
15288TIP3    H245806   7.198   3.606   6.748
15289TIP3   OH245807   5.100   6.600   3.673
15289TIP3    H145808   5.131   6.599   3.583
15289TIP3    H245809   5.180   6.611   3.726
15290TIP3   OH245810   4.069   4.404   4.297
15290TIP3    H145811   4.050   4.495   4.275
15290TIP3    H245812   4.137   4.379   4.235
15291TIP3   OH245813   1.301   2.864   3.215
15291TIP3    H145814   1.269   2.778   3.242
15291TIP3    H245815   1.238   2.925   3.254
15292TIP3   OH245816   3.103   5.657   3.015
15292TIP3    H145817   3.104   5.719   3.088
15292TIP3    H245818   3.195   5.646   2.992
15293TIP3   OH245819   5.184   4.086   3.678
15293TIP3    H145820   5.169   3.994   3.653
15293TIP3    H245821   5.216   4.127   3.598
15294TIP3   OH245822   4.431   4.297   2.491
15294TIP3    H145823   4.491   4.346   2.547
15294TIP3    H245824   4.422   4.212   2.533
15295TIP3   OH245825   2.759   6.040   3.272
15295TIP3    H145826   2.801   5.956   3.289
15295TIP3    H245827   2.696   6.050   3.344
15296TIP3   OH245828   1.800   0.459   3.218
15296TIP3    H145829   1.783   0.407   3.297
15296TIP3    H245830   1.740   0.424   3.153
15297TIP3   OH245831   3.795   4.433   2.639
15297TIP3    H145832   3.788   4.512   2.693
15297TIP3    H245833   3.843   4.372   2.694
15298TIP3   OH245834   8.280   4.208   1.615
15298TIP3    H145835   8.234   4.232   1.696
15298TIP3    H245836   8.237   4.127   1.587
15299TIP3   OH245837   4.620   6.288   3.656
15299TIP3    H145838   4.597   6.247   3.572
15299TIP3    H245839   4.716   6.283   3.660
15300TIP3   OH245840   1.713   2.547   4.505
15300TIP3    H145841   1.649   2.553   4.434
15300TIP3    H245842   1.739   2.638   4.522
15301TIP3   OH245843   0.089   5.355   4.898
15301TIP3    H145844   0.139   5.405   4.963
15301TIP3    H245845   0.154   5.301   4.854
15302TIP3   OH245846   1.586   4.049   0.686
15302TIP3    H145847   1.643   3.986   0.732
15302TIP3    H245848   1.572   4.119   0.749
15303TIP3   OH245849   7.885   5.592   6.782
15303TIP3    H145850   7.967   5.642   6.783
15303TIP3    H245851   7.823   5.649   6.738
15304TIP3   OH245852   3.613   1.795   5.106
15304TIP3    H145853   3.609   1.881   5.063
15304TIP3    H245854   3.522   1.766   5.110
15305TIP3   OH245855   4.964   1.526   4.678
15305TIP3    H145856   4.904   1.535   4.604
15305TIP3    H245857   4.992   1.434   4.674
15306TIP3   OH245858   4.162   0.318   5.995
15306TIP3    H145859   4.220   0.373   6.048
15306TIP3    H245860   4.083   0.369   5.985
15307TIP3   OH245861   7.398   0.921   0.459
15307TIP3    H145862   7.307   0.946   0.441
15307TIP3    H245863   7.399   0.825   0.451
15308TIP3   OH245864   3.826   4.284   2.127
15308TIP3    H145865   3.893   4.342   2.092
15308TIP3    H245866   3.809   4.315   2.216
15309TIP3   OH245867   0.851   2.718   6.417
15309TIP3    H145868   0.908   2.767   6.358
15309TIP3    H245869   0.810   2.785   6.471
15310TIP3   OH245870   8.242   0.493   6.448
15310TIP3    H145871   8.199   0.492   6.533
15310TIP3    H245872   8.191   0.431   6.395
15311TIP3   OH245873   1.696   3.027   3.896
15311TIP3    H145874   1.682   3.073   3.978
15311TIP3    H245875   1.608   3.000   3.868
15312TIP3   OH245876   6.256   6.265   3.014
15312TIP3    H145877   6.340   6.223   3.034
15312TIP3    H245878   6.253   6.268   2.919
15313TIP3   OH245879   7.071   5.482   2.818
15313TIP3    H145880   6.982   5.502   2.849
15313TIP3    H245881   7.058   5.410   2.756
15314TIP3   OH245882   3.290   4.990   1.448
15314TIP3    H145883   3.363   4.930   1.464
15314TIP3    H245884   3.275   5.033   1.533
15315TIP3   OH245885   1.116   4.541   6.067
15315TIP3    H145886   1.042   4.515   6.121
15315TIP3    H245887   1.089   4.521   5.978
15316TIP3   OH245888   7.961   5.075   3.236
15316TIP3    H145889   7.994   4.987   3.221
15316TIP3    H245890   7.875   5.076   3.193
15317TIP3   OH245891   2.408   2.947   6.348
15317TIP3    H145892   2.442   2.869   6.391
15317TIP3    H245893   2.481   2.977   6.293
15318TIP3   OH245894   0.843   1.057   5.689
15318TIP3    H145895   0.822   1.149   5.706
15318TIP3    H245896   0.924   1.060   5.639
15319TIP3   OH245897   8.304   0.419   1.435
15319TIP3    H145898   8.313   0.390   1.344
15319TIP3    H245899   8.229   0.479   1.434
15320TIP3   OH245900   3.991   2.458   4.461
15320TIP3    H145901   3.948   2.534   4.501
15320TIP3    H245902   4.083   2.467   4.484
15321TIP3   OH245903   2.395   6.702   3.595
15321TIP3    H145904   2.491   6.699   3.586
15321TIP3    H245905   2.379   6.754   3.674
15322TIP3   OH245906   4.414   7.116   5.023
15322TIP3    H145907   4.492   7.062   5.012
15322TIP3    H245908   4.361   7.071   5.088
15323TIP3   OH245909   0.372   6.211   6.279
15323TIP3    H145910   0.444   6.179   6.332
15323TIP3    H245911   0.394   6.185   6.189
15324TIP3   OH245912   6.147   5.002   2.716
15324TIP3    H145913   6.107   4.915   2.705
15324TIP3    H245914   6.241   4.984   2.721
15325TIP3   OH245915   1.882   4.034   4.871
15325TIP3    H145916   1.885   4.040   4.967
15325TIP3    H245917   1.857   4.122   4.843
15326TIP3   OH245918   0.781   2.816   4.388
15326TIP3    H145919   0.720   2.876   4.346
15326TIP3    H245920   0.865   2.861   4.385
15327TIP3   OH245921   1.236   1.581   6.849
15327TIP3    H145922   1.257   1.488   6.840
15327TIP3    H245923   1.199   1.589   6.938
15328TIP3   OH245924   6.137   3.169   1.572
15328TIP3    H145925   6.051   3.172   1.615
15328TIP3    H245926   6.117   3.150   1.481
15329TIP3   OH245927   6.663   4.329   3.848
15329TIP3    H145928   6.737   4.384   3.874
15329TIP3    H245929   6.631   4.292   3.930
15330TIP3   OH245930   6.635   4.127   0.291
15330TIP3    H145931   6.583   4.115   0.212
15330TIP3    H245932   6.686   4.206   0.275
15331TIP3   OH245933   0.092   7.252   5.004
15331TIP3    H145934   0.014   7.304   5.022
15331TIP3    H245935   0.067   7.162   5.025
15332TIP3   OH245936   1.840   1.847   6.147
15332TIP3    H145937   1.869   1.937   6.162
15332TIP3    H245938   1.861   1.830   6.056
15333TIP3   OH245939   5.073   7.134   4.657
15333TIP3    H145940   5.094   7.094   4.573
15333TIP3    H245941   5.120   7.081   4.721
15334TIP3   OH245942   4.946   5.224   0.449
15334TIP3    H145943   4.975   5.176   0.371
15334TIP3    H245944   4.882   5.286   0.416
15335TIP3   OH245945   5.917   2.627   6.383
15335TIP3    H145946   5.873   2.711   6.393
15335TIP3    H245947   5.881   2.572   6.453
15336TIP3   OH245948   7.258   6.871   3.469
15336TIP3    H145949   7.208   6.853   3.548
15336TIP3    H245950   7.346   6.839   3.487
15337TIP3   OH245951   6.993   7.674   3.864
15337TIP3    H145952   7.005   7.615   3.790
15337TIP3    H245953   6.944   7.748   3.829
15338TIP3   OH245954   2.884   3.776   4.800
15338TIP3    H145955   2.961   3.736   4.842
15338TIP3    H245956   2.889   3.748   4.709
15339TIP3   OH245957   0.218   1.621   0.156
15339TIP3    H145958   0.311   1.638   0.146
15339TIP3    H245959   0.180   1.707   0.176
15340TIP3   OH245960   7.164   1.999   4.131
15340TIP3    H145961   7.096   1.934   4.114
15340TIP3    H245962   7.140   2.074   4.077
15341TIP3   OH245963   4.200   2.737   3.857
15341TIP3    H145964   4.222   2.753   3.765
15341TIP3    H245965   4.138   2.807   3.879
15342TIP3   OH245966   2.378   4.155   6.000
15342TIP3    H145967   2.454   4.105   6.028
15342TIP3    H245968   2.405   4.246   6.008
15343TIP3   OH245969   0.042   6.718   4.216
15343TIP3    H145970   0.027   6.681   4.302
15343TIP3    H245971   0.012   6.809   4.223
15344TIP3   OH245972   0.226   3.273   3.638
15344TIP3    H145973   0.164   3.242   3.704
15344TIP3    H245974   0.170   3.295   3.563
15345TIP3   OH245975   2.110   1.918   5.232
15345TIP3    H145976   2.122   1.964   5.315
15345TIP3    H245977   2.169   1.962   5.171
15346TIP3   OH245978   5.328   5.140   0.362
15346TIP3    H145979   5.296   5.130   0.272
15346TIP3    H245980   5.419   5.108   0.358
15347TIP3   OH245981   4.988   2.328   1.663
15347TIP3    H145982   5.045   2.399   1.693
15347TIP3    H245983   4.903   2.369   1.649
15348TIP3   OH245984   8.158   6.747   1.995
15348TIP3    H145985   8.187   6.711   2.079
15348TIP3    H245986   8.208   6.698   1.929
15349TIP3   OH245987   3.944   0.437   1.518
15349TIP3    H145988   3.923   0.382   1.443
15349TIP3    H245989   3.953   0.375   1.591
15350TIP3   OH245990   4.590   3.731   2.218
15350TIP3    H145991   4.528   3.742   2.290
15350TIP3    H245992   4.626   3.643   2.230
15351TIP3   OH245993   2.248   6.305   1.119
15351TIP3    H145994   2.226   6.234   1.058
15351TIP3    H245995   2.174   6.364   1.115
15352TIP3   OH245996   0.088   1.477   0.702
15352TIP3    H145997   0.093   1.431   0.785
15352TIP3    H245998   0.069   1.409   0.638
15353TIP3   OH245999   1.408   6.008   0.109
15353TIP3    H146000   1.350   6.052   0.171
15353TIP3    H246001   1.450   6.078   0.060
15354TIP3   OH246002   5.838   1.375   1.351
15354TIP3    H146003   5.899   1.352   1.420
15354TIP3    H246004   5.891   1.424   1.287
15355TIP3   OH246005   7.190   1.382   3.785
15355TIP3    H146006   7.205   1.433   3.865
15355TIP3    H246007   7.257   1.414   3.724
15356TIP3   OH246008   0.667   5.696   0.234
15356TIP3    H146009   0.718   5.757   0.181
15356TIP3    H246010   0.615   5.752   0.292
15357TIP3   OH246011   5.941   3.372   3.330
15357TIP3    H146012   5.855   3.340   3.359
15357TIP3    H246013   5.952   3.456   3.374
15358TIP3   OH246014   3.895   0.306   2.977
15358TIP3    H146015   3.839   0.256   2.917
15358TIP3    H246016   3.835   0.337   3.045
15359TIP3   OH246017   0.094   5.685   5.935
15359TIP3    H146018   0.155   5.624   5.975
15359TIP3    H246019   0.013   5.676   5.986
15360TIP3   OH246020   3.228   1.140   3.517
15360TIP3    H146021   3.320   1.158   3.499
15360TIP3    H246022   3.223   1.129   3.612
15361TIP3   OH246023   7.338   3.591   2.274
15361TIP3    H146024   7.295   3.506   2.267
15361TIP3    H246025   7.305   3.641   2.199
15362TIP3   OH246026   0.189   6.792   3.594
15362TIP3    H146027   0.122   6.738   3.553
15362TIP3    H246028   0.168   6.881   3.567
15363TIP3   OH246029   4.764   5.985   0.589
15363TIP3    H146030   4.718   5.902   0.590
15363TIP3    H246031   4.703   6.047   0.549
15364TIP3   OH246032   2.996   1.584   1.745
15364TIP3    H146033   3.046   1.505   1.728
15364TIP3    H246034   2.904   1.558   1.732
15365TIP3   OH246035   1.012   5.974   4.404
15365TIP3    H146036   1.006   5.913   4.331
15365TIP3    H246037   1.099   5.958   4.442
15366TIP3   OH246038   0.069   7.185   6.378
15366TIP3    H146039   0.136   7.139   6.327
15366TIP3    H246040   0.032   7.249   6.318
15367TIP3   OH246041   2.680   4.857   0.553
15367TIP3    H146042   2.604   4.912   0.571
15367TIP3    H246043   2.754   4.906   0.590
15368TIP3   OH246044   1.208   2.139   3.362
15368TIP3    H146045   1.191   2.107   3.274
15368TIP3    H246046   1.227   2.232   3.350
15369TIP3   OH246047   2.377   7.224   5.648
15369TIP3    H146048   2.456   7.196   5.694
15369TIP3    H246049   2.409   7.258   5.564
15370TIP3   OH246050   2.743   4.221   4.243
15370TIP3    H146051   2.672   4.211   4.306
15370TIP3    H246052   2.805   4.279   4.287
15371TIP3   OH246053   2.609   4.433   3.233
15371TIP3    H146054   2.573   4.344   3.237
15371TIP3    H246055   2.692   4.428   3.279
   8.40106   7.92059   6.85943   0.00000   0.00000  -2.80035   0.00000  -2.80035  -3.96030
