Title t= 6440.00000 step= 3220000
44389
    1GLY      N    1   5.469   3.377   1.065
    1GLY    HT1    2   5.563   3.335   1.081
    1GLY    HT2    3   5.485   3.415   0.969
    1GLY    HT3    4   5.385   3.317   1.063
    1GLY     CA    5   5.459   3.501   1.156
    1GLY    HA1    6   5.366   3.550   1.134
    1GLY    HA2    7   5.549   3.558   1.137
    1GLY      C    8   5.445   3.447   1.306
    1GLY      O    9   5.468   3.328   1.333
    2PRO      N   10   5.415   3.541   1.404
    2PRO     CD   11   5.382   3.683   1.377
    2PRO    HD1   12   5.299   3.699   1.306
    2PRO    HD2   13   5.474   3.738   1.350
    2PRO     CA   14   5.410   3.501   1.547
    2PRO     HA   15   5.499   3.451   1.582
    2PRO     CB   16   5.388   3.633   1.615
    2PRO    HB1   17   5.488   3.665   1.653
    2PRO    HB2   18   5.318   3.631   1.701
    2PRO     CG   19   5.330   3.736   1.509
    2PRO    HG1   20   5.222   3.715   1.527
    2PRO    HG2   21   5.359   3.842   1.518
    2PRO      C   22   5.299   3.400   1.574
    2PRO      O   23   5.194   3.416   1.516
    3GLY      N   24   5.313   3.302   1.670
    3GLY     HN   25   5.402   3.288   1.714
    3GLY     CA   26   5.196   3.232   1.721
    3GLY    HA1   27   5.110   3.297   1.717
    3GLY    HA2   28   5.216   3.195   1.820
    3GLY      C   29   5.165   3.106   1.633
    3GLY      O   30   5.240   3.050   1.552
    4ASP      N   31   5.050   3.051   1.663
    4ASP     HN   32   4.978   3.092   1.719
    4ASP     CA   33   4.998   2.927   1.607
    4ASP     HA   34   5.068   2.848   1.630
    4ASP     CB   35   4.859   2.896   1.672
    4ASP    HB1   36   4.801   2.827   1.608
    4ASP    HB2   37   4.797   2.988   1.682
    4ASP     CG   38   4.875   2.823   1.803
    4ASP    OD1   39   4.986   2.778   1.835
    4ASP    OD2   40   4.775   2.810   1.880
    4ASP      C   41   4.982   2.927   1.461
    4ASP      O   42   4.954   3.032   1.400
    5PRO      N   43   5.004   2.811   1.391
    5PRO     CD   44   5.073   2.691   1.437
    5PRO    HD1   45   5.015   2.628   1.508
    5PRO    HD2   46   5.178   2.712   1.469
    5PRO     CA   47   4.951   2.799   1.259
    5PRO     HA   48   5.018   2.868   1.208
    5PRO     CB   49   4.971   2.655   1.217
    5PRO    HB1   50   4.998   2.638   1.111
    5PRO    HB2   51   4.887   2.586   1.241
    5PRO     CG   52   5.081   2.603   1.309
    5PRO    HG1   53   5.076   2.493   1.312
    5PRO    HG2   54   5.175   2.641   1.261
    5PRO      C   55   4.813   2.856   1.218
    5PRO      O   56   4.713   2.850   1.290
    6GLY      N   57   4.807   2.909   1.098
    6GLY     HN   58   4.882   2.906   1.032
    6GLY     CA   59   4.691   2.968   1.036
    6GLY    HA1   60   4.607   2.904   1.057
    6GLY    HA2   61   4.710   2.979   0.930
    6GLY      C   62   4.660   3.109   1.084
    6GLY      O   63   4.719   3.153   1.181
    7SER      N   64   4.564   3.180   1.023
    7SER     HN   65   4.518   3.139   0.945
    7SER     CA   66   4.526   3.313   1.056
    7SER     HA   67   4.611   3.373   1.028
    7SER     CB   68   4.397   3.352   0.982
    7SER    HB1   69   4.370   3.451   1.025
    7SER    HB2   70   4.318   3.276   1.001
    7SER     OG   71   4.431   3.364   0.843
    7SER    HG1   72   4.449   3.274   0.814
    7SER      C   73   4.500   3.342   1.209
    7SER      O   74   4.466   3.251   1.288
    8GLY      N   75   4.509   3.478   1.245
    8GLY     HN   76   4.533   3.549   1.179
    8GLY     CA   77   4.481   3.516   1.384
    8GLY    HA1   78   4.490   3.624   1.386
    8GLY    HA2   79   4.539   3.456   1.452
    8GLY      C   80   4.336   3.505   1.424
    8GLY      O   81   4.243   3.492   1.344
    9ASN      N   82   4.316   3.517   1.555
    9ASN     HN   83   4.394   3.527   1.617
    9ASN     CA   84   4.187   3.522   1.623
    9ASN     HA   85   4.119   3.445   1.592
    9ASN     CB   86   4.224   3.497   1.773
    9ASN    HB1   87   4.270   3.586   1.820
    9ASN    HB2   88   4.301   3.417   1.778
    9ASN     CG   89   4.102   3.452   1.847
    9ASN    OD1   90   4.011   3.387   1.792
    9ASN    ND2   91   4.082   3.503   1.968
    9ASN   HD21   92   3.993   3.481   2.008
    9ASN   HD22   93   4.120   3.593   1.992
    9ASN      C   94   4.112   3.654   1.606
    9ASN      O   95   4.177   3.758   1.623
   10PRO      N   96   3.985   3.666   1.567
   10PRO     CD   97   3.919   3.554   1.497
   10PRO    HD1   98   3.877   3.486   1.574
   10PRO    HD2   99   3.994   3.498   1.439
   10PRO     CA  100   3.916   3.790   1.570
   10PRO     HA  101   3.973   3.856   1.506
   10PRO     CB  102   3.779   3.749   1.506
   10PRO    HB1  103   3.734   3.835   1.451
   10PRO    HB2  104   3.709   3.735   1.591
   10PRO     CG  105   3.809   3.621   1.421
   10PRO    HG1  106   3.714   3.564   1.421
   10PRO    HG2  107   3.846   3.650   1.320
   10PRO      C  108   3.903   3.860   1.702
   10PRO      O  109   3.908   3.796   1.808
   11GLY      N  110   3.894   3.993   1.704
   11GLY     HN  111   3.899   4.041   1.616
   11GLY     CA  112   3.905   4.065   1.827
   11GLY    HA1  113   3.847   4.009   1.899
   11GLY    HA2  114   3.874   4.166   1.804
   11GLY      C  115   4.053   4.078   1.875
   11GLY      O  116   4.153   4.056   1.805
   12SER      N  117   4.068   4.121   2.002
   12SER     HN  118   3.995   4.148   2.065
   12SER     CA  119   4.200   4.147   2.062
   12SER     HA  120   4.273   4.081   2.016
   12SER     CB  121   4.260   4.288   2.044
   12SER    HB1  122   4.267   4.293   1.933
   12SER    HB2  123   4.362   4.312   2.083
   12SER     OG  124   4.167   4.387   2.079
   12SER    HG1  125   4.094   4.381   2.017
   12SER      C  126   4.198   4.116   2.210
   12SER      O  127   4.099   4.107   2.275
   13GLY      N  128   4.323   4.093   2.259
   13GLY     HN  129   4.397   4.086   2.193
   13GLY     CA  130   4.351   4.074   2.402
   13GLY    HA1  131   4.315   4.159   2.458
   13GLY    HA2  132   4.458   4.062   2.412
   13GLY      C  133   4.280   3.952   2.460
   13GLY      O  134   4.256   3.846   2.394
   14ASP      N  135   4.244   3.961   2.585
   14ASP     HN  136   4.281   4.036   2.638
   14ASP     CA  137   4.182   3.858   2.669
   14ASP     HA  138   4.250   3.774   2.666
   14ASP     CB  139   4.177   3.899   2.820
   14ASP    HB1  140   4.134   3.809   2.867
   14ASP    HB2  141   4.118   3.989   2.848
   14ASP     CG  142   4.319   3.920   2.873
   14ASP    OD1  143   4.416   3.865   2.817
   14ASP    OD2  144   4.334   3.964   2.989
   14ASP      C  145   4.041   3.822   2.614
   14ASP      O  146   3.967   3.915   2.579
   15PRO      N  147   4.001   3.692   2.597
   15PRO     CD  148   4.089   3.579   2.593
   15PRO    HD1  149   4.100   3.525   2.690
   15PRO    HD2  150   4.189   3.605   2.552
   15PRO     CA  151   3.867   3.658   2.554
   15PRO     HA  152   3.846   3.720   2.468
   15PRO     CB  153   3.874   3.516   2.527
   15PRO    HB1  154   3.825   3.494   2.430
   15PRO    HB2  155   3.816   3.459   2.602
   15PRO     CG  156   4.017   3.482   2.509
   15PRO    HG1  157   4.047   3.383   2.548
   15PRO    HG2  158   4.057   3.482   2.405
   15PRO      C  159   3.768   3.704   2.665
   15PRO    OT1  160   3.802   3.685   2.788
   15PRO    OT2  161   3.656   3.737   2.624
   16SOD    SOD  162   4.641   3.983   1.643
   17SOD    SOD  163   1.459   4.063   1.181
   18SOD    SOD  164   2.941   5.471   3.417
   19SOD    SOD  165   7.147   3.919   3.771
   20SOD    SOD  166   4.081   1.419   1.967
   21SOD    SOD  167   6.695   2.119   5.183
   22SOD    SOD  168   5.960   4.096   6.720
   23SOD    SOD  169   8.054   6.769   5.347
   24SOD    SOD  170   5.239   3.616   6.581
   25SOD    SOD  171   6.124   6.612   5.500
   26SOD    SOD  172   1.039   3.050   4.889
   27SOD    SOD  173   0.188   4.229   6.052
   28SOD    SOD  174   0.239   2.128   4.821
   29SOD    SOD  175   5.075   4.251   5.764
   30SOD    SOD  176   2.337   0.572   2.915
   31SOD    SOD  177   3.719   3.772   0.341
   32SOD    SOD  178   5.140   0.233   4.367
   33SOD    SOD  179   6.105   4.527   2.079
   34SOD    SOD  180   8.288   5.351   6.459
   35SOD    SOD  181   7.722   4.796   1.261
   36SOD    SOD  182   1.304   3.021   0.617
   37SOD    SOD  183   6.818   4.555   3.444
   38SOD    SOD  184   7.928   1.379   4.562
   39SOD    SOD  185   4.512   3.448   3.102
   40SOD    SOD  186   3.199   4.851   5.765
   41SOD    SOD  187   7.818   2.114   2.368
   42SOD    SOD  188   0.219   6.425   2.371
   43SOD    SOD  189   6.906   4.115   4.612
   44SOD    SOD  190   3.012   5.233   0.107
   45SOD    SOD  191   4.958   6.366   6.510
   46SOD    SOD  192   2.451   2.003   3.928
   47SOD    SOD  193   4.435   6.348   3.574
   48SOD    SOD  194   2.766   0.934   4.120
   49SOD    SOD  195   8.272   0.606   1.530
   50SOD    SOD  196   4.994   3.694   4.784
   51SOD    SOD  197   2.388   0.436   4.912
   52SOD    SOD  198   3.996   5.749   5.387
   53SOD    SOD  199   7.969   4.161   6.247
   54SOD    SOD  200   0.287   3.683   3.793
   55SOD    SOD  201   0.645   5.875   3.561
   56SOD    SOD  202   1.454   3.121   3.394
   57SOD    SOD  203   7.238   0.244   5.145
   58SOD    SOD  204   2.212   0.008   1.092
   59SOD    SOD  205   3.274   4.093   3.008
   60CLA    CLA  206   3.661   1.890   2.458
   61CLA    CLA  207   4.777   0.039   4.079
   62CLA    CLA  208   2.088   2.207   6.412
   63CLA    CLA  209   2.967   0.926   0.542
   64CLA    CLA  210   6.843   2.938   4.259
   65CLA    CLA  211   4.898   1.478   0.593
   66CLA    CLA  212   1.618   6.108   1.684
   67CLA    CLA  213   7.383   0.720   5.823
   68CLA    CLA  214   4.194   5.001   4.956
   69CLA    CLA  215   4.163   5.272   1.052
   70CLA    CLA  216   0.342   1.205   2.901
   71CLA    CLA  217   2.126   7.644   5.885
   72CLA    CLA  218   2.917   4.147   0.867
   73CLA    CLA  219   7.744   5.513   3.728
   74CLA    CLA  220   6.425   4.928   5.608
   75CLA    CLA  221   3.345   0.495   4.645
   76CLA    CLA  222   6.542   1.519   2.079
   77CLA    CLA  223   6.705   7.675   0.796
   78CLA    CLA  224   3.669   2.268   5.378
   79CLA    CLA  225   4.807   4.056   0.793
   80CLA    CLA  226   3.974   6.871   0.342
   81CLA    CLA  227   2.530   1.493   3.017
   82CLA    CLA  228   0.959   5.595   5.345
   83CLA    CLA  229   8.147   6.709   3.405
   84CLA    CLA  230   7.871   4.156   4.698
   85CLA    CLA  231   1.081   0.583   5.966
   86CLA    CLA  232   2.355   0.213   2.053
   87CLA    CLA  233   3.950   6.027   0.079
   88CLA    CLA  234   0.082   7.055   3.061
   89CLA    CLA  235   3.765   3.062   3.694
   90CLA    CLA  236   4.012   5.270   2.774
   91CLA    CLA  237   5.861   5.762   1.984
   92CLA    CLA  238   6.399   0.376   1.893
   93CLA    CLA  239   6.232   4.280   2.913
   94CLA    CLA  240   5.526   3.836   6.235
   95CLA    CLA  241   1.098   3.439   5.217
   96CLA    CLA  242   1.323   7.165   4.457
   97CLA    CLA  243   6.791   7.479   3.560
   98CLA    CLA  244   7.665   6.258   2.817
   99CLA    CLA  245   3.058   6.186   3.683
  100CLA    CLA  246   2.240   6.637   5.131
  101CLA    CLA  247   8.233   1.128   4.764
  102TIP3   OH2  248   4.116   5.867   3.528
  102TIP3    H1  249   4.101   5.903   3.616
  102TIP3    H2  250   4.102   5.942   3.470
  103TIP3   OH2  251   4.232   2.348   4.994
  103TIP3    H1  252   4.247   2.253   4.999
  103TIP3    H2  253   4.304   2.386   5.045
  104TIP3   OH2  254   4.153   6.305   5.201
  104TIP3    H1  255   4.227   6.362   5.179
  104TIP3    H2  256   4.134   6.258   5.120
  105TIP3   OH2  257   2.317   4.043   4.798
  105TIP3    H1  258   2.311   3.957   4.841
  105TIP3    H2  259   2.226   4.074   4.796
  106TIP3   OH2  260   6.416   5.341   0.848
  106TIP3    H1  261   6.407   5.395   0.769
  106TIP3    H2  262   6.376   5.257   0.824
  107TIP3   OH2  263   7.359   3.978   3.759
  107TIP3    H1  264   7.406   4.019   3.686
  107TIP3    H2  265   7.412   3.901   3.781
  108TIP3   OH2  266   5.961   1.598   1.097
  108TIP3    H1  267   5.894   1.663   1.117
  108TIP3    H2  268   6.031   1.616   1.161
  109TIP3   OH2  269   5.559   3.312   1.795
  109TIP3    H1  270   5.623   3.270   1.736
  109TIP3    H2  271   5.597   3.398   1.813
  110TIP3   OH2  272   5.505   6.308   5.978
  110TIP3    H1  273   5.501   6.312   6.074
  110TIP3    H2  274   5.586   6.355   5.956
  111TIP3   OH2  275   6.011   5.400   1.058
  111TIP3    H1  276   5.916   5.413   1.050
  111TIP3    H2  277   6.036   5.450   1.135
  112TIP3   OH2  278   3.753   3.287   3.042
  112TIP3    H1  279   3.767   3.297   3.137
  112TIP3    H2  280   3.794   3.364   3.004
  113TIP3   OH2  281   2.879   3.022   0.192
  113TIP3    H1  282   2.964   2.983   0.213
  113TIP3    H2  283   2.816   2.969   0.240
  114TIP3   OH2  284   5.686   3.674   4.240
  114TIP3    H1  285   5.741   3.738   4.285
  114TIP3    H2  286   5.722   3.589   4.266
  115TIP3   OH2  287   0.323   1.254   5.834
  115TIP3    H1  288   0.405   1.285   5.873
  115TIP3    H2  289   0.320   1.296   5.748
  116TIP3   OH2  290   3.990   4.228   5.507
  116TIP3    H1  291   4.046   4.268   5.573
  116TIP3    H2  292   3.959   4.147   5.548
  117TIP3   OH2  293   4.607   7.277   0.993
  117TIP3    H1  294   4.681   7.245   1.045
  117TIP3    H2  295   4.628   7.369   0.976
  118TIP3   OH2  296   6.400   3.473   1.820
  118TIP3    H1  297   6.373   3.382   1.832
  118TIP3    H2  298   6.483   3.480   1.867
  119TIP3   OH2  299   4.010   2.728   5.254
  119TIP3    H1  300   4.002   2.634   5.238
  119TIP3    H2  301   3.946   2.746   5.323
  120TIP3   OH2  302   1.949   2.720   0.386
  120TIP3    H1  303   1.939   2.777   0.463
  120TIP3    H2  304   1.909   2.769   0.315
  121TIP3   OH2  305   1.398   5.031   2.800
  121TIP3    H1  306   1.393   5.006   2.892
  121TIP3    H2  307   1.440   5.117   2.800
  122TIP3   OH2  308   8.188   3.083   1.050
  122TIP3    H1  309   8.169   3.041   0.966
  122TIP3    H2  310   8.204   3.010   1.110
  123TIP3   OH2  311   7.630   1.535   0.631
  123TIP3    H1  312   7.539   1.515   0.651
  123TIP3    H2  313   7.649   1.612   0.685
  124TIP3   OH2  314   8.024   4.015   1.884
  124TIP3    H1  315   8.024   4.029   1.789
  124TIP3    H2  316   8.108   3.974   1.902
  125TIP3   OH2  317   5.510   0.847   3.605
  125TIP3    H1  318   5.420   0.881   3.602
  125TIP3    H2  319   5.504   0.761   3.562
  126TIP3   OH2  320   6.695   1.217   0.231
  126TIP3    H1  321   6.734   1.291   0.278
  126TIP3    H2  322   6.669   1.254   0.146
  127TIP3   OH2  323   8.266   4.934   2.617
  127TIP3    H1  324   8.239   4.931   2.709
  127TIP3    H2  325   8.361   4.921   2.619
  128TIP3   OH2  326   1.241   6.959   1.775
  128TIP3    H1  327   1.315   6.925   1.724
  128TIP3    H2  328   1.204   6.882   1.819
  129TIP3   OH2  329   4.659   3.087   1.466
  129TIP3    H1  330   4.621   3.145   1.400
  129TIP3    H2  331   4.719   3.031   1.417
  130TIP3   OH2  332   6.234   7.140   2.414
  130TIP3    H1  333   6.175   7.117   2.486
  130TIP3    H2  334   6.265   7.228   2.435
  131TIP3   OH2  335   5.661   5.140   4.035
  131TIP3    H1  336   5.568   5.143   4.057
  131TIP3    H2  337   5.706   5.146   4.120
  132TIP3   OH2  338   0.003   4.486   1.046
  132TIP3    H1  339   0.002   4.440   1.129
  132TIP3    H2  340  -0.008   4.417   0.980
  133TIP3   OH2  341   3.871   1.505   2.310
  133TIP3    H1  342   3.947   1.540   2.356
  133TIP3    H2  343   3.808   1.486   2.380
  134TIP3   OH2  344   5.121   2.248   1.454
  134TIP3    H1  345   5.192   2.184   1.449
  134TIP3    H2  346   5.129   2.286   1.541
  135TIP3   OH2  347   3.243   4.298   1.731
  135TIP3    H1  348   3.283   4.375   1.690
  135TIP3    H2  349   3.317   4.252   1.771
  136TIP3   OH2  350   3.232   5.793   1.007
  136TIP3    H1  351   3.296   5.778   0.938
  136TIP3    H2  352   3.180   5.713   1.011
  137TIP3   OH2  353   2.574   0.650   6.064
  137TIP3    H1  354   2.661   0.688   6.076
  137TIP3    H2  355   2.516   0.725   6.058
  138TIP3   OH2  356   4.395   0.535   4.789
  138TIP3    H1  357   4.375   0.457   4.842
  138TIP3    H2  358   4.490   0.532   4.778
  139TIP3   OH2  359   5.979   4.433   4.157
  139TIP3    H1  360   6.036   4.502   4.191
  139TIP3    H2  361   5.890   4.464   4.175
  140TIP3   OH2  362   2.493   3.214   1.831
  140TIP3    H1  363   2.527   3.180   1.914
  140TIP3    H2  364   2.567   3.208   1.770
  141TIP3   OH2  365   3.660   5.484   4.579
  141TIP3    H1  366   3.728   5.462   4.642
  141TIP3    H2  367   3.666   5.416   4.512
  142TIP3   OH2  368   7.870   6.085   1.378
  142TIP3    H1  369   7.909   6.134   1.450
  142TIP3    H2  370   7.810   6.148   1.336
  143TIP3   OH2  371   7.559   1.166   4.793
  143TIP3    H1  372   7.467   1.185   4.811
  143TIP3    H2  373   7.606   1.207   4.866
  144TIP3   OH2  374   2.766   2.921   4.675
  144TIP3    H1  375   2.855   2.897   4.700
  144TIP3    H2  376   2.771   3.015   4.657
  145TIP3   OH2  377   5.876   2.786   0.792
  145TIP3    H1  378   5.917   2.870   0.769
  145TIP3    H2  379   5.944   2.740   0.842
  146TIP3   OH2  380   5.695   6.423   2.378
  146TIP3    H1  381   5.611   6.462   2.401
  146TIP3    H2  382   5.739   6.410   2.462
  147TIP3   OH2  383   1.414   7.102   1.214
  147TIP3    H1  384   1.409   7.009   1.235
  147TIP3    H2  385   1.502   7.128   1.243
  148TIP3   OH2  386   7.625   2.155   2.253
  148TIP3    H1  387   7.680   2.193   2.185
  148TIP3    H2  388   7.547   2.211   2.254
  149TIP3   OH2  389   4.174   4.325   5.339
  149TIP3    H1  390   4.166   4.397   5.402
  149TIP3    H2  391   4.109   4.261   5.366
  150TIP3   OH2  392   7.998   2.650   3.731
  150TIP3    H1  393   7.981   2.729   3.783
  150TIP3    H2  394   7.929   2.589   3.758
  151TIP3   OH2  395   5.535   4.870   1.807
  151TIP3    H1  396   5.558   4.820   1.729
  151TIP3    H2  397   5.496   4.806   1.866
  152TIP3   OH2  398   3.725   1.612   4.406
  152TIP3    H1  399   3.753   1.550   4.473
  152TIP3    H2  400   3.656   1.567   4.358
  153TIP3   OH2  401   1.741   3.355   0.223
  153TIP3    H1  402   1.767   3.371   0.133
  153TIP3    H2  403   1.652   3.320   0.217
  154TIP3   OH2  404   8.204   1.112   5.470
  154TIP3    H1  405   8.220   1.134   5.561
  154TIP3    H2  406   8.226   1.019   5.464
  155TIP3   OH2  407   3.298   2.759   5.804
  155TIP3    H1  408   3.283   2.799   5.890
  155TIP3    H2  409   3.235   2.687   5.800
  156TIP3   OH2  410   5.996   2.796   1.230
  156TIP3    H1  411   6.039   2.712   1.248
  156TIP3    H2  412   5.904   2.780   1.247
  157TIP3   OH2  413   0.870   5.914   3.179
  157TIP3    H1  414   0.961   5.928   3.204
  157TIP3    H2  415   0.872   5.834   3.126
  158TIP3   OH2  416   5.221   4.828   2.687
  158TIP3    H1  417   5.144   4.849   2.740
  158TIP3    H2  418   5.295   4.860   2.739
  159TIP3   OH2  419   6.747   4.150   0.210
  159TIP3    H1  420   6.686   4.080   0.230
  159TIP3    H2  421   6.725   4.176   0.120
  160TIP3   OH2  422   5.371   4.938   1.026
  160TIP3    H1  423   5.380   4.865   0.964
  160TIP3    H2  424   5.339   5.010   0.973
  161TIP3   OH2  425   7.447   6.080   2.054
  161TIP3    H1  426   7.515   6.074   1.986
  161TIP3    H2  427   7.419   6.172   2.052
  162TIP3   OH2  428   7.280   5.790   1.077
  162TIP3    H1  429   7.228   5.763   1.001
  162TIP3    H2  430   7.227   5.765   1.153
  163TIP3   OH2  431   7.084   5.037   1.713
  163TIP3    H1  432   7.156   5.000   1.661
  163TIP3    H2  433   7.007   5.028   1.656
  164TIP3   OH2  434   3.211   5.306   1.437
  164TIP3    H1  435   3.231   5.309   1.530
  164TIP3    H2  436   3.229   5.215   1.411
  165TIP3   OH2  437   1.230   3.987   1.983
  165TIP3    H1  438   1.144   3.953   1.961
  165TIP3    H2  439   1.220   4.028   2.069
  166TIP3   OH2  440   1.195   1.669   2.325
  166TIP3    H1  441   1.107   1.686   2.356
  166TIP3    H2  442   1.194   1.694   2.232
  167TIP3   OH2  443   4.168   2.590   4.932
  167TIP3    H1  444   4.150   2.497   4.949
  167TIP3    H2  445   4.094   2.619   4.879
  168TIP3   OH2  446   4.656   1.317   4.320
  168TIP3    H1  447   4.602   1.355   4.251
  168TIP3    H2  448   4.602   1.247   4.357
  169TIP3   OH2  449   6.196   5.985   1.633
  169TIP3    H1  450   6.112   5.970   1.590
  169TIP3    H2  451   6.258   5.933   1.583
  170TIP3   OH2  452   4.277   3.420   3.169
  170TIP3    H1  453   4.239   3.490   3.223
  170TIP3    H2  454   4.234   3.341   3.200
  171TIP3   OH2  455   1.434   7.331   5.467
  171TIP3    H1  456   1.411   7.415   5.507
  171TIP3    H2  457   1.436   7.350   5.373
  172TIP3   OH2  458   6.853   0.517   5.829
  172TIP3    H1  459   6.888   0.501   5.917
  172TIP3    H2  460   6.877   0.608   5.810
  173TIP3   OH2  461   0.589   4.263   5.375
  173TIP3    H1  462   0.601   4.193   5.440
  173TIP3    H2  463   0.647   4.238   5.303
  174TIP3   OH2  464   3.193   2.504   3.196
  174TIP3    H1  465   3.219   2.446   3.268
  174TIP3    H2  466   3.232   2.589   3.219
  175TIP3   OH2  467   5.665   6.967   2.707
  175TIP3    H1  468   5.675   7.010   2.792
  175TIP3    H2  469   5.704   7.029   2.645
  176TIP3   OH2  470   5.774   2.346   2.938
  176TIP3    H1  471   5.725   2.297   3.005
  176TIP3    H2  472   5.849   2.290   2.918
  177TIP3   OH2  473   5.011   1.104   5.974
  177TIP3    H1  474   4.987   1.172   6.037
  177TIP3    H2  475   5.039   1.031   6.028
  178TIP3   OH2  476   0.632   6.603   5.127
  178TIP3    H1  477   0.604   6.654   5.051
  178TIP3    H2  478   0.727   6.616   5.132
  179TIP3   OH2  479   1.640   1.378   6.735
  179TIP3    H1  480   1.671   1.394   6.824
  179TIP3    H2  481   1.688   1.441   6.681
  180TIP3   OH2  482   3.614   2.678   2.470
  180TIP3    H1  483   3.674   2.604   2.473
  180TIP3    H2  484   3.648   2.735   2.401
  181TIP3   OH2  485   0.548   4.985   4.277
  181TIP3    H1  486   0.554   4.931   4.355
  181TIP3    H2  487   0.638   5.016   4.262
  182TIP3   OH2  488   5.476   1.216   2.814
  182TIP3    H1  489   5.422   1.177   2.746
  182TIP3    H2  490   5.504   1.300   2.777
  183TIP3   OH2  491   7.080   5.414   3.228
  183TIP3    H1  492   7.057   5.327   3.259
  183TIP3    H2  493   7.034   5.474   3.287
  184TIP3   OH2  494   5.306   2.035   1.462
  184TIP3    H1  495   5.370   1.975   1.425
  184TIP3    H2  496   5.228   1.981   1.478
  185TIP3   OH2  497   3.870   0.727   3.579
  185TIP3    H1  498   3.939   0.670   3.612
  185TIP3    H2  499   3.791   0.698   3.623
  186TIP3   OH2  500   3.997   6.188   3.158
  186TIP3    H1  501   4.033   6.262   3.109
  186TIP3    H2  502   3.902   6.197   3.148
  187TIP3   OH2  503   3.531   6.749   2.604
  187TIP3    H1  504   3.472   6.735   2.529
  187TIP3    H2  505   3.513   6.839   2.632
  188TIP3   OH2  506   2.191   0.612   0.835
  188TIP3    H1  507   2.153   0.590   0.750
  188TIP3    H2  508   2.217   0.528   0.872
  189TIP3   OH2  509   3.841   5.434   4.757
  189TIP3    H1  510   3.883   5.349   4.775
  189TIP3    H2  511   3.835   5.476   4.843
  190TIP3   OH2  512   2.392   3.311   0.369
  190TIP3    H1  513   2.459   3.270   0.423
  190TIP3    H2  514   2.437   3.335   0.288
  191TIP3   OH2  515   7.460   0.918   4.899
  191TIP3    H1  516   7.530   0.973   4.864
  191TIP3    H2  517   7.397   0.910   4.827
  192TIP3   OH2  518   7.005   2.739   2.310
  192TIP3    H1  519   6.948   2.684   2.363
  192TIP3    H2  520   7.007   2.823   2.357
  193TIP3   OH2  521   5.714   7.655   3.968
  193TIP3    H1  522   5.694   7.565   3.994
  193TIP3    H2  523   5.658   7.671   3.892
  194TIP3   OH2  524   6.843   4.310   2.531
  194TIP3    H1  525   6.900   4.334   2.457
  194TIP3    H2  526   6.889   4.238   2.574
  195TIP3   OH2  527   1.272   6.007   6.304
  195TIP3    H1  528   1.293   6.093   6.267
  195TIP3    H2  529   1.344   5.951   6.275
  196TIP3   OH2  530   4.311   6.729   3.062
  196TIP3    H1  531   4.394   6.680   3.057
  196TIP3    H2  532   4.250   6.667   3.103
  197TIP3   OH2  533   7.168   0.842   3.555
  197TIP3    H1  534   7.184   0.748   3.545
  197TIP3    H2  535   7.204   0.881   3.475
  198TIP3   OH2  536   7.304   0.726   3.105
  198TIP3    H1  537   7.278   0.701   3.016
  198TIP3    H2  538   7.363   0.657   3.134
  199TIP3   OH2  539   7.359   5.661   1.959
  199TIP3    H1  540   7.442   5.614   1.971
  199TIP3    H2  541   7.374   5.717   1.883
  200TIP3   OH2  542   7.277   1.071   2.781
  200TIP3    H1  543   7.328   1.097   2.858
  200TIP3    H2  544   7.336   1.014   2.731
  201TIP3   OH2  545   6.627   6.897   0.762
  201TIP3    H1  546   6.673   6.978   0.741
  201TIP3    H2  547   6.610   6.903   0.856
  202TIP3   OH2  548   6.445   1.598   4.225
  202TIP3    H1  549   6.535   1.570   4.244
  202TIP3    H2  550   6.422   1.655   4.298
  203TIP3   OH2  551   7.929   7.060   3.501
  203TIP3    H1  552   7.996   7.026   3.442
  203TIP3    H2  553   7.864   7.101   3.444
  204TIP3   OH2  554   2.388   0.825   3.412
  204TIP3    H1  555   2.301   0.805   3.447
  204TIP3    H2  556   2.400   0.919   3.428
  205TIP3   OH2  557   2.892   4.420   4.161
  205TIP3    H1  558   2.811   4.405   4.112
  205TIP3    H2  559   2.867   4.481   4.230
  206TIP3   OH2  560   2.845   3.523   6.065
  206TIP3    H1  561   2.811   3.561   6.145
  206TIP3    H2  562   2.807   3.435   6.062
  207TIP3   OH2  563   1.440   5.100   5.034
  207TIP3    H1  564   1.394   5.115   5.116
  207TIP3    H2  565   1.506   5.034   5.054
  208TIP3   OH2  566   6.591   7.155   0.016
  208TIP3    H1  567   6.572   7.063   0.034
  208TIP3    H2  568   6.536   7.176  -0.059
  209TIP3   OH2  569   1.644   2.714   1.916
  209TIP3    H1  570   1.579   2.644   1.909
  209TIP3    H2  571   1.726   2.669   1.939
  210TIP3   OH2  572   6.243   5.278   4.577
  210TIP3    H1  573   6.153   5.249   4.590
  210TIP3    H2  574   6.257   5.269   4.482
  211TIP3   OH2  575   5.326   5.190   0.427
  211TIP3    H1  576   5.339   5.105   0.386
  211TIP3    H2  577   5.285   5.243   0.358
  212TIP3   OH2  578   4.851   6.257   4.514
  212TIP3    H1  579   4.804   6.222   4.438
  212TIP3    H2  580   4.923   6.196   4.528
  213TIP3   OH2  581   0.839   5.309   5.201
  213TIP3    H1  582   0.868   5.400   5.198
  213TIP3    H2  583   0.750   5.311   5.165
  214TIP3   OH2  584   8.116   3.517   5.878
  214TIP3    H1  585   8.081   3.578   5.812
  214TIP3    H2  586   8.168   3.455   5.828
  215TIP3   OH2  587   3.588   5.884   4.133
  215TIP3    H1  588   3.536   5.919   4.205
  215TIP3    H2  589   3.586   5.789   4.146
  216TIP3   OH2  590   7.564   1.628   0.055
  216TIP3    H1  591   7.469   1.640   0.047
  216TIP3    H2  592   7.578   1.536   0.036
  217TIP3   OH2  593   7.648   4.865   3.184
  217TIP3    H1  594   7.682   4.874   3.095
  217TIP3    H2  595   7.669   4.949   3.226
  218TIP3   OH2  596   6.067   5.263   3.286
  218TIP3    H1  597   6.061   5.169   3.298
  218TIP3    H2  598   6.087   5.297   3.373
  219TIP3   OH2  599   4.011   0.387   1.220
  219TIP3    H1  600   3.931   0.337   1.208
  219TIP3    H2  601   4.036   0.371   1.311
  220TIP3   OH2  602   0.095   0.922   1.754
  220TIP3    H1  603   0.041   0.875   1.818
  220TIP3    H2  604   0.097   0.864   1.678
  221TIP3   OH2  605   2.741   3.724   4.062
  221TIP3    H1  606   2.827   3.683   4.056
  221TIP3    H2  607   2.679   3.652   4.050
  222TIP3   OH2  608   2.853   1.097   1.819
  222TIP3    H1  609   2.855   1.064   1.729
  222TIP3    H2  610   2.801   1.032   1.867
  223TIP3   OH2  611   6.509   1.653   2.823
  223TIP3    H1  612   6.489   1.685   2.735
  223TIP3    H2  613   6.463   1.570   2.829
  224TIP3   OH2  614   0.667   7.174   2.588
  224TIP3    H1  615   0.750   7.135   2.559
  224TIP3    H2  616   0.619   7.191   2.507
  225TIP3   OH2  617   6.881   4.975   3.026
  225TIP3    H1  618   6.953   5.000   3.085
  225TIP3    H2  619   6.919   4.906   2.971
  226TIP3   OH2  620   0.561   4.540   3.678
  226TIP3    H1  621   0.551   4.579   3.591
  226TIP3    H2  622   0.513   4.599   3.736
  227TIP3   OH2  623   5.317   4.102   0.199
  227TIP3    H1  624   5.411   4.098   0.218
  227TIP3    H2  625   5.285   4.173   0.255
  228TIP3   OH2  626   6.428   1.549   5.647
  228TIP3    H1  627   6.456   1.478   5.705
  228TIP3    H2  628   6.437   1.628   5.700
  229TIP3   OH2  629   5.111   4.101   5.921
  229TIP3    H1  630   5.168   4.025   5.913
  229TIP3    H2  631   5.055   4.081   5.997
  230TIP3   OH2  632   0.628   5.110   1.944
  230TIP3    H1  633   0.677   5.104   2.026
  230TIP3    H2  634   0.605   5.020   1.923
  231TIP3   OH2  635   3.753   3.520   6.461
  231TIP3    H1  636   3.723   3.523   6.370
  231TIP3    H2  637   3.846   3.539   6.457
  232TIP3   OH2  638   6.541   0.406   1.496
  232TIP3    H1  639   6.553   0.489   1.541
  232TIP3    H2  640   6.516   0.430   1.407
  233TIP3   OH2  641   2.323   4.048   0.812
  233TIP3    H1  642   2.397   4.097   0.846
  233TIP3    H2  643   2.282   4.010   0.890
  234TIP3   OH2  644   0.246   2.730   2.487
  234TIP3    H1  645   0.322   2.709   2.541
  234TIP3    H2  646   0.269   2.697   2.400
  235TIP3   OH2  647   1.410   2.538   4.381
  235TIP3    H1  648   1.475   2.519   4.447
  235TIP3    H2  649   1.459   2.577   4.308
  236TIP3   OH2  650   4.755   0.976   4.235
  236TIP3    H1  651   4.824   1.011   4.179
  236TIP3    H2  652   4.792   0.981   4.323
  237TIP3   OH2  653   4.432   6.017   3.656
  237TIP3    H1  654   4.349   6.010   3.703
  237TIP3    H2  655   4.471   5.930   3.664
  238TIP3   OH2  656   0.277   4.638   5.114
  238TIP3    H1  657   0.310   4.566   5.060
  238TIP3    H2  658   0.350   4.661   5.171
  239TIP3   OH2  659   6.750   5.526   0.944
  239TIP3    H1  660   6.709   5.536   0.858
  239TIP3    H2  661   6.721   5.603   0.993
  240TIP3   OH2  662   7.426   0.443   6.239
  240TIP3    H1  663   7.410   0.520   6.185
  240TIP3    H2  664   7.340   0.404   6.252
  241TIP3   OH2  665   3.550   1.292   0.598
  241TIP3    H1  666   3.552   1.388   0.594
  241TIP3    H2  667   3.631   1.269   0.644
  242TIP3   OH2  668   1.162   6.404   2.894
  242TIP3    H1  669   1.075   6.410   2.933
  242TIP3    H2  670   1.199   6.492   2.905
  243TIP3   OH2  671   4.043   3.789   2.223
  243TIP3    H1  672   4.121   3.806   2.275
  243TIP3    H2  673   4.015   3.701   2.250
  244TIP3   OH2  674   2.863   3.398   0.739
  244TIP3    H1  675   2.913   3.406   0.820
  244TIP3    H2  676   2.835   3.488   0.719
  245TIP3   OH2  677   7.360   4.445   3.141
  245TIP3    H1  678   7.361   4.506   3.068
  245TIP3    H2  679   7.332   4.362   3.103
  246TIP3   OH2  680   1.639   7.777   1.635
  246TIP3    H1  681   1.629   7.698   1.688
  246TIP3    H2  682   1.587   7.843   1.681
  247TIP3   OH2  683   7.636   6.564   3.691
  247TIP3    H1  684   7.655   6.603   3.606
  247TIP3    H2  685   7.618   6.472   3.672
  248TIP3   OH2  686   5.539   7.646   1.759
  248TIP3    H1  687   5.476   7.706   1.799
  248TIP3    H2  688   5.525   7.655   1.665
  249TIP3   OH2  689   5.056   1.205   4.369
  249TIP3    H1  690   4.977   1.243   4.408
  249TIP3    H2  691   5.099   1.159   4.441
  250TIP3   OH2  692   2.701   1.315   2.772
  250TIP3    H1  693   2.642   1.297   2.846
  250TIP3    H2  694   2.771   1.369   2.810
  251TIP3   OH2  695   3.807   1.810   5.083
  251TIP3    H1  696   3.881   1.785   5.138
  251TIP3    H2  697   3.767   1.885   5.127
  252TIP3   OH2  698   3.327   6.671   1.349
  252TIP3    H1  699   3.352   6.660   1.440
  252TIP3    H2  700   3.337   6.584   1.310
  253TIP3   OH2  701   7.480   4.525   2.139
  253TIP3    H1  702   7.399   4.486   2.172
  253TIP3    H2  703   7.546   4.503   2.204
  254TIP3   OH2  704   0.467   6.764   0.731
  254TIP3    H1  705   0.395   6.786   0.790
  254TIP3    H2  706   0.546   6.775   0.785
  255TIP3   OH2  707   0.139   2.012   5.401
  255TIP3    H1  708   0.060   2.046   5.361
  255TIP3    H2  709   0.162   2.076   5.469
  256TIP3   OH2  710   7.182   5.808   4.445
  256TIP3    H1  711   7.168   5.888   4.496
  256TIP3    H2  712   7.125   5.743   4.486
  257TIP3   OH2  713   5.096   2.455   5.388
  257TIP3    H1  714   5.106   2.534   5.335
  257TIP3    H2  715   5.005   2.428   5.372
  258TIP3   OH2  716   4.367   5.936   2.333
  258TIP3    H1  717   4.291   5.878   2.337
  258TIP3    H2  718   4.340   6.007   2.275
  259TIP3   OH2  719   3.556   0.098   4.344
  259TIP3    H1  720   3.603   0.107   4.261
  259TIP3    H2  721   3.613   0.043   4.398
  260TIP3   OH2  722   3.984   3.156   3.473
  260TIP3    H1  723   4.043   3.220   3.515
  260TIP3    H2  724   3.915   3.143   3.538
  261TIP3   OH2  725   1.128   0.959   0.401
  261TIP3    H1  726   1.098   0.892   0.462
  261TIP3    H2  727   1.223   0.946   0.396
  262TIP3   OH2  728   8.040   5.874   1.371
  262TIP3    H1  729   7.958   5.923   1.363
  262TIP3    H2  730   8.082   5.884   1.286
  263TIP3   OH2  731   6.713   5.248   5.728
  263TIP3    H1  732   6.684   5.327   5.773
  263TIP3    H2  733   6.739   5.277   5.641
  264TIP3   OH2  734   6.021   1.191   2.387
  264TIP3    H1  735   6.036   1.133   2.312
  264TIP3    H2  736   6.083   1.263   2.376
  265TIP3   OH2  737   3.503   3.929   6.067
  265TIP3    H1  738   3.564   3.977   6.123
  265TIP3    H2  739   3.473   3.994   6.004
  266TIP3   OH2  740   6.946   3.165   6.401
  266TIP3    H1  741   6.940   3.095   6.466
  266TIP3    H2  742   6.899   3.132   6.325
  267TIP3   OH2  743   3.656   0.306   5.182
  267TIP3    H1  744   3.702   0.297   5.099
  267TIP3    H2  745   3.570   0.342   5.158
  268TIP3   OH2  746   0.271   5.716   3.802
  268TIP3    H1  747   0.286   5.684   3.713
  268TIP3    H2  748   0.305   5.805   3.801
  269TIP3   OH2  749   0.824   4.901   4.808
  269TIP3    H1  750   0.731   4.913   4.788
  269TIP3    H2  751   0.859   4.990   4.813
  270TIP3   OH2  752   0.905   4.316   4.408
  270TIP3    H1  753   0.911   4.336   4.501
  270TIP3    H2  754   0.888   4.401   4.366
  271TIP3   OH2  755   2.088   4.466   5.421
  271TIP3    H1  756   2.068   4.416   5.500
  271TIP3    H2  757   2.146   4.409   5.370
  272TIP3   OH2  758   8.061   0.309   6.257
  272TIP3    H1  759   8.021   0.396   6.250
  272TIP3    H2  760   8.011   0.266   6.327
  273TIP3   OH2  761   5.225   6.580   4.911
  273TIP3    H1  762   5.167   6.582   4.987
  273TIP3    H2  763   5.252   6.671   4.899
  274TIP3   OH2  764   6.206   0.889   0.580
  274TIP3    H1  765   6.246   0.839   0.508
  274TIP3    H2  766   6.240   0.978   0.569
  275TIP3   OH2  767   0.465   0.647   0.353
  275TIP3    H1  768   0.449   0.571   0.409
  275TIP3    H2  769   0.454   0.614   0.264
  276TIP3   OH2  770   1.996   1.000   6.215
  276TIP3    H1  771   2.027   1.073   6.268
  276TIP3    H2  772   1.940   1.041   6.149
  277TIP3   OH2  773   3.387   5.365   5.662
  277TIP3    H1  774   3.310   5.323   5.700
  277TIP3    H2  775   3.439   5.292   5.627
  278TIP3   OH2  776   6.778   1.897   4.914
  278TIP3    H1  777   6.778   1.964   4.846
  278TIP3    H2  778   6.758   1.815   4.868
  279TIP3   OH2  779   0.701   5.156   5.810
  279TIP3    H1  780   0.748   5.083   5.769
  279TIP3    H2  781   0.620   5.165   5.759
  280TIP3   OH2  782   1.380   1.860   3.474
  280TIP3    H1  783   1.381   1.927   3.542
  280TIP3    H2  784   1.406   1.905   3.394
  281TIP3   OH2  785   6.967   2.987   2.440
  281TIP3    H1  786   6.932   2.973   2.528
  281TIP3    H2  787   7.025   3.062   2.450
  282TIP3   OH2  788   1.575   0.479   6.485
  282TIP3    H1  789   1.499   0.524   6.449
  282TIP3    H2  790   1.650   0.520   6.442
  283TIP3   OH2  791   3.543   0.161   1.077
  283TIP3    H1  792   3.495   0.091   1.120
  283TIP3    H2  793   3.483   0.235   1.075
  284TIP3   OH2  794   0.812   2.460   2.954
  284TIP3    H1  795   0.854   2.374   2.953
  284TIP3    H2  796   0.885   2.522   2.955
  285TIP3   OH2  797   6.850   2.530   4.399
  285TIP3    H1  798   6.927   2.510   4.346
  285TIP3    H2  799   6.784   2.560   4.335
  286TIP3   OH2  800   2.914   4.170   4.723
  286TIP3    H1  801   2.854   4.203   4.657
  286TIP3    H2  802   2.865   4.178   4.805
  287TIP3   OH2  803   4.138   6.106   4.182
  287TIP3    H1  804   4.105   6.046   4.115
  287TIP3    H2  805   4.091   6.188   4.165
  288TIP3   OH2  806   2.189   0.330   4.184
  288TIP3    H1  807   2.187   0.417   4.144
  288TIP3    H2  808   2.282   0.306   4.182
  289TIP3   OH2  809   6.325   7.796   2.726
  289TIP3    H1  810   6.361   7.885   2.724
  289TIP3    H2  811   6.257   7.797   2.659
  290TIP3   OH2  812   7.009   3.523   3.015
  290TIP3    H1  813   7.037   3.555   2.930
  290TIP3    H2  814   6.954   3.447   2.996
  291TIP3   OH2  815   5.761   6.775   1.507
  291TIP3    H1  816   5.839   6.743   1.462
  291TIP3    H2  817   5.697   6.789   1.437
  292TIP3   OH2  818   1.231   5.680   3.426
  292TIP3    H1  819   1.254   5.769   3.455
  292TIP3    H2  820   1.243   5.625   3.503
  293TIP3   OH2  821   0.439   5.284   0.356
  293TIP3    H1  822   0.429   5.349   0.425
  293TIP3    H2  823   0.349   5.255   0.337
  294TIP3   OH2  824   5.941   6.816   6.301
  294TIP3    H1  825   5.855   6.774   6.295
  294TIP3    H2  826   5.944   6.875   6.226
  295TIP3   OH2  827   1.571   5.771   2.941
  295TIP3    H1  828   1.602   5.858   2.914
  295TIP3    H2  829   1.628   5.710   2.894
  296TIP3   OH2  830   1.777   6.621   5.750
  296TIP3    H1  831   1.823   6.565   5.687
  296TIP3    H2  832   1.772   6.706   5.707
  297TIP3   OH2  833   7.884   7.532   2.242
  297TIP3    H1  834   7.820   7.602   2.229
  297TIP3    H2  835   7.833   7.460   2.279
  298TIP3   OH2  836   0.698   4.703   5.541
  298TIP3    H1  837   0.706   4.608   5.551
  298TIP3    H2  838   0.787   4.736   5.551
  299TIP3   OH2  839   1.738   1.748   4.520
  299TIP3    H1  840   1.732   1.685   4.447
  299TIP3    H2  841   1.676   1.715   4.585
  300TIP3   OH2  842   0.417   5.817   2.020
  300TIP3    H1  843   0.346   5.780   2.073
  300TIP3    H2  844   0.464   5.741   1.985
  301TIP3   OH2  845   7.916   1.365   3.944
  301TIP3    H1  846   7.914   1.303   4.017
  301TIP3    H2  847   7.983   1.331   3.885
  302TIP3   OH2  848   1.366   3.730   1.629
  302TIP3    H1  849   1.293   3.727   1.691
  302TIP3    H2  850   1.438   3.685   1.673
  303TIP3   OH2  851   7.823   4.556   4.540
  303TIP3    H1  852   7.894   4.506   4.580
  303TIP3    H2  853   7.857   4.645   4.532
  304TIP3   OH2  854   4.122   5.063   5.786
  304TIP3    H1  855   4.086   5.124   5.722
  304TIP3    H2  856   4.106   4.977   5.749
  305TIP3   OH2  857   5.341   0.080   1.053
  305TIP3    H1  858   5.372   0.089   0.963
  305TIP3    H2  859   5.263   0.026   1.046
  306TIP3   OH2  860   1.463   4.758   1.777
  306TIP3    H1  861   1.514   4.698   1.832
  306TIP3    H2  862   1.495   4.741   1.688
  307TIP3   OH2  863   4.514   1.828   2.019
  307TIP3    H1  864   4.584   1.891   2.001
  307TIP3    H2  865   4.457   1.873   2.081
  308TIP3   OH2  866   7.608   6.896   1.588
  308TIP3    H1  867   7.575   6.870   1.674
  308TIP3    H2  868   7.563   6.979   1.569
  309TIP3   OH2  869   4.736   1.022   5.234
  309TIP3    H1  870   4.681   1.071   5.173
  309TIP3    H2  871   4.699   0.934   5.235
  310TIP3   OH2  872   6.316   0.423   5.034
  310TIP3    H1  873   6.364   0.365   5.093
  310TIP3    H2  874   6.230   0.382   5.025
  311TIP3   OH2  875   3.113   4.377   5.634
  311TIP3    H1  876   3.039   4.421   5.593
  311TIP3    H2  877   3.173   4.357   5.562
  312TIP3   OH2  878   0.800   1.460   4.634
  312TIP3    H1  879   0.708   1.479   4.651
  312TIP3    H2  880   0.803   1.432   4.543
  313TIP3   OH2  881   4.770   6.420   3.009
  313TIP3    H1  882   4.795   6.345   2.955
  313TIP3    H2  883   4.741   6.381   3.092
  314TIP3   OH2  884   1.434   5.719   5.670
  314TIP3    H1  885   1.514   5.734   5.619
  314TIP3    H2  886   1.363   5.741   5.610
  315TIP3   OH2  887   7.082   3.720   4.727
  315TIP3    H1  888   7.066   3.691   4.817
  315TIP3    H2  889   7.001   3.765   4.702
  316TIP3   OH2  890   6.482   6.158   0.272
  316TIP3    H1  891   6.396   6.194   0.294
  316TIP3    H2  892   6.544   6.227   0.295
  317TIP3   OH2  893   4.934   7.627   0.690
  317TIP3    H1  894   4.935   7.534   0.668
  317TIP3    H2  895   4.842   7.652   0.682
  318TIP3   OH2  896   0.951   3.791   3.974
  318TIP3    H1  897   0.997   3.708   3.958
  318TIP3    H2  898   0.868   3.765   4.014
  319TIP3   OH2  899   5.775   1.195   4.589
  319TIP3    H1  900   5.742   1.257   4.524
  319TIP3    H2  901   5.778   1.244   4.671
  320TIP3   OH2  902   8.222   0.073   4.861
  320TIP3    H1  903   8.147   0.040   4.910
  320TIP3    H2  904   8.242   0.005   4.797
  321TIP3   OH2  905   7.429   7.099   5.372
  321TIP3    H1  906   7.392   7.060   5.451
  321TIP3    H2  907   7.367   7.167   5.348
  322TIP3   OH2  908   3.287   2.542   5.552
  322TIP3    H1  909   3.272   2.636   5.565
  322TIP3    H2  910   3.204   2.509   5.519
  323TIP3   OH2  911   5.570   4.633   2.609
  323TIP3    H1  912   5.487   4.644   2.562
  323TIP3    H2  913   5.637   4.660   2.546
  324TIP3   OH2  914   6.589   5.411   2.197
  324TIP3    H1  915   6.540   5.476   2.248
  324TIP3    H2  916   6.669   5.397   2.247
  325TIP3   OH2  917   4.755   6.888   4.877
  325TIP3    H1  918   4.698   6.819   4.843
  325TIP3    H2  919   4.766   6.866   4.970
  326TIP3   OH2  920   0.409   1.585   1.110
  326TIP3    H1  921   0.362   1.657   1.068
  326TIP3    H2  922   0.495   1.622   1.131
  327TIP3   OH2  923   2.664   0.514   1.125
  327TIP3    H1  924   2.756   0.538   1.138
  327TIP3    H2  925   2.638   0.561   1.046
  328TIP3   OH2  926   8.002   0.802   2.208
  328TIP3    H1  927   8.063   0.874   2.224
  328TIP3    H2  928   7.920   0.831   2.249
  329TIP3   OH2  929   0.223   6.868   1.065
  329TIP3    H1  930   0.163   6.892   1.137
  329TIP3    H2  931   0.304   6.914   1.086
  330TIP3   OH2  932   2.079   3.220   4.710
  330TIP3    H1  933   2.007   3.275   4.679
  330TIP3    H2  934   2.043   3.174   4.785
  331TIP3   OH2  935   4.814   0.663   2.982
  331TIP3    H1  936   4.905   0.690   2.997
  331TIP3    H2  937   4.761   0.733   3.019
  332TIP3   OH2  938   6.619   4.068   1.053
  332TIP3    H1  939   6.685   4.013   1.094
  332TIP3    H2  940   6.575   4.010   0.990
  333TIP3   OH2  941   6.889   6.218   1.375
  333TIP3    H1  942   6.800   6.253   1.376
  333TIP3    H2  943   6.912   6.216   1.282
  334TIP3   OH2  944   2.154   1.947   2.157
  334TIP3    H1  945   2.209   1.916   2.229
  334TIP3    H2  946   2.089   2.002   2.199
  335TIP3   OH2  947   3.849   6.213   6.256
  335TIP3    H1  948   3.803   6.137   6.221
  335TIP3    H2  949   3.847   6.277   6.185
  336TIP3   OH2  950   1.726   7.707   4.017
  336TIP3    H1  951   1.811   7.750   4.031
  336TIP3    H2  952   1.661   7.775   4.034
  337TIP3   OH2  953   5.891   4.388   5.252
  337TIP3    H1  954   5.909   4.296   5.234
  337TIP3    H2  955   5.960   4.436   5.207
  338TIP3   OH2  956   7.082   1.215   4.625
  338TIP3    H1  957   7.064   1.141   4.683
  338TIP3    H2  958   7.000   1.228   4.576
  339TIP3   OH2  959   0.297   0.422   4.804
  339TIP3    H1  960   0.349   0.378   4.737
  339TIP3    H2  961   0.286   0.357   4.873
  340TIP3   OH2  962   7.241   6.948   2.050
  340TIP3    H1  963   7.163   6.895   2.032
  340TIP3    H2  964   7.258   6.995   1.969
  341TIP3   OH2  965   3.570   6.461   2.679
  341TIP3    H1  966   3.496   6.401   2.672
  341TIP3    H2  967   3.553   6.527   2.612
  342TIP3   OH2  968   7.491   7.249   2.417
  342TIP3    H1  969   7.501   7.179   2.482
  342TIP3    H2  970   7.413   7.224   2.367
  343TIP3   OH2  971   5.035   3.836   3.963
  343TIP3    H1  972   4.952   3.809   4.000
  343TIP3    H2  973   5.083   3.875   4.036
  344TIP3   OH2  974   5.995   7.114   0.284
  344TIP3    H1  975   5.935   7.040   0.277
  344TIP3    H2  976   5.969   7.158   0.365
  345TIP3   OH2  977   5.330   1.972   0.059
  345TIP3    H1  978   5.235   1.970   0.045
  345TIP3    H2  979   5.354   1.881   0.078
  346TIP3   OH2  980   5.990   2.676   5.502
  346TIP3    H1  981   6.059   2.730   5.540
  346TIP3    H2  982   6.017   2.663   5.411
  347TIP3   OH2  983   7.556   5.423   1.981
  347TIP3    H1  984   7.501   5.349   2.006
  347TIP3    H2  985   7.642   5.402   2.016
  348TIP3   OH2  986   0.802   5.629   4.569
  348TIP3    H1  987   0.884   5.678   4.577
  348TIP3    H2  988   0.734   5.696   4.563
  349TIP3   OH2  989   3.174   4.175   1.020
  349TIP3    H1  990   3.215   4.113   0.959
  349TIP3    H2  991   3.088   4.193   0.982
  350TIP3   OH2  992   6.186   5.466   1.735
  350TIP3    H1  993   6.269   5.480   1.781
  350TIP3    H2  994   6.177   5.371   1.729
  351TIP3   OH2  995   5.578   4.163   5.728
  351TIP3    H1  996   5.587   4.186   5.636
  351TIP3    H2  997   5.620   4.078   5.737
  352TIP3   OH2  998   4.134   6.210   5.469
  352TIP3    H1  999   4.088   6.126   5.476
  352TIP3    H2 1000   4.147   6.222   5.375
  353TIP3   OH2 1001   5.087   5.373   1.625
  353TIP3    H1 1002   5.145   5.319   1.571
  353TIP3    H2 1003   5.111   5.463   1.603
  354TIP3   OH2 1004   8.166   3.589   6.472
  354TIP3    H1 1005   8.213   3.672   6.464
  354TIP3    H2 1006   8.233   3.522   6.458
  355TIP3   OH2 1007   4.901   2.097   2.559
  355TIP3    H1 1008   4.882   2.023   2.616
  355TIP3    H2 1009   4.874   2.174   2.610
  356TIP3   OH2 1010   7.597   2.345   0.951
  356TIP3    H1 1011   7.633   2.259   0.929
  356TIP3    H2 1012   7.627   2.362   1.040
  357TIP3   OH2 1013   3.250   4.302   3.300
  357TIP3    H1 1014   3.234   4.208   3.312
  357TIP3    H2 1015   3.339   4.315   3.333
  358TIP3   OH2 1016   0.377   5.840   0.269
  358TIP3    H1 1017   0.455   5.877   0.228
  358TIP3    H2 1018   0.349   5.907   0.333
  359TIP3   OH2 1019   1.692   2.413   3.594
  359TIP3    H1 1020   1.703   2.318   3.603
  359TIP3    H2 1021   1.602   2.424   3.564
  360TIP3   OH2 1022   0.910   0.815   2.611
  360TIP3    H1 1023   0.850   0.787   2.679
  360TIP3    H2 1024   0.967   0.740   2.596
  361TIP3   OH2 1025   5.332   5.769   1.239
  361TIP3    H1 1026   5.304   5.688   1.197
  361TIP3    H2 1027   5.405   5.800   1.184
  362TIP3   OH2 1028   4.353   7.587   4.924
  362TIP3    H1 1029   4.325   7.500   4.897
  362TIP3    H2 1030   4.320   7.645   4.855
  363TIP3   OH2 1031   1.101   5.784   2.113
  363TIP3    H1 1032   1.037   5.740   2.057
  363TIP3    H2 1033   1.150   5.712   2.153
  364TIP3   OH2 1034   8.192   5.875   4.485
  364TIP3    H1 1035   8.163   5.791   4.521
  364TIP3    H2 1036   8.116   5.907   4.436
  365TIP3   OH2 1037   0.287   3.904   1.480
  365TIP3    H1 1038   0.214   3.963   1.459
  365TIP3    H2 1039   0.364   3.961   1.481
  366TIP3   OH2 1040   3.964   7.137   5.650
  366TIP3    H1 1041   3.984   7.107   5.739
  366TIP3    H2 1042   3.957   7.056   5.599
  367TIP3   OH2 1043   0.501   0.358   0.454
  367TIP3    H1 1044   0.592   0.331   0.441
  367TIP3    H2 1045   0.454   0.318   0.381
  368TIP3   OH2 1046   6.062   1.759   3.574
  368TIP3    H1 1047   6.096   1.685   3.524
  368TIP3    H2 1048   6.085   1.738   3.665
  369TIP3   OH2 1049   6.107   1.617   3.845
  369TIP3    H1 1050   6.160   1.635   3.922
  369TIP3    H2 1051   6.153   1.547   3.799
  370TIP3   OH2 1052   7.186   1.054   1.157
  370TIP3    H1 1053   7.106   1.012   1.126
  370TIP3    H2 1054   7.200   1.128   1.099
  371TIP3   OH2 1055   8.200   4.092   6.591
  371TIP3    H1 1056   8.275   4.115   6.536
  371TIP3    H2 1057   8.208   3.997   6.602
  372TIP3   OH2 1058   6.183   7.150   4.232
  372TIP3    H1 1059   6.263   7.169   4.183
  372TIP3    H2 1060   6.190   7.203   4.311
  373TIP3   OH2 1061   6.909   4.739   6.282
  373TIP3    H1 1062   6.995   4.770   6.309
  373TIP3    H2 1063   6.913   4.737   6.186
  374TIP3   OH2 1064   3.395   3.248   4.069
  374TIP3    H1 1065   3.470   3.282   4.021
  374TIP3    H2 1066   3.427   3.167   4.109
  375TIP3   OH2 1067   6.086   2.697   4.512
  375TIP3    H1 1068   6.066   2.754   4.438
  375TIP3    H2 1069   6.007   2.644   4.525
  376TIP3   OH2 1070   5.344   0.980   0.843
  376TIP3    H1 1071   5.322   0.897   0.885
  376TIP3    H2 1072   5.368   0.957   0.754
  377TIP3   OH2 1073   2.633   1.695   5.731
  377TIP3    H1 1074   2.615   1.763   5.795
  377TIP3    H2 1075   2.675   1.625   5.781
  378TIP3   OH2 1076   4.797   3.358   1.366
  378TIP3    H1 1077   4.892   3.345   1.364
  378TIP3    H2 1078   4.762   3.289   1.310
  379TIP3   OH2 1079   0.207   6.256   6.087
  379TIP3    H1 1080   0.253   6.172   6.086
  379TIP3    H2 1081   0.115   6.234   6.091
  380TIP3   OH2 1082   2.965   6.383   5.872
  380TIP3    H1 1083   3.010   6.401   5.955
  380TIP3    H2 1084   2.905   6.457   5.860
  381TIP3   OH2 1085   1.021   1.250   1.315
  381TIP3    H1 1086   1.094   1.222   1.260
  381TIP3    H2 1087   0.981   1.323   1.267
  382TIP3   OH2 1088   7.984   2.387   6.102
  382TIP3    H1 1089   7.997   2.413   6.011
  382TIP3    H2 1090   8.073   2.383   6.138
  383TIP3   OH2 1091   0.475   7.631   3.166
  383TIP3    H1 1092   0.475   7.631   3.071
  383TIP3    H2 1093   0.415   7.560   3.190
  384TIP3   OH2 1094   6.795   4.762   2.120
  384TIP3    H1 1095   6.787   4.825   2.192
  384TIP3    H2 1096   6.820   4.815   2.045
  385TIP3   OH2 1097   1.015   3.818   2.147
  385TIP3    H1 1098   1.092   3.768   2.173
  385TIP3    H2 1099   1.018   3.897   2.201
  386TIP3   OH2 1100   6.289   1.167   3.657
  386TIP3    H1 1101   6.208   1.138   3.699
  386TIP3    H2 1102   6.336   1.086   3.639
  387TIP3   OH2 1103   6.076   6.964   4.694
  387TIP3    H1 1104   6.027   6.929   4.768
  387TIP3    H2 1105   6.085   7.058   4.712
  388TIP3   OH2 1106   3.229   7.290   4.372
  388TIP3    H1 1107   3.303   7.261   4.425
  388TIP3    H2 1108   3.267   7.348   4.307
  389TIP3   OH2 1109   3.778   0.502   5.540
  389TIP3    H1 1110   3.839   0.434   5.569
  389TIP3    H2 1111   3.734   0.463   5.464
  390TIP3   OH2 1112   0.955   0.066   4.822
  390TIP3    H1 1113   1.008   0.105   4.753
  390TIP3    H2 1114   0.920  -0.014   4.784
  391TIP3   OH2 1115   2.819   6.254   1.385
  391TIP3    H1 1116   2.827   6.162   1.360
  391TIP3    H2 1117   2.846   6.255   1.477
  392TIP3   OH2 1118   2.754   0.048   0.513
  392TIP3    H1 1119   2.787   0.011   0.594
  392TIP3    H2 1120   2.829   0.045   0.453
  393TIP3   OH2 1121   7.006   7.572   1.762
  393TIP3    H1 1122   7.024   7.659   1.796
  393TIP3    H2 1123   6.964   7.526   1.836
  394TIP3   OH2 1124   2.482   0.561   6.738
  394TIP3    H1 1125   2.389   0.569   6.717
  394TIP3    H2 1126   2.523   0.636   6.694
  395TIP3   OH2 1127   4.396   5.233   4.915
  395TIP3    H1 1128   4.363   5.311   4.960
  395TIP3    H2 1129   4.329   5.166   4.930
  396TIP3   OH2 1130   5.340   4.351   3.160
  396TIP3    H1 1131   5.259   4.308   3.131
  396TIP3    H2 1132   5.312   4.409   3.231
  397TIP3   OH2 1133   2.763   2.096   1.594
  397TIP3    H1 1134   2.680   2.071   1.636
  397TIP3    H2 1135   2.743   2.180   1.552
  398TIP3   OH2 1136   0.389   5.155   3.004
  398TIP3    H1 1137   0.441   5.079   2.978
  398TIP3    H2 1138   0.452   5.215   3.042
  399TIP3   OH2 1139   6.407   7.536   4.091
  399TIP3    H1 1140   6.343   7.482   4.045
  399TIP3    H2 1141   6.469   7.562   4.024
  400TIP3   OH2 1142   5.623   6.485   2.105
  400TIP3    H1 1143   5.609   6.391   2.118
  400TIP3    H2 1144   5.547   6.526   2.145
  401TIP3   OH2 1145   2.368   2.978   3.747
  401TIP3    H1 1146   2.345   3.036   3.674
  401TIP3    H2 1147   2.378   3.036   3.822
  402TIP3   OH2 1148   4.511   4.805   2.164
  402TIP3    H1 1149   4.516   4.721   2.210
  402TIP3    H2 1150   4.570   4.862   2.214
  403TIP3   OH2 1151   0.174   7.644   1.553
  403TIP3    H1 1152   0.204   7.654   1.462
  403TIP3    H2 1153   0.124   7.562   1.552
  404TIP3   OH2 1154   4.666   0.474   4.701
  404TIP3    H1 1155   4.720   0.507   4.773
  404TIP3    H2 1156   4.724   0.417   4.652
  405TIP3   OH2 1157   4.646   2.930   0.471
  405TIP3    H1 1158   4.725   2.878   0.455
  405TIP3    H2 1159   4.574   2.867   0.464
  406TIP3   OH2 1160   4.408   6.996   6.486
  406TIP3    H1 1161   4.475   7.030   6.427
  406TIP3    H2 1162   4.434   6.906   6.503
  407TIP3   OH2 1163   3.151   2.879   4.071
  407TIP3    H1 1164   3.140   2.818   3.998
  407TIP3    H2 1165   3.100   2.956   4.047
  408TIP3   OH2 1166   0.200   5.414   3.037
  408TIP3    H1 1167   0.136   5.465   3.087
  408TIP3    H2 1168   0.221   5.340   3.093
  409TIP3   OH2 1169   3.322   3.478   4.229
  409TIP3    H1 1170   3.275   3.487   4.146
  409TIP3    H2 1171   3.392   3.415   4.211
  410TIP3   OH2 1172   6.104   3.046   3.392
  410TIP3    H1 1173   6.026   3.038   3.338
  410TIP3    H2 1174   6.120   3.140   3.398
  411TIP3   OH2 1175   5.934   1.666   6.497
  411TIP3    H1 1176   5.915   1.749   6.454
  411TIP3    H2 1177   5.856   1.612   6.480
  412TIP3   OH2 1178   0.576   0.796   5.314
  412TIP3    H1 1179   0.625   0.836   5.243
  412TIP3    H2 1180   0.484   0.814   5.293
  413TIP3   OH2 1181   0.545   2.424   4.119
  413TIP3    H1 1182   0.572   2.372   4.194
  413TIP3    H2 1183   0.484   2.367   4.071
  414TIP3   OH2 1184   3.498   0.228   6.258
  414TIP3    H1 1185   3.549   0.148   6.248
  414TIP3    H2 1186   3.511   0.276   6.176
  415TIP3   OH2 1187   3.491   6.867   3.287
  415TIP3    H1 1188   3.514   6.774   3.281
  415TIP3    H2 1189   3.407   6.875   3.242
  416TIP3   OH2 1190   2.629   4.688   0.075
  416TIP3    H1 1191   2.654   4.690   0.168
  416TIP3    H2 1192   2.671   4.766   0.038
  417TIP3   OH2 1193   6.892   4.735   3.324
  417TIP3    H1 1194   6.901   4.826   3.353
  417TIP3    H2 1195   6.963   4.722   3.261
  418TIP3   OH2 1196   3.207   4.585   1.976
  418TIP3    H1 1197   3.127   4.626   2.007
  418TIP3    H2 1198   3.179   4.502   1.938
  419TIP3   OH2 1199   6.354   6.333   6.130
  419TIP3    H1 1200   6.323   6.415   6.091
  419TIP3    H2 1201   6.332   6.266   6.065
  420TIP3   OH2 1202   5.097   1.512   2.375
  420TIP3    H1 1203   5.090   1.499   2.470
  420TIP3    H2 1204   5.021   1.467   2.340
  421TIP3   OH2 1205   5.121   6.294   6.664
  421TIP3    H1 1206   5.158   6.346   6.736
  421TIP3    H2 1207   5.167   6.210   6.669
  422TIP3   OH2 1208   4.165   3.803   1.973
  422TIP3    H1 1209   4.114   3.847   1.904
  422TIP3    H2 1210   4.122   3.828   2.054
  423TIP3   OH2 1211   5.005   4.967   4.875
  423TIP3    H1 1212   4.962   4.881   4.882
  423TIP3    H2 1213   4.951   5.015   4.812
  424TIP3   OH2 1214   1.126   0.179   3.436
  424TIP3    H1 1215   1.129   0.186   3.340
  424TIP3    H2 1216   1.200   0.121   3.457
  425TIP3   OH2 1217   1.513   3.872   5.252
  425TIP3    H1 1218   1.458   3.881   5.330
  425TIP3    H2 1219   1.455   3.895   5.179
  426TIP3   OH2 1220   3.876   2.790   6.197
  426TIP3    H1 1221   3.847   2.787   6.106
  426TIP3    H2 1222   3.961   2.835   6.195
  427TIP3   OH2 1223   2.106   3.550   5.998
  427TIP3    H1 1224   2.142   3.474   5.952
  427TIP3    H2 1225   2.137   3.539   6.088
  428TIP3   OH2 1226   2.886   2.078   2.191
  428TIP3    H1 1227   2.973   2.113   2.170
  428TIP3    H2 1228   2.833   2.097   2.114
  429TIP3   OH2 1229   8.283   2.237   5.882
  429TIP3    H1 1230   8.355   2.228   5.820
  429TIP3    H2 1231   8.279   2.153   5.928
  430TIP3   OH2 1232   2.670   2.409   1.157
  430TIP3    H1 1233   2.654   2.315   1.162
  430TIP3    H2 1234   2.588   2.448   1.188
  431TIP3   OH2 1235   5.389   0.362   1.935
  431TIP3    H1 1236   5.308   0.372   1.984
  431TIP3    H2 1237   5.458   0.372   2.000
  432TIP3   OH2 1238   1.095   3.598   4.263
  432TIP3    H1 1239   1.045   3.567   4.188
  432TIP3    H2 1240   1.038   3.584   4.338
  433TIP3   OH2 1241   2.402   2.147   4.914
  433TIP3    H1 1242   2.402   2.088   4.838
  433TIP3    H2 1243   2.321   2.197   4.906
  434TIP3   OH2 1244   6.885   6.056   4.528
  434TIP3    H1 1245   6.898   6.134   4.582
  434TIP3    H2 1246   6.790   6.045   4.524
  435TIP3   OH2 1247   7.700   6.494   4.910
  435TIP3    H1 1248   7.703   6.504   4.815
  435TIP3    H2 1249   7.694   6.400   4.924
  436TIP3   OH2 1250   7.641   7.175   4.186
  436TIP3    H1 1251   7.721   7.153   4.234
  436TIP3    H2 1252   7.594   7.235   4.244
  437TIP3   OH2 1253   1.609   5.923   0.815
  437TIP3    H1 1254   1.537   5.942   0.875
  437TIP3    H2 1255   1.677   5.987   0.838
  438TIP3   OH2 1256   3.152   7.007   1.541
  438TIP3    H1 1257   3.119   6.983   1.454
  438TIP3    H2 1258   3.223   6.945   1.558
  439TIP3   OH2 1259   3.885   5.720   5.584
  439TIP3    H1 1260   3.900   5.657   5.655
  439TIP3    H2 1261   3.791   5.737   5.587
  440TIP3   OH2 1262   4.599   1.362   1.975
  440TIP3    H1 1263   4.618   1.269   1.989
  440TIP3    H2 1264   4.582   1.369   1.881
  441TIP3   OH2 1265   1.961   1.550   0.201
  441TIP3    H1 1266   1.896   1.566   0.133
  441TIP3    H2 1267   1.983   1.637   0.234
  442TIP3   OH2 1268   1.445   4.684   6.539
  442TIP3    H1 1269   1.374   4.652   6.483
  442TIP3    H2 1270   1.438   4.631   6.619
  443TIP3   OH2 1271   3.332   0.997   4.015
  443TIP3    H1 1272   3.353   0.922   3.959
  443TIP3    H2 1273   3.239   1.015   3.998
  444TIP3   OH2 1274   2.785   5.102   1.468
  444TIP3    H1 1275   2.869   5.117   1.512
  444TIP3    H2 1276   2.781   5.169   1.400
  445TIP3   OH2 1277   7.487   7.302   3.619
  445TIP3    H1 1278   7.542   7.378   3.636
  445TIP3    H2 1279   7.457   7.313   3.528
  446TIP3   OH2 1280   5.143   3.556   0.895
  446TIP3    H1 1281   5.208   3.611   0.940
  446TIP3    H2 1282   5.195   3.499   0.839
  447TIP3   OH2 1283   0.819   7.568   4.227
  447TIP3    H1 1284   0.827   7.512   4.150
  447TIP3    H2 1285   0.883   7.638   4.212
  448TIP3   OH2 1286   1.476   4.359   4.022
  448TIP3    H1 1287   1.405   4.393   4.077
  448TIP3    H2 1288   1.523   4.297   4.079
  449TIP3   OH2 1289   5.295   6.757   5.420
  449TIP3    H1 1290   5.380   6.721   5.396
  449TIP3    H2 1291   5.300   6.770   5.515
  450TIP3   OH2 1292   4.678   2.582   2.277
  450TIP3    H1 1293   4.721   2.641   2.215
  450TIP3    H2 1294   4.612   2.537   2.224
  451TIP3   OH2 1295   0.219   1.824   3.766
  451TIP3    H1 1296   0.256   1.793   3.683
  451TIP3    H2 1297   0.127   1.801   3.761
  452TIP3   OH2 1298   3.567   4.409   3.065
  452TIP3    H1 1299   3.643   4.448   3.021
  452TIP3    H2 1300   3.599   4.387   3.153
  453TIP3   OH2 1301   1.047   7.193   5.743
  453TIP3    H1 1302   0.986   7.203   5.816
  453TIP3    H2 1303   0.993   7.205   5.665
  454TIP3   OH2 1304   2.517   2.492   3.863
  454TIP3    H1 1305   2.459   2.489   3.939
  454TIP3    H2 1306   2.602   2.465   3.897
  455TIP3   OH2 1307   8.143   0.393   3.281
  455TIP3    H1 1308   8.182   0.337   3.214
  455TIP3    H2 1309   8.060   0.421   3.242
  456TIP3   OH2 1310   0.305   1.629   0.425
  456TIP3    H1 1311   0.218   1.594   0.445
  456TIP3    H2 1312   0.360   1.551   0.415
  457TIP3   OH2 1313   2.889   1.528   1.853
  457TIP3    H1 1314   2.947   1.475   1.798
  457TIP3    H2 1315   2.895   1.616   1.817
  458TIP3   OH2 1316   3.705   1.758   5.409
  458TIP3    H1 1317   3.702   1.819   5.335
  458TIP3    H2 1318   3.695   1.814   5.486
  459TIP3   OH2 1319   7.867   3.787   6.260
  459TIP3    H1 1320   7.934   3.853   6.280
  459TIP3    H2 1321   7.839   3.809   6.171
  460TIP3   OH2 1322   1.558   0.583   6.033
  460TIP3    H1 1323   1.528   0.493   6.025
  460TIP3    H2 1324   1.646   0.583   5.996
  461TIP3   OH2 1325   0.266   5.641   6.297
  461TIP3    H1 1326   0.281   5.735   6.301
  461TIP3    H2 1327   0.288   5.610   6.385
  462TIP3   OH2 1328   3.054   6.523   0.182
  462TIP3    H1 1329   3.149   6.537   0.181
  462TIP3    H2 1330   3.025   6.552   0.096
  463TIP3   OH2 1331   5.559   2.241   4.186
  463TIP3    H1 1332   5.525   2.164   4.233
  463TIP3    H2 1333   5.495   2.255   4.116
  464TIP3   OH2 1334   4.591   6.080   2.870
  464TIP3    H1 1335   4.673   6.034   2.856
  464TIP3    H2 1336   4.589   6.148   2.803
  465TIP3   OH2 1337   0.371   1.571   3.929
  465TIP3    H1 1338   0.454   1.596   3.969
  465TIP3    H2 1339   0.306   1.626   3.972
  466TIP3   OH2 1340   5.217   3.603   5.278
  466TIP3    H1 1341   5.283   3.670   5.258
  466TIP3    H2 1342   5.134   3.650   5.279
  467TIP3   OH2 1343   2.520   1.760   6.743
  467TIP3    H1 1344   2.440   1.762   6.691
  467TIP3    H2 1345   2.491   1.776   6.833
  468TIP3   OH2 1346   1.716   0.538   2.954
  468TIP3    H1 1347   1.731   0.580   2.869
  468TIP3    H2 1348   1.790   0.565   3.008
  469TIP3   OH2 1349   1.652   4.937   5.084
  469TIP3    H1 1350   1.675   4.921   5.175
  469TIP3    H2 1351   1.706   4.876   5.034
  470TIP3   OH2 1352   1.959   1.249   3.421
  470TIP3    H1 1353   1.873   1.257   3.380
  470TIP3    H2 1354   2.011   1.320   3.383
  471TIP3   OH2 1355   0.125   1.898   5.699
  471TIP3    H1 1356   0.033   1.883   5.721
  471TIP3    H2 1357   0.122   1.952   5.620
  472TIP3   OH2 1358   3.501   3.513   1.685
  472TIP3    H1 1359   3.491   3.425   1.721
  472TIP3    H2 1360   3.574   3.551   1.734
  473TIP3   OH2 1361   3.871   2.107   5.800
  473TIP3    H1 1362   3.881   2.041   5.868
  473TIP3    H2 1363   3.953   2.157   5.803
  474TIP3   OH2 1364   8.183   3.876   0.911
  474TIP3    H1 1365   8.170   3.836   0.825
  474TIP3    H2 1366   8.119   3.834   0.968
  475TIP3   OH2 1367   5.400   7.784   2.338
  475TIP3    H1 1368   5.456   7.819   2.269
  475TIP3    H2 1369   5.395   7.690   2.320
  476TIP3   OH2 1370   1.487   2.687   4.172
  476TIP3    H1 1371   1.568   2.656   4.133
  476TIP3    H2 1372   1.447   2.742   4.104
  477TIP3   OH2 1373   6.793   0.529   6.159
  477TIP3    H1 1374   6.712   0.580   6.148
  477TIP3    H2 1375   6.763   0.443   6.188
  478TIP3   OH2 1376   1.025   5.199   5.497
  478TIP3    H1 1377   1.090   5.233   5.436
  478TIP3    H2 1378   1.060   5.220   5.584
  479TIP3   OH2 1379   3.578   6.175   3.443
  479TIP3    H1 1380   3.634   6.109   3.483
  479TIP3    H2 1381   3.554   6.233   3.515
  480TIP3   OH2 1382   7.120   1.533   3.445
  480TIP3    H1 1383   7.196   1.574   3.403
  480TIP3    H2 1384   7.158   1.475   3.511
  481TIP3   OH2 1385   3.151   3.486   5.287
  481TIP3    H1 1386   3.230   3.460   5.239
  481TIP3    H2 1387   3.102   3.404   5.297
  482TIP3   OH2 1388   5.429   5.349   3.016
  482TIP3    H1 1389   5.500   5.393   3.063
  482TIP3    H2 1390   5.428   5.260   3.054
  483TIP3   OH2 1391   2.448   3.865   5.057
  483TIP3    H1 1392   2.542   3.878   5.047
  483TIP3    H2 1393   2.437   3.771   5.066
  484TIP3   OH2 1394   4.361   3.821   4.410
  484TIP3    H1 1395   4.269   3.836   4.432
  484TIP3    H2 1396   4.385   3.743   4.459
  485TIP3   OH2 1397   4.425   5.750   2.540
  485TIP3    H1 1398   4.409   5.816   2.473
  485TIP3    H2 1399   4.481   5.794   2.604
  486TIP3   OH2 1400   1.929   3.458   5.187
  486TIP3    H1 1401   1.871   3.412   5.126
  486TIP3    H2 1402   1.995   3.394   5.212
  487TIP3   OH2 1403   1.960   4.329   2.967
  487TIP3    H1 1404   1.943   4.413   3.010
  487TIP3    H2 1405   2.034   4.346   2.909
  488TIP3   OH2 1406   4.213   1.527   6.077
  488TIP3    H1 1407   4.256   1.455   6.031
  488TIP3    H2 1408   4.278   1.597   6.079
  489TIP3   OH2 1409   2.239   5.692   3.444
  489TIP3    H1 1410   2.279   5.775   3.467
  489TIP3    H2 1411   2.188   5.711   3.365
  490TIP3   OH2 1412   6.906   5.877   0.590
  490TIP3    H1 1413   6.870   5.865   0.677
  490TIP3    H2 1414   6.978   5.813   0.585
  491TIP3   OH2 1415   6.383   4.607   2.879
  491TIP3    H1 1416   6.469   4.578   2.909
  491TIP3    H2 1417   6.324   4.535   2.903
  492TIP3   OH2 1418   6.089   2.722   5.255
  492TIP3    H1 1419   6.047   2.808   5.246
  492TIP3    H2 1420   6.181   2.738   5.237
  493TIP3   OH2 1421   3.052   5.985   0.286
  493TIP3    H1 1422   3.075   5.894   0.303
  493TIP3    H2 1423   3.020   6.018   0.370
  494TIP3   OH2 1424   7.786   5.181   6.404
  494TIP3    H1 1425   7.812   5.153   6.491
  494TIP3    H2 1426   7.785   5.277   6.409
  495TIP3   OH2 1427   3.948   3.093   1.259
  495TIP3    H1 1428   3.857   3.067   1.245
  495TIP3    H2 1429   3.958   3.097   1.354
  496TIP3   OH2 1430   1.143   2.278   4.762
  496TIP3    H1 1431   1.214   2.245   4.707
  496TIP3    H2 1432   1.078   2.208   4.764
  497TIP3   OH2 1433   4.769   6.360   6.342
  497TIP3    H1 1434   4.709   6.291   6.369
  497TIP3    H2 1435   4.712   6.436   6.329
  498TIP3   OH2 1436   6.677   2.063   3.135
  498TIP3    H1 1437   6.648   1.975   3.111
  498TIP3    H2 1438   6.597   2.111   3.154
  499TIP3   OH2 1439   3.115   1.195   1.447
  499TIP3    H1 1440   3.184   1.165   1.388
  499TIP3    H2 1441   3.050   1.236   1.390
  500TIP3   OH2 1442   5.176   7.067   2.132
  500TIP3    H1 1443   5.203   6.981   2.100
  500TIP3    H2 1444   5.084   7.055   2.155
  501TIP3   OH2 1445   6.951   4.656   0.478
  501TIP3    H1 1446   6.875   4.710   0.494
  501TIP3    H2 1447   6.921   4.590   0.415
  502TIP3   OH2 1448   3.811   1.912   6.693
  502TIP3    H1 1449   3.878   1.958   6.642
  502TIP3    H2 1450   3.750   1.981   6.720
  503TIP3   OH2 1451   4.819   4.238   0.452
  503TIP3    H1 1452   4.857   4.257   0.367
  503TIP3    H2 1453   4.763   4.162   0.437
  504TIP3   OH2 1454   6.878   2.298   3.883
  504TIP3    H1 1455   6.823   2.236   3.835
  504TIP3    H2 1456   6.960   2.250   3.898
  505TIP3   OH2 1457   7.866   2.071   3.830
  505TIP3    H1 1458   7.806   2.019   3.884
  505TIP3    H2 1459   7.818   2.152   3.813
  506TIP3   OH2 1460   2.306   2.574   1.205
  506TIP3    H1 1461   2.213   2.586   1.184
  506TIP3    H2 1462   2.352   2.590   1.123
  507TIP3   OH2 1463   1.520   6.751   4.573
  507TIP3    H1 1464   1.443   6.806   4.555
  507TIP3    H2 1465   1.551   6.724   4.486
  508TIP3   OH2 1466   6.151   0.740   5.293
  508TIP3    H1 1467   6.212   0.697   5.233
  508TIP3    H2 1468   6.071   0.687   5.288
  509TIP3   OH2 1469   2.016   0.348   3.911
  509TIP3    H1 1470   2.035   0.339   3.818
  509TIP3    H2 1471   2.089   0.304   3.955
  510TIP3   OH2 1472   7.721   7.065   3.946
  510TIP3    H1 1473   7.814   7.047   3.962
  510TIP3    H2 1474   7.688   7.097   4.029
  511TIP3   OH2 1475   5.354   7.350   0.616
  511TIP3    H1 1476   5.312   7.274   0.577
  511TIP3    H2 1477   5.385   7.319   0.701
  512TIP3   OH2 1478   5.078   6.851   6.041
  512TIP3    H1 1479   4.988   6.831   6.064
  512TIP3    H2 1480   5.098   6.932   6.088
  513TIP3   OH2 1481   0.045   5.594   3.939
  513TIP3    H1 1482   0.102   5.655   3.892
  513TIP3    H2 1483  -0.043   5.611   3.905
  514TIP3   OH2 1484   3.167   4.458   4.267
  514TIP3    H1 1485   3.155   4.413   4.350
  514TIP3    H2 1486   3.085   4.505   4.253
  515TIP3   OH2 1487   1.254   6.797   2.156
  515TIP3    H1 1488   1.301   6.734   2.102
  515TIP3    H2 1489   1.192   6.744   2.206
  516TIP3   OH2 1490   1.774   5.983   1.924
  516TIP3    H1 1491   1.867   6.004   1.924
  516TIP3    H2 1492   1.743   6.009   1.837
  517TIP3   OH2 1493   4.478   4.687   4.589
  517TIP3    H1 1494   4.568   4.688   4.624
  517TIP3    H2 1495   4.423   4.679   4.667
  518TIP3   OH2 1496   5.352   0.349   5.596
  518TIP3    H1 1497   5.330   0.258   5.613
  518TIP3    H2 1498   5.356   0.356   5.501
  519TIP3   OH2 1499   1.114   4.687   0.630
  519TIP3    H1 1500   1.029   4.731   0.636
  519TIP3    H2 1501   1.097   4.610   0.576
  520TIP3   OH2 1502   3.000   0.130   4.755
  520TIP3    H1 1503   3.039   0.181   4.826
  520TIP3    H2 1504   3.067   0.127   4.687
  521TIP3   OH2 1505   2.176   1.718   0.928
  521TIP3    H1 1506   2.100   1.677   0.969
  521TIP3    H2 1507   2.190   1.798   0.977
  522TIP3   OH2 1508   8.215   0.182   3.905
  522TIP3    H1 1509   8.259   0.158   3.824
  522TIP3    H2 1510   8.122   0.164   3.888
  523TIP3   OH2 1511   3.382   2.807   3.541
  523TIP3    H1 1512   3.475   2.792   3.521
  523TIP3    H2 1513   3.384   2.861   3.620
  524TIP3   OH2 1514   3.708   2.683   2.961
  524TIP3    H1 1515   3.718   2.717   2.872
  524TIP3    H2 1516   3.613   2.676   2.973
  525TIP3   OH2 1517   6.491   5.990   3.284
  525TIP3    H1 1518   6.480   6.064   3.224
  525TIP3    H2 1519   6.516   6.030   3.367
  526TIP3   OH2 1520   7.460   1.571   5.979
  526TIP3    H1 1521   7.504   1.488   5.995
  526TIP3    H2 1522   7.524   1.638   6.002
  527TIP3   OH2 1523   1.639   0.332   4.836
  527TIP3    H1 1524   1.665   0.307   4.925
  527TIP3    H2 1525   1.578   0.263   4.809
  528TIP3   OH2 1526   2.368   6.658   2.755
  528TIP3    H1 1527   2.379   6.689   2.665
  528TIP3    H2 1528   2.304   6.719   2.794
  529TIP3   OH2 1529   8.087   4.281   6.392
  529TIP3    H1 1530   8.067   4.372   6.414
  529TIP3    H2 1531   8.112   4.240   6.475
  530TIP3   OH2 1532   2.261   4.249   1.284
  530TIP3    H1 1533   2.350   4.274   1.257
  530TIP3    H2 1534   2.272   4.208   1.369
  531TIP3   OH2 1535   4.135   0.012   5.073
  531TIP3    H1 1536   4.204  -0.034   5.026
  531TIP3    H2 1537   4.148  -0.013   5.164
  532TIP3   OH2 1538   6.100   4.174   4.848
  532TIP3    H1 1539   6.005   4.186   4.839
  532TIP3    H2 1540   6.110   4.081   4.869
  533TIP3   OH2 1541   7.464   2.756   3.117
  533TIP3    H1 1542   7.421   2.780   3.035
  533TIP3    H2 1543   7.407   2.688   3.154
  534TIP3   OH2 1544   5.054   1.924   4.385
  534TIP3    H1 1545   4.960   1.908   4.387
  534TIP3    H2 1546   5.079   1.909   4.293
  535TIP3   OH2 1547   2.774   5.092   5.785
  535TIP3    H1 1548   2.813   5.168   5.828
  535TIP3    H2 1549   2.689   5.123   5.755
  536TIP3   OH2 1550   6.392   0.961   0.812
  536TIP3    H1 1551   6.438   0.925   0.737
  536TIP3    H2 1552   6.318   0.902   0.826
  537TIP3   OH2 1553   4.489   5.821   2.832
  537TIP3    H1 1554   4.451   5.810   2.919
  537TIP3    H2 1555   4.502   5.915   2.823
  538TIP3   OH2 1556   1.167   7.525   5.014
  538TIP3    H1 1557   1.156   7.589   5.084
  538TIP3    H2 1558   1.165   7.440   5.057
  539TIP3   OH2 1559   4.621   7.551   0.898
  539TIP3    H1 1560   4.679   7.578   0.826
  539TIP3    H2 1561   4.533   7.561   0.862
  540TIP3   OH2 1562   1.621   1.535   4.062
  540TIP3    H1 1563   1.625   1.586   3.981
  540TIP3    H2 1564   1.685   1.466   4.051
  541TIP3   OH2 1565   5.666   0.427   1.345
  541TIP3    H1 1566   5.638   0.340   1.316
  541TIP3    H2 1567   5.584   0.477   1.352
  542TIP3   OH2 1568   4.123   6.520   2.935
  542TIP3    H1 1569   4.041   6.541   2.980
  542TIP3    H2 1570   4.100   6.522   2.842
  543TIP3   OH2 1571   3.812   1.544   1.124
  543TIP3    H1 1572   3.777   1.468   1.077
  543TIP3    H2 1573   3.734   1.593   1.151
  544TIP3   OH2 1574   7.263   7.303   3.089
  544TIP3    H1 1575   7.332   7.336   3.032
  544TIP3    H2 1576   7.235   7.221   3.048
  545TIP3   OH2 1577   1.871   4.689   3.527
  545TIP3    H1 1578   1.884   4.626   3.597
  545TIP3    H2 1579   1.778   4.711   3.532
  546TIP3   OH2 1580   1.019   3.331   4.419
  546TIP3    H1 1581   1.073   3.398   4.461
  546TIP3    H2 1582   1.022   3.256   4.479
  547TIP3   OH2 1583   7.369   1.638   0.764
  547TIP3    H1 1584   7.274   1.631   0.756
  547TIP3    H2 1585   7.388   1.621   0.856
  548TIP3   OH2 1586   1.616   1.042   0.426
  548TIP3    H1 1587   1.564   1.113   0.389
  548TIP3    H2 1588   1.700   1.049   0.381
  549TIP3   OH2 1589   2.584   3.849   3.164
  549TIP3    H1 1590   2.571   3.762   3.202
  549TIP3    H2 1591   2.547   3.841   3.076
  550TIP3   OH2 1592   6.783   6.167   3.973
  550TIP3    H1 1593   6.717   6.234   3.952
  550TIP3    H2 1594   6.842   6.167   3.898
  551TIP3   OH2 1595   0.077   3.615   3.363
  551TIP3    H1 1596   0.032   3.532   3.379
  551TIP3    H2 1597   0.067   3.631   3.269
  552TIP3   OH2 1598   1.635   3.939   1.094
  552TIP3    H1 1599   1.611   3.908   1.006
  552TIP3    H2 1600   1.717   3.986   1.081
  553TIP3   OH2 1601   2.727   6.249   2.045
  553TIP3    H1 1602   2.757   6.171   2.093
  553TIP3    H2 1603   2.795   6.315   2.061
  554TIP3   OH2 1604   7.949   3.655   5.680
  554TIP3    H1 1605   7.868   3.678   5.725
  554TIP3    H2 1606   7.936   3.686   5.590
  555TIP3   OH2 1607   3.633   6.355   1.199
  555TIP3    H1 1608   3.654   6.318   1.284
  555TIP3    H2 1609   3.669   6.293   1.136
  556TIP3   OH2 1610   2.328   1.388   1.113
  556TIP3    H1 1611   2.353   1.386   1.205
  556TIP3    H2 1612   2.313   1.481   1.094
  557TIP3   OH2 1613   6.006   2.098   0.099
  557TIP3    H1 1614   6.026   2.044   0.176
  557TIP3    H2 1615   5.919   2.069   0.072
  558TIP3   OH2 1616   6.376   2.759   1.716
  558TIP3    H1 1617   6.327   2.836   1.747
  558TIP3    H2 1618   6.457   2.760   1.767
  559TIP3   OH2 1619   5.114   0.711   6.610
  559TIP3    H1 1620   5.078   0.624   6.598
  559TIP3    H2 1621   5.135   0.716   6.703
  560TIP3   OH2 1622   8.027   7.239   3.686
  560TIP3    H1 1623   7.987   7.183   3.619
  560TIP3    H2 1624   7.954   7.288   3.723
  561TIP3   OH2 1625   3.472   7.440   0.758
  561TIP3    H1 1626   3.513   7.513   0.806
  561TIP3    H2 1627   3.498   7.362   0.807
  562TIP3   OH2 1628   3.634   3.273   3.923
  562TIP3    H1 1629   3.594   3.356   3.898
  562TIP3    H2 1630   3.638   3.223   3.842
  563TIP3   OH2 1631   5.886   2.002   6.652
  563TIP3    H1 1632   5.809   1.991   6.707
  563TIP3    H2 1633   5.941   1.927   6.672
  564TIP3   OH2 1634   5.604   2.837   2.879
  564TIP3    H1 1635   5.619   2.857   2.972
  564TIP3    H2 1636   5.609   2.741   2.874
  565TIP3   OH2 1637   6.133   4.149   3.794
  565TIP3    H1 1638   6.162   4.059   3.812
  565TIP3    H2 1639   6.042   4.140   3.766
  566TIP3   OH2 1640   6.526   3.811   4.140
  566TIP3    H1 1641   6.465   3.874   4.101
  566TIP3    H2 1642   6.568   3.859   4.212
  567TIP3   OH2 1643   0.606   1.825   6.383
  567TIP3    H1 1644   0.671   1.773   6.431
  567TIP3    H2 1645   0.538   1.845   6.448
  568TIP3   OH2 1646   4.775   5.911   6.045
  568TIP3    H1 1647   4.695   5.954   6.077
  568TIP3    H2 1648   4.746   5.822   6.024
  569TIP3   OH2 1649   1.926   7.024   4.148
  569TIP3    H1 1650   1.928   6.931   4.169
  569TIP3    H2 1651   1.833   7.045   4.139
  570TIP3   OH2 1652   0.103   1.658   0.105
  570TIP3    H1 1653   0.102   1.697   0.193
  570TIP3    H2 1654   0.062   1.573   0.116
  571TIP3   OH2 1655   6.695   3.965   3.828
  571TIP3    H1 1656   6.610   3.939   3.792
  571TIP3    H2 1657   6.729   4.030   3.766
  572TIP3   OH2 1658   0.335   1.030   5.703
  572TIP3    H1 1659   0.318   1.090   5.776
  572TIP3    H2 1660   0.324   0.943   5.741
  573TIP3   OH2 1661   5.836   1.471   5.609
  573TIP3    H1 1662   5.923   1.486   5.572
  573TIP3    H2 1663   5.777   1.522   5.554
  574TIP3   OH2 1664   1.071   2.747   5.523
  574TIP3    H1 1665   1.005   2.810   5.496
  574TIP3    H2 1666   1.090   2.769   5.615
  575TIP3   OH2 1667   5.807   0.365   6.610
  575TIP3    H1 1668   5.829   0.395   6.521
  575TIP3    H2 1669   5.889   0.369   6.658
  576TIP3   OH2 1670   2.721   5.260   3.143
  576TIP3    H1 1671   2.808   5.230   3.117
  576TIP3    H2 1672   2.662   5.188   3.121
  577TIP3   OH2 1673   8.134   2.164   0.954
  577TIP3    H1 1674   8.038   2.158   0.951
  577TIP3    H2 1675   8.161   2.162   0.863
  578TIP3   OH2 1676   7.296   0.308   1.928
  578TIP3    H1 1677   7.229   0.371   1.955
  578TIP3    H2 1678   7.264   0.224   1.961
  579TIP3   OH2 1679   2.063   2.451   2.121
  579TIP3    H1 1680   2.097   2.427   2.207
  579TIP3    H2 1681   2.035   2.542   2.130
  580TIP3   OH2 1682   6.909   0.095   1.479
  580TIP3    H1 1683   6.848   0.155   1.522
  580TIP3    H2 1684   6.988   0.147   1.465
  581TIP3   OH2 1685   3.539   3.140   5.057
  581TIP3    H1 1686   3.576   3.208   5.001
  581TIP3    H2 1687   3.614   3.104   5.105
  582TIP3   OH2 1688   0.710   1.523   2.014
  582TIP3    H1 1689   0.636   1.578   1.988
  582TIP3    H2 1690   0.700   1.444   1.960
  583TIP3   OH2 1691   5.909   6.579   5.010
  583TIP3    H1 1692   5.856   6.634   5.068
  583TIP3    H2 1693   5.962   6.640   4.959
  584TIP3   OH2 1694   3.779   3.429   5.108
  584TIP3    H1 1695   3.727   3.510   5.104
  584TIP3    H2 1696   3.729   3.366   5.056
  585TIP3   OH2 1697   3.862   4.787   5.673
  585TIP3    H1 1698   3.931   4.743   5.723
  585TIP3    H2 1699   3.906   4.819   5.594
  586TIP3   OH2 1700   6.670   0.324   3.606
  586TIP3    H1 1701   6.641   0.235   3.623
  586TIP3    H2 1702   6.716   0.350   3.686
  587TIP3   OH2 1703   0.822   0.110   5.263
  587TIP3    H1 1704   0.891   0.143   5.205
  587TIP3    H2 1705   0.769   0.053   5.208
  588TIP3   OH2 1706   8.117   4.571   6.149
  588TIP3    H1 1707   8.032   4.604   6.121
  588TIP3    H2 1708   8.115   4.577   6.245
  589TIP3   OH2 1709   7.324   3.572   6.303
  589TIP3    H1 1710   7.307   3.665   6.318
  589TIP3    H2 1711   7.419   3.563   6.311
  590TIP3   OH2 1712   2.855   1.873   5.298
  590TIP3    H1 1713   2.819   1.941   5.355
  590TIP3    H2 1714   2.950   1.880   5.309
  591TIP3   OH2 1715   0.965   1.677   5.798
  591TIP3    H1 1716   0.999   1.637   5.718
  591TIP3    H2 1717   1.038   1.727   5.834
  592TIP3   OH2 1718   4.508   6.738   1.131
  592TIP3    H1 1719   4.437   6.676   1.113
  592TIP3    H2 1720   4.484   6.779   1.214
  593TIP3   OH2 1721   3.369   1.801   1.806
  593TIP3    H1 1722   3.287   1.794   1.758
  593TIP3    H2 1723   3.434   1.760   1.749
  594TIP3   OH2 1724   2.477   3.776   4.489
  594TIP3    H1 1725   2.460   3.765   4.396
  594TIP3    H2 1726   2.547   3.841   4.493
  595TIP3   OH2 1727   3.074   7.168   6.653
  595TIP3    H1 1728   3.036   7.082   6.637
  595TIP3    H2 1729   2.998   7.227   6.658
  596TIP3   OH2 1730   3.596   3.872   6.668
  596TIP3    H1 1731   3.504   3.878   6.641
  596TIP3    H2 1732   3.619   3.780   6.655
  597TIP3   OH2 1733   0.992   4.213   1.547
  597TIP3    H1 1734   0.910   4.175   1.578
  597TIP3    H2 1735   1.060   4.160   1.589
  598TIP3   OH2 1736   7.946   4.488   0.803
  598TIP3    H1 1737   7.852   4.493   0.824
  598TIP3    H2 1738   7.967   4.574   0.766
  599TIP3   OH2 1739   2.416   5.744   5.421
  599TIP3    H1 1740   2.385   5.764   5.332
  599TIP3    H2 1741   2.355   5.789   5.479
  600TIP3   OH2 1742   3.855   3.843   0.146
  600TIP3    H1 1743   3.847   3.937   0.160
  600TIP3    H2 1744   3.813   3.828   0.061
  601TIP3   OH2 1745   6.537   2.441   3.934
  601TIP3    H1 1746   6.520   2.516   3.876
  601TIP3    H2 1747   6.627   2.454   3.964
  602TIP3   OH2 1748   4.056   0.925   6.619
  602TIP3    H1 1749   4.015   0.959   6.540
  602TIP3    H2 1750   4.097   0.843   6.592
  603TIP3   OH2 1751   4.945   4.136   4.661
  603TIP3    H1 1752   4.858   4.139   4.621
  603TIP3    H2 1753   5.001   4.187   4.603
  604TIP3   OH2 1754   0.839   2.429   4.179
  604TIP3    H1 1755   0.811   2.516   4.207
  604TIP3    H2 1756   0.790   2.369   4.235
  605TIP3   OH2 1757   6.088   5.056   0.154
  605TIP3    H1 1758   6.166   5.075   0.103
  605TIP3    H2 1759   6.071   5.136   0.204
  606TIP3   OH2 1760   0.886   4.153   1.861
  606TIP3    H1 1761   0.952   4.220   1.841
  606TIP3    H2 1762   0.826   4.156   1.786
  607TIP3   OH2 1763   6.438   5.141   2.805
  607TIP3    H1 1764   6.457   5.152   2.712
  607TIP3    H2 1765   6.425   5.229   2.838
  608TIP3   OH2 1766   2.769   2.236   0.944
  608TIP3    H1 1767   2.698   2.275   0.995
  608TIP3    H2 1768   2.782   2.149   0.983
  609TIP3   OH2 1769   0.665   6.182   0.328
  609TIP3    H1 1770   0.750   6.210   0.294
  609TIP3    H2 1771   0.642   6.248   0.393
  610TIP3   OH2 1772   5.646   1.650   5.485
  610TIP3    H1 1773   5.641   1.724   5.546
  610TIP3    H2 1774   5.555   1.628   5.467
  611TIP3   OH2 1775   3.661   0.282   3.116
  611TIP3    H1 1776   3.682   0.221   3.045
  611TIP3    H2 1777   3.591   0.238   3.165
  612TIP3   OH2 1778   3.427   5.169   2.092
  612TIP3    H1 1779   3.340   5.180   2.130
  612TIP3    H2 1780   3.450   5.078   2.110
  613TIP3   OH2 1781   0.191   0.442   4.288
  613TIP3    H1 1782   0.205   0.535   4.268
  613TIP3    H2 1783   0.214   0.396   4.208
  614TIP3   OH2 1784   0.921   0.618   6.377
  614TIP3    H1 1785   0.871   0.569   6.311
  614TIP3    H2 1786   0.899   0.710   6.360
  615TIP3   OH2 1787   3.972   5.008   0.783
  615TIP3    H1 1788   4.065   5.024   0.770
  615TIP3    H2 1789   3.958   4.918   0.752
  616TIP3   OH2 1790   6.564   2.053   5.977
  616TIP3    H1 1791   6.527   2.011   6.055
  616TIP3    H2 1792   6.492   2.103   5.941
  617TIP3   OH2 1793   7.939   0.120   3.911
  617TIP3    H1 1794   7.895   0.182   3.852
  617TIP3    H2 1795   7.882   0.117   3.988
  618TIP3   OH2 1796   5.899   3.708   4.551
  618TIP3    H1 1797   5.849   3.766   4.493
  618TIP3    H2 1798   5.838   3.638   4.574
  619TIP3   OH2 1799   7.460   2.012   1.761
  619TIP3    H1 1800   7.478   2.004   1.668
  619TIP3    H2 1801   7.394   2.082   1.767
  620TIP3   OH2 1802   7.478   1.653   6.384
  620TIP3    H1 1803   7.554   1.710   6.397
  620TIP3    H2 1804   7.472   1.602   6.466
  621TIP3   OH2 1805   4.597   2.019   2.852
  621TIP3    H1 1806   4.624   1.930   2.875
  621TIP3    H2 1807   4.665   2.051   2.794
  622TIP3   OH2 1808   7.070   7.600   2.944
  622TIP3    H1 1809   7.007   7.553   2.889
  622TIP3    H2 1810   7.118   7.656   2.883
  623TIP3   OH2 1811   0.262   4.856   6.544
  623TIP3    H1 1812   0.209   4.854   6.464
  623TIP3    H2 1813   0.228   4.929   6.595
  624TIP3   OH2 1814   7.409   3.446   3.504
  624TIP3    H1 1815   7.450   3.496   3.434
  624TIP3    H2 1816   7.429   3.355   3.483
  625TIP3   OH2 1817   0.382   4.514   2.004
  625TIP3    H1 1818   0.359   4.580   1.939
  625TIP3    H2 1819   0.475   4.530   2.022
  626TIP3   OH2 1820   0.396   0.145   1.643
  626TIP3    H1 1821   0.459   0.076   1.622
  626TIP3    H2 1822   0.402   0.206   1.570
  627TIP3   OH2 1823   0.216   7.190   2.581
  627TIP3    H1 1824   0.235   7.097   2.575
  627TIP3    H2 1825   0.187   7.203   2.671
  628TIP3   OH2 1826   1.562   5.092   4.415
  628TIP3    H1 1827   1.495   5.128   4.473
  628TIP3    H2 1828   1.638   5.150   4.425
  629TIP3   OH2 1829   3.566   7.123   0.164
  629TIP3    H1 1830   3.657   7.096   0.180
  629TIP3    H2 1831   3.517   7.041   0.158
  630TIP3   OH2 1832   1.601   7.641   6.685
  630TIP3    H1 1833   1.522   7.599   6.719
  630TIP3    H2 1834   1.662   7.639   6.759
  631TIP3   OH2 1835   6.748   6.865   6.634
  631TIP3    H1 1836   6.728   6.772   6.639
  631TIP3    H2 1837   6.694   6.897   6.562
  632TIP3   OH2 1838   6.642   5.501   6.696
  632TIP3    H1 1839   6.674   5.491   6.786
  632TIP3    H2 1840   6.649   5.413   6.660
  633TIP3   OH2 1841   0.582   5.790   4.568
  633TIP3    H1 1842   0.520   5.759   4.501
  633TIP3    H2 1843   0.529   5.798   4.647
  634TIP3   OH2 1844   2.976   3.968   0.623
  634TIP3    H1 1845   3.008   3.885   0.659
  634TIP3    H2 1846   2.980   4.029   0.697
  635TIP3   OH2 1847   3.843   3.994   2.210
  635TIP3    H1 1848   3.905   3.920   2.214
  635TIP3    H2 1849   3.789   3.984   2.289
  636TIP3   OH2 1850   4.391   3.158   2.300
  636TIP3    H1 1851   4.358   3.154   2.210
  636TIP3    H2 1852   4.486   3.161   2.291
  637TIP3   OH2 1853   6.877   6.123   1.649
  637TIP3    H1 1854   6.950   6.170   1.688
  637TIP3    H2 1855   6.880   6.147   1.556
  638TIP3   OH2 1856   1.635   5.645   3.646
  638TIP3    H1 1857   1.612   5.718   3.703
  638TIP3    H2 1858   1.721   5.667   3.611
  639TIP3   OH2 1859   1.077   5.000   6.238
  639TIP3    H1 1860   1.156   5.052   6.224
  639TIP3    H2 1861   1.101   4.937   6.307
  640TIP3   OH2 1862   7.449   5.073   2.764
  640TIP3    H1 1863   7.443   5.143   2.699
  640TIP3    H2 1864   7.467   5.118   2.846
  641TIP3   OH2 1865   6.545   6.716   1.708
  641TIP3    H1 1866   6.505   6.653   1.648
  641TIP3    H2 1867   6.472   6.749   1.760
  642TIP3   OH2 1868   5.645   5.671   5.205
  642TIP3    H1 1869   5.565   5.638   5.247
  642TIP3    H2 1870   5.687   5.592   5.170
  643TIP3   OH2 1871   0.698   5.684   4.128
  643TIP3    H1 1872   0.627   5.747   4.133
  643TIP3    H2 1873   0.758   5.709   4.198
  644TIP3   OH2 1874   0.051   6.323   1.219
  644TIP3    H1 1875  -0.022   6.381   1.238
  644TIP3    H2 1876   0.036   6.246   1.274
  645TIP3   OH2 1877   3.861   4.941   6.323
  645TIP3    H1 1878   3.929   5.002   6.352
  645TIP3    H2 1879   3.798   4.940   6.395
  646TIP3   OH2 1880   7.620   0.720   0.896
  646TIP3    H1 1881   7.535   0.721   0.852
  646TIP3    H2 1882   7.619   0.798   0.951
  647TIP3   OH2 1883   3.700   0.678   1.721
  647TIP3    H1 1884   3.665   0.727   1.795
  647TIP3    H2 1885   3.622   0.651   1.671
  648TIP3   OH2 1886   0.796   6.564   0.655
  648TIP3    H1 1887   0.763   6.633   0.712
  648TIP3    H2 1888   0.878   6.599   0.619
  649TIP3   OH2 1889   6.072   2.183   3.978
  649TIP3    H1 1890   6.071   2.236   3.897
  649TIP3    H2 1891   5.987   2.139   3.978
  650TIP3   OH2 1892   5.108   3.990   2.674
  650TIP3    H1 1893   5.124   3.979   2.580
  650TIP3    H2 1894   5.074   4.079   2.681
  651TIP3   OH2 1895   5.712   7.660   4.982
  651TIP3    H1 1896   5.746   7.735   4.934
  651TIP3    H2 1897   5.773   7.589   4.963
  652TIP3   OH2 1898   0.371   7.331   2.825
  652TIP3    H1 1899   0.443   7.336   2.763
  652TIP3    H2 1900   0.344   7.238   2.824
  653TIP3   OH2 1901   4.657   5.015   2.301
  653TIP3    H1 1902   4.590   5.078   2.328
  653TIP3    H2 1903   4.695   5.053   2.222
  654TIP3   OH2 1904   7.786   3.280   0.698
  654TIP3    H1 1905   7.804   3.186   0.706
  654TIP3    H2 1906   7.715   3.285   0.633
  655TIP3   OH2 1907   6.195   5.964   0.237
  655TIP3    H1 1908   6.248   5.901   0.286
  655TIP3    H2 1909   6.257   6.009   0.179
  656TIP3   OH2 1910   3.691   3.251   6.531
  656TIP3    H1 1911   3.746   3.190   6.483
  656TIP3    H2 1912   3.718   3.338   6.499
  657TIP3   OH2 1913   1.915   0.804   0.166
  657TIP3    H1 1914   1.913   0.861   0.242
  657TIP3    H2 1915   1.861   0.729   0.190
  658TIP3   OH2 1916   4.489   4.463   3.125
  658TIP3    H1 1917   4.471   4.374   3.158
  658TIP3    H2 1918   4.482   4.518   3.203
  659TIP3   OH2 1919   6.150   0.476   1.060
  659TIP3    H1 1920   6.156   0.457   0.967
  659TIP3    H2 1921   6.186   0.565   1.069
  660TIP3   OH2 1922   2.059   0.752   6.231
  660TIP3    H1 1923   2.044   0.847   6.236
  660TIP3    H2 1924   2.047   0.731   6.139
  661TIP3   OH2 1925   6.507   5.719   0.901
  661TIP3    H1 1926   6.486   5.704   0.809
  661TIP3    H2 1927   6.483   5.810   0.916
  662TIP3   OH2 1928   3.091   5.726   5.946
  662TIP3    H1 1929   3.000   5.726   5.976
  662TIP3    H2 1930   3.084   5.720   5.850
  663TIP3   OH2 1931   1.499   0.903   4.485
  663TIP3    H1 1932   1.484   0.819   4.529
  663TIP3    H2 1933   1.473   0.969   4.550
  664TIP3   OH2 1934   7.763   4.751   2.312
  664TIP3    H1 1935   7.843   4.792   2.348
  664TIP3    H2 1936   7.762   4.663   2.350
  665TIP3   OH2 1937   7.665   3.581   1.596
  665TIP3    H1 1938   7.745   3.628   1.571
  665TIP3    H2 1939   7.601   3.650   1.612
  666TIP3   OH2 1940   7.522   2.445   1.713
  666TIP3    H1 1941   7.584   2.372   1.705
  666TIP3    H2 1942   7.549   2.491   1.793
  667TIP3   OH2 1943   5.425   3.268   0.469
  667TIP3    H1 1944   5.439   3.357   0.439
  667TIP3    H2 1945   5.332   3.263   0.488
  668TIP3   OH2 1946   0.907   4.126   1.155
  668TIP3    H1 1947   0.838   4.106   1.092
  668TIP3    H2 1948   0.907   4.051   1.215
  669TIP3   OH2 1949   4.405   0.565   6.587
  669TIP3    H1 1950   4.495   0.595   6.573
  669TIP3    H2 1951   4.370   0.551   6.499
  670TIP3   OH2 1952   6.528   3.187   0.964
  670TIP3    H1 1953   6.524   3.170   1.058
  670TIP3    H2 1954   6.598   3.130   0.931
  671TIP3   OH2 1955   2.322   4.816   0.298
  671TIP3    H1 1956   2.298   4.743   0.242
  671TIP3    H2 1957   2.363   4.879   0.240
  672TIP3   OH2 1958   3.309   7.475   5.756
  672TIP3    H1 1959   3.389   7.430   5.781
  672TIP3    H2 1960   3.239   7.431   5.805
  673TIP3   OH2 1961   7.303   7.802   4.876
  673TIP3    H1 1962   7.295   7.727   4.817
  673TIP3    H2 1963   7.265   7.875   4.828
  674TIP3   OH2 1964   7.671   2.798   1.392
  674TIP3    H1 1965   7.654   2.859   1.320
  674TIP3    H2 1966   7.633   2.840   1.469
  675TIP3   OH2 1967   0.642   3.763   5.509
  675TIP3    H1 1968   0.640   3.776   5.414
  675TIP3    H2 1969   0.732   3.782   5.534
  676TIP3   OH2 1970   0.625   7.009   3.122
  676TIP3    H1 1971   0.610   7.053   3.038
  676TIP3    H2 1972   0.540   6.972   3.146
  677TIP3   OH2 1973   3.878   7.346   1.015
  677TIP3    H1 1974   3.970   7.323   1.023
  677TIP3    H2 1975   3.872   7.435   1.051
  678TIP3   OH2 1976   1.620   0.647   3.986
  678TIP3    H1 1977   1.713   0.667   3.979
  678TIP3    H2 1978   1.616   0.563   4.031
  679TIP3   OH2 1979   0.041   5.372   1.192
  679TIP3    H1 1980   0.027   5.466   1.208
  679TIP3    H2 1981   0.101   5.369   1.118
  680TIP3   OH2 1982   4.508   0.306   3.507
  680TIP3    H1 1983   4.596   0.311   3.542
  680TIP3    H2 1984   4.451   0.299   3.583
  681TIP3   OH2 1985   2.316   7.083   4.380
  681TIP3    H1 1986   2.360   7.127   4.308
  681TIP3    H2 1987   2.341   6.991   4.370
  682TIP3   OH2 1988   4.602   1.679   1.623
  682TIP3    H1 1989   4.666   1.725   1.677
  682TIP3    H2 1990   4.523   1.733   1.628
  683TIP3   OH2 1991   1.754   6.765   6.245
  683TIP3    H1 1992   1.849   6.765   6.236
  683TIP3    H2 1993   1.724   6.834   6.186
  684TIP3   OH2 1994   4.233   4.004   5.434
  684TIP3    H1 1995   4.246   3.911   5.414
  684TIP3    H2 1996   4.165   4.005   5.502
  685TIP3   OH2 1997   2.944   5.551   2.124
  685TIP3    H1 1998   2.951   5.455   2.127
  685TIP3    H2 1999   2.963   5.573   2.033
  686TIP3   OH2 2000   4.510   1.876   4.716
  686TIP3    H1 2001   4.482   1.890   4.625
  686TIP3    H2 2002   4.442   1.821   4.755
  687TIP3   OH2 2003   0.964   2.460   0.737
  687TIP3    H1 2004   0.966   2.512   0.656
  687TIP3    H2 2005   0.914   2.514   0.798
  688TIP3   OH2 2006   1.723   1.802   2.327
  688TIP3    H1 2007   1.660   1.851   2.275
  688TIP3    H2 2008   1.703   1.826   2.418
  689TIP3   OH2 2009   7.056   0.683   2.451
  689TIP3    H1 2010   7.099   0.699   2.534
  689TIP3    H2 2011   7.081   0.594   2.427
  690TIP3   OH2 2012   1.327   5.414   0.523
  690TIP3    H1 2013   1.322   5.338   0.465
  690TIP3    H2 2014   1.420   5.434   0.529
  691TIP3   OH2 2015   1.895   1.988   2.632
  691TIP3    H1 2016   1.799   1.991   2.630
  691TIP3    H2 2017   1.920   1.971   2.541
  692TIP3   OH2 2018   0.234   6.308   0.718
  692TIP3    H1 2019   0.194   6.225   0.745
  692TIP3    H2 2020   0.196   6.326   0.632
  693TIP3   OH2 2021   1.197   6.118   2.626
  693TIP3    H1 2022   1.227   6.088   2.540
  693TIP3    H2 2023   1.182   6.212   2.614
  694TIP3   OH2 2024   2.845   2.569   0.607
  694TIP3    H1 2025   2.937   2.559   0.581
  694TIP3    H2 2026   2.796   2.520   0.541
  695TIP3   OH2 2027   3.802   1.648   5.825
  695TIP3    H1 2028   3.897   1.642   5.835
  695TIP3    H2 2029   3.772   1.557   5.823
  696TIP3   OH2 2030   4.134   2.187   5.801
  696TIP3    H1 2031   4.172   2.247   5.737
  696TIP3    H2 2032   4.181   2.104   5.785
  697TIP3   OH2 2033   1.084   5.107   1.132
  697TIP3    H1 2034   1.177   5.109   1.113
  697TIP3    H2 2035   1.051   5.193   1.105
  698TIP3   OH2 2036   5.132   3.476   3.594
  698TIP3    H1 2037   5.132   3.536   3.519
  698TIP3    H2 2038   5.173   3.526   3.664
  699TIP3   OH2 2039   4.986   6.522   0.436
  699TIP3    H1 2040   4.992   6.607   0.481
  699TIP3    H2 2041   4.896   6.518   0.404
  700TIP3   OH2 2042   2.953   5.585   1.857
  700TIP3    H1 2043   2.983   5.507   1.811
  700TIP3    H2 2044   2.965   5.656   1.794
  701TIP3   OH2 2045   0.880   2.097   3.039
  701TIP3    H1 2046   0.879   2.004   3.059
  701TIP3    H2 2047   0.894   2.101   2.944
  702TIP3   OH2 2048   1.176   6.419   2.285
  702TIP3    H1 2049   1.253   6.363   2.276
  702TIP3    H2 2050   1.191   6.468   2.366
  703TIP3   OH2 2051   1.419   5.268   4.571
  703TIP3    H1 2052   1.429   5.360   4.545
  703TIP3    H2 2053   1.436   5.268   4.665
  704TIP3   OH2 2054   1.583   5.493   0.680
  704TIP3    H1 2055   1.616   5.407   0.655
  704TIP3    H2 2056   1.589   5.495   0.776
  705TIP3   OH2 2057   0.105   1.711   2.459
  705TIP3    H1 2058   0.154   1.781   2.415
  705TIP3    H2 2059   0.092   1.743   2.548
  706TIP3   OH2 2060   4.792   6.759   6.019
  706TIP3    H1 2061   4.766   6.782   6.108
  706TIP3    H2 2062   4.809   6.665   6.023
  707TIP3   OH2 2063   5.856   4.187   1.007
  707TIP3    H1 2064   5.773   4.233   1.019
  707TIP3    H2 2065   5.834   4.113   0.950
  708TIP3   OH2 2066   5.451   2.624   5.574
  708TIP3    H1 2067   5.539   2.603   5.544
  708TIP3    H2 2068   5.463   2.697   5.635
  709TIP3   OH2 2069   4.914   0.902   5.807
  709TIP3    H1 2070   4.954   0.838   5.866
  709TIP3    H2 2071   4.917   0.984   5.855
  710TIP3   OH2 2072   3.096   3.109   0.714
  710TIP3    H1 2073   3.104   3.148   0.627
  710TIP3    H2 2074   3.056   3.024   0.698
  711TIP3   OH2 2075   7.053   5.845   6.415
  711TIP3    H1 2076   7.007   5.871   6.336
  711TIP3    H2 2077   6.997   5.777   6.454
  712TIP3   OH2 2078   4.151   0.730   0.135
  712TIP3    H1 2079   4.119   0.657   0.082
  712TIP3    H2 2080   4.245   0.716   0.142
  713TIP3   OH2 2081   6.671   6.854   2.208
  713TIP3    H1 2082   6.613   6.787   2.245
  713TIP3    H2 2083   6.661   6.844   2.113
  714TIP3   OH2 2084   1.901   3.649   3.587
  714TIP3    H1 2085   1.950   3.662   3.506
  714TIP3    H2 2086   1.929   3.563   3.618
  715TIP3   OH2 2087   4.376   6.403   3.363
  715TIP3    H1 2088   4.342   6.401   3.274
  715TIP3    H2 2089   4.361   6.493   3.393
  716TIP3   OH2 2090   6.767   5.250   6.360
  716TIP3    H1 2091   6.784   5.156   6.369
  716TIP3    H2 2092   6.731   5.276   6.445
  717TIP3   OH2 2093   8.143   0.831   1.088
  717TIP3    H1 2094   8.139   0.893   1.015
  717TIP3    H2 2095   8.052   0.820   1.115
  718TIP3   OH2 2096   4.502   6.173   4.800
  718TIP3    H1 2097   4.486   6.079   4.804
  718TIP3    H2 2098   4.597   6.182   4.813
  719TIP3   OH2 2099   1.558   0.299   3.319
  719TIP3    H1 2100   1.643   0.282   3.279
  719TIP3    H2 2101   1.537   0.219   3.366
  720TIP3   OH2 2102   5.388   0.114   4.788
  720TIP3    H1 2103   5.466   0.160   4.757
  720TIP3    H2 2104   5.415   0.073   4.870
  721TIP3   OH2 2105   5.517   4.228   6.060
  721TIP3    H1 2106   5.612   4.218   6.063
  721TIP3    H2 2107   5.502   4.298   5.998
  722TIP3   OH2 2108   2.888   0.837   4.291
  722TIP3    H1 2109   2.913   0.757   4.337
  722TIP3    H2 2110   2.963   0.896   4.304
  723TIP3   OH2 2111   7.810   7.566   1.102
  723TIP3    H1 2112   7.738   7.514   1.138
  723TIP3    H2 2113   7.872   7.573   1.174
  724TIP3   OH2 2114   3.647   1.985   5.249
  724TIP3    H1 2115   3.678   2.059   5.301
  724TIP3    H2 2116   3.603   2.025   5.174
  725TIP3   OH2 2117   7.566   5.457   2.986
  725TIP3    H1 2118   7.648   5.497   3.017
  725TIP3    H2 2119   7.538   5.402   3.060
  726TIP3   OH2 2120   5.174   2.768   5.749
  726TIP3    H1 2121   5.124   2.823   5.688
  726TIP3    H2 2122   5.265   2.794   5.736
  727TIP3   OH2 2123   5.661   1.127   6.374
  727TIP3    H1 2124   5.736   1.070   6.356
  727TIP3    H2 2125   5.695   1.193   6.435
  728TIP3   OH2 2126   8.259   6.703   0.015
  728TIP3    H1 2127   8.211   6.629   0.052
  728TIP3    H2 2128   8.204   6.779   0.034
  729TIP3   OH2 2129   5.687   3.302   0.790
  729TIP3    H1 2130   5.663   3.228   0.736
  729TIP3    H2 2131   5.775   3.281   0.822
  730TIP3   OH2 2132   7.895   1.787   5.774
  730TIP3    H1 2133   7.851   1.702   5.775
  730TIP3    H2 2134   7.823   1.851   5.770
  731TIP3   OH2 2135   7.380   0.350   0.752
  731TIP3    H1 2136   7.345   0.331   0.666
  731TIP3    H2 2137   7.326   0.300   0.813
  732TIP3   OH2 2138   7.422   0.154   2.651
  732TIP3    H1 2139   7.436   0.098   2.574
  732TIP3    H2 2140   7.510   0.170   2.685
  733TIP3   OH2 2141   1.002   6.323   6.451
  733TIP3    H1 2142   0.913   6.293   6.431
  733TIP3    H2 2143   1.049   6.317   6.368
  734TIP3   OH2 2144   5.107   6.554   6.482
  734TIP3    H1 2145   5.189   6.570   6.435
  734TIP3    H2 2146   5.115   6.605   6.562
  735TIP3   OH2 2147   7.282   7.384   6.227
  735TIP3    H1 2148   7.344   7.420   6.163
  735TIP3    H2 2149   7.239   7.461   6.263
  736TIP3   OH2 2150   5.557   5.796   6.287
  736TIP3    H1 2151   5.606   5.755   6.216
  736TIP3    H2 2152   5.624   5.845   6.337
  737TIP3   OH2 2153   0.080   0.986   2.966
  737TIP3    H1 2154   0.094   0.906   2.915
  737TIP3    H2 2155   0.166   1.027   2.971
  738TIP3   OH2 2156   2.939   6.957   4.105
  738TIP3    H1 2157   2.957   6.873   4.063
  738TIP3    H2 2158   2.934   7.019   4.032
  739TIP3   OH2 2159   1.467   2.197   1.208
  739TIP3    H1 2160   1.445   2.114   1.249
  739TIP3    H2 2161   1.403   2.207   1.138
  740TIP3   OH2 2162   4.797   5.697   1.733
  740TIP3    H1 2163   4.712   5.654   1.732
  740TIP3    H2 2164   4.777   5.790   1.718
  741TIP3   OH2 2165   7.228   3.279   1.420
  741TIP3    H1 2166   7.237   3.233   1.336
  741TIP3    H2 2167   7.300   3.342   1.421
  742TIP3   OH2 2168   8.239   0.394   5.513
  742TIP3    H1 2169   8.225   0.472   5.459
  742TIP3    H2 2170   8.158   0.385   5.563
  743TIP3   OH2 2171   2.644   7.614   4.017
  743TIP3    H1 2172   2.594   7.617   4.098
  743TIP3    H2 2173   2.735   7.604   4.045
  744TIP3   OH2 2174   7.048   6.548   0.571
  744TIP3    H1 2175   7.067   6.641   0.558
  744TIP3    H2 2176   6.952   6.542   0.567
  745TIP3   OH2 2177   3.754   6.907   1.571
  745TIP3    H1 2178   3.699   6.903   1.493
  745TIP3    H2 2179   3.820   6.838   1.556
  746TIP3   OH2 2180   0.982   5.244   0.696
  746TIP3    H1 2181   1.034   5.235   0.616
  746TIP3    H2 2182   1.018   5.177   0.755
  747TIP3   OH2 2183   1.299   0.408   1.405
  747TIP3    H1 2184   1.249   0.398   1.486
  747TIP3    H2 2185   1.365   0.339   1.409
  748TIP3   OH2 2186   4.276   2.076   1.205
  748TIP3    H1 2187   4.361   2.109   1.233
  748TIP3    H2 2188   4.225   2.070   1.286
  749TIP3   OH2 2189   4.302   7.631   2.071
  749TIP3    H1 2190   4.216   7.613   2.033
  749TIP3    H2 2191   4.300   7.590   2.157
  750TIP3   OH2 2192   4.604   1.912   5.800
  750TIP3    H1 2193   4.664   1.847   5.838
  750TIP3    H2 2194   4.606   1.985   5.862
  751TIP3   OH2 2195   1.660   0.517   1.465
  751TIP3    H1 2196   1.618   0.481   1.387
  751TIP3    H2 2197   1.596   0.578   1.501
  752TIP3   OH2 2198   4.244   1.651   6.349
  752TIP3    H1 2199   4.241   1.579   6.286
  752TIP3    H2 2200   4.335   1.655   6.377
  753TIP3   OH2 2201   5.998   3.633   0.415
  753TIP3    H1 2202   6.049   3.676   0.347
  753TIP3    H2 2203   5.909   3.668   0.405
  754TIP3   OH2 2204   1.093   6.504   0.628
  754TIP3    H1 2205   1.058   6.577   0.577
  754TIP3    H2 2206   1.095   6.537   0.718
  755TIP3   OH2 2207   3.973   1.487   6.201
  755TIP3    H1 2208   3.908   1.442   6.146
  755TIP3    H2 2209   4.055   1.480   6.152
  756TIP3   OH2 2210   5.259   0.725   1.040
  756TIP3    H1 2211   5.227   0.718   1.130
  756TIP3    H2 2212   5.348   0.689   1.043
  757TIP3   OH2 2213   8.031   5.493   4.228
  757TIP3    H1 2214   8.027   5.418   4.168
  757TIP3    H2 2215   8.019   5.569   4.171
  758TIP3   OH2 2216   3.284   0.342   1.023
  758TIP3    H1 2217   3.275   0.433   1.049
  758TIP3    H2 2218   3.197   0.304   1.039
  759TIP3   OH2 2219   2.439   0.678   1.513
  759TIP3    H1 2220   2.395   0.704   1.593
  759TIP3    H2 2221   2.397   0.596   1.488
  760TIP3   OH2 2222   7.718   1.986   2.942
  760TIP3    H1 2223   7.792   1.997   3.002
  760TIP3    H2 2224   7.678   2.073   2.938
  761TIP3   OH2 2225   0.252   7.391   1.926
  761TIP3    H1 2226   0.164   7.355   1.938
  761TIP3    H2 2227   0.281   7.413   2.015
  762TIP3   OH2 2228   3.978   6.786   6.708
  762TIP3    H1 2229   4.031   6.816   6.634
  762TIP3    H2 2230   3.891   6.771   6.671
  763TIP3   OH2 2231   6.567   4.593   2.102
  763TIP3    H1 2232   6.643   4.652   2.104
  763TIP3    H2 2233   6.525   4.610   2.018
  764TIP3   OH2 2234   0.171   5.099   2.822
  764TIP3    H1 2235   0.243   5.132   2.876
  764TIP3    H2 2236   0.133   5.028   2.874
  765TIP3   OH2 2237   4.054   0.656   3.937
  765TIP3    H1 2238   4.104   0.738   3.941
  765TIP3    H2 2239   4.047   0.628   4.028
  766TIP3   OH2 2240   2.186   5.910   6.088
  766TIP3    H1 2241   2.093   5.910   6.107
  766TIP3    H2 2242   2.195   5.852   6.012
  767TIP3   OH2 2243   8.077   7.362   1.043
  767TIP3    H1 2244   8.003   7.421   1.036
  767TIP3    H2 2245   8.075   7.310   0.963
  768TIP3   OH2 2246   6.023   6.054   5.348
  768TIP3    H1 2247   5.992   6.057   5.439
  768TIP3    H2 2248   6.040   5.962   5.332
  769TIP3   OH2 2249   3.779   4.912   4.538
  769TIP3    H1 2250   3.867   4.883   4.561
  769TIP3    H2 2251   3.765   4.880   4.449
  770TIP3   OH2 2252   4.210   4.433   3.949
  770TIP3    H1 2253   4.172   4.514   3.917
  770TIP3    H2 2254   4.304   4.451   3.955
  771TIP3   OH2 2255   2.482   7.698   2.290
  771TIP3    H1 2256   2.537   7.650   2.228
  771TIP3    H2 2257   2.412   7.637   2.312
  772TIP3   OH2 2258   1.339   4.670   3.106
  772TIP3    H1 2259   1.287   4.595   3.136
  772TIP3    H2 2260   1.279   4.718   3.049
  773TIP3   OH2 2261   7.101   1.233   0.035
  773TIP3    H1 2262   7.061   1.319   0.050
  773TIP3    H2 2263   7.164   1.248  -0.036
  774TIP3   OH2 2264   7.413   2.456   1.200
  774TIP3    H1 2265   7.318   2.447   1.212
  774TIP3    H2 2266   7.446   2.366   1.202
  775TIP3   OH2 2267   0.992   0.827   2.051
  775TIP3    H1 2268   0.912   0.846   2.002
  775TIP3    H2 2269   0.961   0.799   2.137
  776TIP3   OH2 2270   1.439   4.988   6.113
  776TIP3    H1 2271   1.436   4.954   6.202
  776TIP3    H2 2272   1.347   4.989   6.084
  777TIP3   OH2 2273   5.577   0.903   4.784
  777TIP3    H1 2274   5.519   0.846   4.836
  777TIP3    H2 2275   5.532   0.987   4.782
  778TIP3   OH2 2276   7.089   0.223   2.354
  778TIP3    H1 2277   7.004   0.255   2.325
  778TIP3    H2 2278   7.130   0.189   2.275
  779TIP3   OH2 2279   5.318   4.157   0.995
  779TIP3    H1 2280   5.242   4.192   0.949
  779TIP3    H2 2281   5.390   4.167   0.933
  780TIP3   OH2 2282   0.432   2.626   3.573
  780TIP3    H1 2283   0.474   2.576   3.502
  780TIP3    H2 2284   0.368   2.681   3.528
  781TIP3   OH2 2285   0.417   3.553   0.717
  781TIP3    H1 2286   0.443   3.594   0.635
  781TIP3    H2 2287   0.337   3.505   0.696
  782TIP3   OH2 2288   4.664   6.473   2.678
  782TIP3    H1 2289   4.624   6.509   2.757
  782TIP3    H2 2290   4.653   6.541   2.612
  783TIP3   OH2 2291   4.702   3.789   0.636
  783TIP3    H1 2292   4.738   3.851   0.700
  783TIP3    H2 2293   4.768   3.720   0.629
  784TIP3   OH2 2294   7.516   3.933   0.732
  784TIP3    H1 2295   7.421   3.944   0.729
  784TIP3    H2 2296   7.534   3.892   0.816
  785TIP3   OH2 2297   3.847   5.090   4.288
  785TIP3    H1 2298   3.925   5.092   4.343
  785TIP3    H2 2299   3.816   4.999   4.294
  786TIP3   OH2 2300   2.252   1.883   0.202
  786TIP3    H1 2301   2.260   1.788   0.208
  786TIP3    H2 2302   2.163   1.902   0.232
  787TIP3   OH2 2303   5.200   5.115   2.859
  787TIP3    H1 2304   5.258   5.130   2.785
  787TIP3    H2 2305   5.150   5.196   2.868
  788TIP3   OH2 2306   1.783   4.417   6.215
  788TIP3    H1 2307   1.859   4.369   6.251
  788TIP3    H2 2308   1.821   4.495   6.175
  789TIP3   OH2 2309   3.684   4.238   0.348
  789TIP3    H1 2310   3.741   4.230   0.425
  789TIP3    H2 2311   3.690   4.330   0.323
  790TIP3   OH2 2312   0.037   6.393   1.802
  790TIP3    H1 2313   0.006   6.383   1.713
  790TIP3    H2 2314   0.129   6.419   1.793
  791TIP3   OH2 2315   0.812   7.214   3.094
  791TIP3    H1 2316   0.867   7.174   3.027
  791TIP3    H2 2317   0.777   7.141   3.144
  792TIP3   OH2 2318   0.717   0.398   4.676
  792TIP3    H1 2319   0.708   0.385   4.582
  792TIP3    H2 2320   0.707   0.310   4.713
  793TIP3   OH2 2321   4.491   1.117   0.488
  793TIP3    H1 2322   4.558   1.139   0.552
  793TIP3    H2 2323   4.513   1.168   0.410
  794TIP3   OH2 2324   4.066   5.544   6.628
  794TIP3    H1 2325   3.973   5.560   6.611
  794TIP3    H2 2326   4.093   5.485   6.558
  795TIP3   OH2 2327   4.638   2.640   6.221
  795TIP3    H1 2328   4.702   2.708   6.202
  795TIP3    H2 2329   4.683   2.581   6.281
  796TIP3   OH2 2330   6.034   3.427   5.128
  796TIP3    H1 2331   5.954   3.447   5.177
  796TIP3    H2 2332   6.010   3.352   5.074
  797TIP3   OH2 2333   6.266   6.667   2.412
  797TIP3    H1 2334   6.289   6.743   2.359
  797TIP3    H2 2335   6.199   6.621   2.361
  798TIP3   OH2 2336   7.889   1.856   1.323
  798TIP3    H1 2337   7.839   1.775   1.335
  798TIP3    H2 2338   7.946   1.861   1.399
  799TIP3   OH2 2339   4.378   3.604   6.041
  799TIP3    H1 2340   4.283   3.618   6.044
  799TIP3    H2 2341   4.399   3.565   6.126
  800TIP3   OH2 2342   1.395   6.484   5.540
  800TIP3    H1 2343   1.363   6.400   5.506
  800TIP3    H2 2344   1.344   6.498   5.620
  801TIP3   OH2 2345   2.515   4.952   2.518
  801TIP3    H1 2346   2.477   5.022   2.464
  801TIP3    H2 2347   2.482   4.871   2.479
  802TIP3   OH2 2348   4.500   6.048   1.770
  802TIP3    H1 2349   4.532   6.131   1.805
  802TIP3    H2 2350   4.465   6.002   1.846
  803TIP3   OH2 2351   3.406   5.478   5.081
  803TIP3    H1 2352   3.329   5.534   5.076
  803TIP3    H2 2353   3.402   5.425   5.001
  804TIP3   OH2 2354   1.255   6.642   2.984
  804TIP3    H1 2355   1.324   6.599   3.033
  804TIP3    H2 2356   1.254   6.732   3.015
  805TIP3   OH2 2357   6.054   2.431   1.126
  805TIP3    H1 2358   6.133   2.379   1.143
  805TIP3    H2 2359   5.983   2.367   1.122
  806TIP3   OH2 2360   5.361   2.791   4.445
  806TIP3    H1 2361   5.441   2.763   4.490
  806TIP3    H2 2362   5.302   2.817   4.516
  807TIP3   OH2 2363   6.203   1.506   6.484
  807TIP3    H1 2364   6.243   1.556   6.555
  807TIP3    H2 2365   6.109   1.511   6.501
  808TIP3   OH2 2366   2.518   2.144   6.328
  808TIP3    H1 2367   2.499   2.097   6.410
  808TIP3    H2 2368   2.608   2.120   6.307
  809TIP3   OH2 2369   3.496   1.326   2.979
  809TIP3    H1 2370   3.542   1.403   2.946
  809TIP3    H2 2371   3.403   1.345   2.963
  810TIP3   OH2 2372   5.760   4.088   6.027
  810TIP3    H1 2373   5.795   4.116   5.943
  810TIP3    H2 2374   5.786   3.997   6.035
  811TIP3   OH2 2375   2.298   3.079   1.105
  811TIP3    H1 2376   2.379   3.085   1.156
  811TIP3    H2 2377   2.322   3.109   1.018
  812TIP3   OH2 2378   0.254   0.100   1.873
  812TIP3    H1 2379   0.281   0.141   1.791
  812TIP3    H2 2380   0.286   0.010   1.867
  813TIP3   OH2 2381   5.485   0.331   3.356
  813TIP3    H1 2382   5.467   0.360   3.267
  813TIP3    H2 2383   5.566   0.281   3.350
  814TIP3   OH2 2384   0.779   6.165   1.299
  814TIP3    H1 2385   0.765   6.105   1.226
  814TIP3    H2 2386   0.692   6.191   1.326
  815TIP3   OH2 2387   2.593   0.527   2.194
  815TIP3    H1 2388   2.620   0.564   2.278
  815TIP3    H2 2389   2.592   0.433   2.208
  816TIP3   OH2 2390   5.107   6.006   0.450
  816TIP3    H1 2391   5.098   6.038   0.361
  816TIP3    H2 2392   5.034   5.945   0.461
  817TIP3   OH2 2393   7.977   7.621   1.330
  817TIP3    H1 2394   8.035   7.643   1.403
  817TIP3    H2 2395   7.890   7.618   1.368
  818TIP3   OH2 2396   5.387   2.162   2.535
  818TIP3    H1 2397   5.324   2.092   2.553
  818TIP3    H2 2398   5.333   2.240   2.522
  819TIP3   OH2 2399   3.254   5.267   2.946
  819TIP3    H1 2400   3.312   5.262   2.870
  819TIP3    H2 2401   3.284   5.197   3.004
  820TIP3   OH2 2402   0.576   7.077   2.856
  820TIP3    H1 2403   0.610   7.120   2.777
  820TIP3    H2 2404   0.482   7.069   2.840
  821TIP3   OH2 2405   5.543   2.373   2.632
  821TIP3    H1 2406   5.477   2.435   2.601
  821TIP3    H2 2407   5.500   2.288   2.627
  822TIP3   OH2 2408   1.020   0.475   4.028
  822TIP3    H1 2409   1.073   0.396   4.012
  822TIP3    H2 2410   1.018   0.483   4.124
  823TIP3   OH2 2411   7.170   5.991   2.370
  823TIP3    H1 2412   7.078   5.974   2.390
  823TIP3    H2 2413   7.175   6.086   2.360
  824TIP3   OH2 2414   7.029   6.964   5.358
  824TIP3    H1 2415   7.071   6.969   5.272
  824TIP3    H2 2416   7.069   6.888   5.400
  825TIP3   OH2 2417   5.299   0.097   6.403
  825TIP3    H1 2418   5.338   0.095   6.316
  825TIP3    H2 2419   5.334   0.177   6.443
  826TIP3   OH2 2420   0.219   3.847   4.378
  826TIP3    H1 2421   0.158   3.905   4.332
  826TIP3    H2 2422   0.262   3.904   4.442
  827TIP3   OH2 2423   7.541   3.100   1.392
  827TIP3    H1 2424   7.561   3.143   1.310
  827TIP3    H2 2425   7.450   3.070   1.382
  828TIP3   OH2 2426   7.567   1.783   5.388
  828TIP3    H1 2427   7.506   1.740   5.329
  828TIP3    H2 2428   7.517   1.801   5.467
  829TIP3   OH2 2429   5.452   7.147   6.581
  829TIP3    H1 2430   5.475   7.069   6.631
  829TIP3    H2 2431   5.516   7.213   6.608
  830TIP3   OH2 2432   1.070   0.702   3.134
  830TIP3    H1 2433   1.127   0.692   3.210
  830TIP3    H2 2434   0.992   0.650   3.155
  831TIP3   OH2 2435   1.602   0.874   6.451
  831TIP3    H1 2436   1.509   0.867   6.472
  831TIP3    H2 2437   1.634   0.946   6.506
  832TIP3   OH2 2438   5.321   6.118   3.761
  832TIP3    H1 2439   5.242   6.172   3.750
  832TIP3    H2 2440   5.327   6.104   3.856
  833TIP3   OH2 2441   6.545   2.000   2.381
  833TIP3    H1 2442   6.501   1.929   2.334
  833TIP3    H2 2443   6.617   1.957   2.428
  834TIP3   OH2 2444   3.347   2.954   6.630
  834TIP3    H1 2445   3.385   2.989   6.550
  834TIP3    H2 2446   3.371   3.017   6.698
  835TIP3   OH2 2447   0.434   3.684   4.304
  835TIP3    H1 2448   0.492   3.755   4.278
  835TIP3    H2 2449   0.358   3.729   4.342
  836TIP3   OH2 2450   0.427   7.686   6.102
  836TIP3    H1 2451   0.370   7.755   6.135
  836TIP3    H2 2452   0.375   7.641   6.035
  837TIP3   OH2 2453   8.084   6.009   1.786
  837TIP3    H1 2454   7.998   5.981   1.817
  837TIP3    H2 2455   8.113   6.072   1.851
  838TIP3   OH2 2456   5.141   4.563   1.091
  838TIP3    H1 2457   5.230   4.557   1.124
  838TIP3    H2 2458   5.085   4.550   1.167
  839TIP3   OH2 2459   0.943   7.318   1.690
  839TIP3    H1 2460   0.992   7.399   1.685
  839TIP3    H2 2461   0.952   7.279   1.603
  840TIP3   OH2 2462   4.791   0.534   0.402
  840TIP3    H1 2463   4.794   0.594   0.327
  840TIP3    H2 2464   4.702   0.499   0.402
  841TIP3   OH2 2465   3.561   7.076   4.786
  841TIP3    H1 2466   3.529   7.166   4.794
  841TIP3    H2 2467   3.482   7.022   4.790
  842TIP3   OH2 2468   1.605   7.385   5.903
  842TIP3    H1 2469   1.638   7.419   5.987
  842TIP3    H2 2470   1.669   7.318   5.878
  843TIP3   OH2 2471   1.214   4.201   5.221
  843TIP3    H1 2472   1.186   4.204   5.313
  843TIP3    H2 2473   1.257   4.116   5.212
  844TIP3   OH2 2474   8.272   6.969   2.770
  844TIP3    H1 2475   8.303   6.986   2.859
  844TIP3    H2 2476   8.234   7.052   2.742
  845TIP3   OH2 2477   0.355   5.192   4.321
  845TIP3    H1 2478   0.296   5.123   4.350
  845TIP3    H2 2479   0.435   5.146   4.295
  846TIP3   OH2 2480   4.741   7.039   1.155
  846TIP3    H1 2481   4.734   7.016   1.248
  846TIP3    H2 2482   4.823   7.087   1.149
  847TIP3   OH2 2483   4.115   4.559   5.209
  847TIP3    H1 2484   4.137   4.472   5.242
  847TIP3    H2 2485   4.022   4.570   5.231
  848TIP3   OH2 2486   2.937   6.083   6.603
  848TIP3    H1 2487   3.005   6.020   6.581
  848TIP3    H2 2488   2.957   6.160   6.550
  849TIP3   OH2 2489   2.617   6.664   0.643
  849TIP3    H1 2490   2.643   6.756   0.641
  849TIP3    H2 2491   2.629   6.638   0.735
  850TIP3   OH2 2492   6.257   1.961   3.603
  850TIP3    H1 2493   6.290   1.958   3.693
  850TIP3    H2 2494   6.223   1.873   3.587
  851TIP3   OH2 2495   1.359   5.910   1.436
  851TIP3    H1 2496   1.273   5.913   1.393
  851TIP3    H2 2497   1.380   6.002   1.454
  852TIP3   OH2 2498   1.228   7.029   0.839
  852TIP3    H1 2499   1.279   7.066   0.767
  852TIP3    H2 2500   1.282   6.958   0.873
  853TIP3   OH2 2501   1.116   3.344   6.513
  853TIP3    H1 2502   1.068   3.367   6.593
  853TIP3    H2 2503   1.187   3.288   6.544
  854TIP3   OH2 2504   0.457   1.603   4.997
  854TIP3    H1 2505   0.505   1.677   5.035
  854TIP3    H2 2506   0.365   1.630   5.000
  855TIP3   OH2 2507   6.087   6.792   5.671
  855TIP3    H1 2508   6.005   6.837   5.651
  855TIP3    H2 2509   6.150   6.863   5.688
  856TIP3   OH2 2510   2.642   6.964   2.246
  856TIP3    H1 2511   2.708   6.987   2.311
  856TIP3    H2 2512   2.602   6.884   2.280
  857TIP3   OH2 2513   4.959   2.519   1.898
  857TIP3    H1 2514   4.990   2.510   1.988
  857TIP3    H2 2515   4.940   2.612   1.888
  858TIP3   OH2 2516   4.756   1.873   4.294
  858TIP3    H1 2517   4.693   1.808   4.326
  858TIP3    H2 2518   4.733   1.886   4.202
  859TIP3   OH2 2519   0.257   0.730   1.967
  859TIP3    H1 2520   0.303   0.811   1.989
  859TIP3    H2 2521   0.168   0.758   1.945
  860TIP3   OH2 2522   5.842   4.906   0.119
  860TIP3    H1 2523   5.930   4.906   0.156
  860TIP3    H2 2524   5.854   4.876   0.029
  861TIP3   OH2 2525   2.356   2.814   4.100
  861TIP3    H1 2526   2.273   2.856   4.123
  861TIP3    H2 2527   2.347   2.791   4.008
  862TIP3   OH2 2528   8.048   0.221   2.621
  862TIP3    H1 2529   7.992   0.236   2.545
  862TIP3    H2 2530   8.017   0.282   2.687
  863TIP3   OH2 2531   0.752   4.925   1.398
  863TIP3    H1 2532   0.840   4.958   1.418
  863TIP3    H2 2533   0.717   4.988   1.334
  864TIP3   OH2 2534   6.525   5.062   3.893
  864TIP3    H1 2535   6.461   4.994   3.914
  864TIP3    H2 2536   6.610   5.024   3.914
  865TIP3   OH2 2537   4.020   0.103   0.270
  865TIP3    H1 2538   3.989   0.016   0.296
  865TIP3    H2 2539   4.104   0.114   0.315
  866TIP3   OH2 2540   7.171   1.910   3.960
  866TIP3    H1 2541   7.097   1.923   4.019
  866TIP3    H2 2542   7.132   1.875   3.880
  867TIP3   OH2 2543   1.478   1.145   0.744
  867TIP3    H1 2544   1.515   1.224   0.704
  867TIP3    H2 2545   1.532   1.073   0.711
  868TIP3   OH2 2546   4.252   5.603   2.684
  868TIP3    H1 2547   4.178   5.603   2.623
  868TIP3    H2 2548   4.322   5.648   2.637
  869TIP3   OH2 2549   6.401   5.752   4.616
  869TIP3    H1 2550   6.395   5.826   4.554
  869TIP3    H2 2551   6.460   5.784   4.684
  870TIP3   OH2 2552   7.873   3.996   1.453
  870TIP3    H1 2553   7.888   4.090   1.458
  870TIP3    H2 2554   7.857   3.979   1.360
  871TIP3   OH2 2555   4.767   0.248   3.614
  871TIP3    H1 2556   4.834   0.244   3.545
  871TIP3    H2 2557   4.776   0.165   3.661
  872TIP3   OH2 2558   4.061   2.450   6.249
  872TIP3    H1 2559   4.096   2.536   6.223
  872TIP3    H2 2560   3.976   2.470   6.288
  873TIP3   OH2 2561   0.369   1.744   5.546
  873TIP3    H1 2562   0.299   1.753   5.610
  873TIP3    H2 2563   0.435   1.689   5.589
  874TIP3   OH2 2564   3.701   7.489   1.960
  874TIP3    H1 2565   3.763   7.431   2.004
  874TIP3    H2 2566   3.616   7.466   1.998
  875TIP3   OH2 2567   0.826   6.061   2.717
  875TIP3    H1 2568   0.837   5.989   2.655
  875TIP3    H2 2569   0.806   6.137   2.661
  876TIP3   OH2 2570   4.109   1.149   0.478
  876TIP3    H1 2571   4.057   1.168   0.556
  876TIP3    H2 2572   4.049   1.165   0.405
  877TIP3   OH2 2573   1.595   5.477   5.058
  877TIP3    H1 2574   1.499   5.476   5.055
  877TIP3    H2 2575   1.620   5.525   4.978
  878TIP3   OH2 2576   2.832   4.830   4.696
  878TIP3    H1 2577   2.829   4.750   4.749
  878TIP3    H2 2578   2.918   4.829   4.655
  879TIP3   OH2 2579   4.062   5.087   4.440
  879TIP3    H1 2580   4.059   5.069   4.534
  879TIP3    H2 2581   4.118   5.017   4.404
  880TIP3   OH2 2582   3.641   2.937   0.373
  880TIP3    H1 2583   3.671   2.948   0.283
  880TIP3    H2 2584   3.710   2.888   0.416
  881TIP3   OH2 2585   7.670   3.214   1.673
  881TIP3    H1 2586   7.624   3.131   1.687
  881TIP3    H2 2587   7.754   3.188   1.634
  882TIP3   OH2 2588   1.251   4.491   4.115
  882TIP3    H1 2589   1.167   4.443   4.116
  882TIP3    H2 2590   1.229   4.577   4.151
  883TIP3   OH2 2591   0.724   5.469   6.156
  883TIP3    H1 2592   0.711   5.545   6.212
  883TIP3    H2 2593   0.777   5.501   6.083
  884TIP3   OH2 2594   1.054   5.044   4.339
  884TIP3    H1 2595   1.036   5.091   4.420
  884TIP3    H2 2596   1.148   5.026   4.343
  885TIP3   OH2 2597   3.182   0.324   3.598
  885TIP3    H1 2598   3.116   0.262   3.566
  885TIP3    H2 2599   3.264   0.274   3.596
  886TIP3   OH2 2600   6.610   2.036   5.415
  886TIP3    H1 2601   6.696   1.995   5.402
  886TIP3    H2 2602   6.609   2.062   5.507
  887TIP3   OH2 2603   5.444   2.836   5.746
  887TIP3    H1 2604   5.387   2.914   5.744
  887TIP3    H2 2605   5.470   2.828   5.838
  888TIP3   OH2 2606   5.068   4.375   4.045
  888TIP3    H1 2607   5.080   4.382   3.950
  888TIP3    H2 2608   5.102   4.288   4.066
  889TIP3   OH2 2609   4.176   6.877   3.359
  889TIP3    H1 2610   4.220   6.852   3.440
  889TIP3    H2 2611   4.185   6.801   3.302
  890TIP3   OH2 2612   3.507   2.341   3.060
  890TIP3    H1 2613   3.537   2.258   3.021
  890TIP3    H2 2614   3.441   2.374   2.999
  891TIP3   OH2 2615   3.158   3.290   6.034
  891TIP3    H1 2616   3.182   3.372   6.077
  891TIP3    H2 2617   3.236   3.235   6.044
  892TIP3   OH2 2618   5.772   0.584   2.479
  892TIP3    H1 2619   5.794   0.599   2.387
  892TIP3    H2 2620   5.701   0.646   2.497
  893TIP3   OH2 2621   2.300   1.795   2.345
  893TIP3    H1 2622   2.395   1.808   2.344
  893TIP3    H2 2623   2.281   1.759   2.432
  894TIP3   OH2 2624   1.418   3.488   4.239
  894TIP3    H1 2625   1.423   3.553   4.309
  894TIP3    H2 2626   1.347   3.519   4.182
  895TIP3   OH2 2627   4.677   4.854   5.356
  895TIP3    H1 2628   4.672   4.800   5.277
  895TIP3    H2 2629   4.736   4.805   5.414
  896TIP3   OH2 2630   7.537   6.147   1.266
  896TIP3    H1 2631   7.558   6.159   1.173
  896TIP3    H2 2632   7.534   6.236   1.301
  897TIP3   OH2 2633   0.541   1.958   3.681
  897TIP3    H1 2634   0.469   1.913   3.637
  897TIP3    H2 2635   0.592   1.888   3.722
  898TIP3   OH2 2636   6.618   0.890   6.409
  898TIP3    H1 2637   6.707   0.870   6.383
  898TIP3    H2 2638   6.597   0.972   6.364
  899TIP3   OH2 2639   6.948   0.497   4.751
  899TIP3    H1 2640   6.942   0.425   4.815
  899TIP3    H2 2641   6.857   0.518   4.731
  900TIP3   OH2 2642   5.786   0.310   6.072
  900TIP3    H1 2643   5.843   0.383   6.049
  900TIP3    H2 2644   5.703   0.328   6.027
  901TIP3   OH2 2645   4.958   2.085   1.200
  901TIP3    H1 2646   4.992   2.066   1.287
  901TIP3    H2 2647   5.026   2.138   1.159
  902TIP3   OH2 2648   1.971   0.514   4.985
  902TIP3    H1 2649   1.921   0.596   4.991
  902TIP3    H2 2650   1.939   0.461   5.058
  903TIP3   OH2 2651   5.677   5.935   6.525
  903TIP3    H1 2652   5.604   5.914   6.583
  903TIP3    H2 2653   5.728   6.001   6.574
  904TIP3   OH2 2654   7.521   1.520   4.399
  904TIP3    H1 2655   7.539   1.603   4.444
  904TIP3    H2 2656   7.548   1.535   4.309
  905TIP3   OH2 2657   0.134   7.579   3.970
  905TIP3    H1 2658   0.218   7.624   3.969
  905TIP3    H2 2659   0.153   7.490   3.941
  906TIP3   OH2 2660   3.864   1.178   5.273
  906TIP3    H1 2661   3.928   1.229   5.322
  906TIP3    H2 2662   3.783   1.229   5.280
  907TIP3   OH2 2663   4.578   3.823   4.812
  907TIP3    H1 2664   4.559   3.834   4.905
  907TIP3    H2 2665   4.511   3.761   4.782
  908TIP3   OH2 2666   5.099   2.269   1.080
  908TIP3    H1 2667   5.162   2.338   1.059
  908TIP3    H2 2668   5.072   2.234   0.995
  909TIP3   OH2 2669   5.307   6.154   4.674
  909TIP3    H1 2670   5.328   6.243   4.704
  909TIP3    H2 2671   5.256   6.116   4.745
  910TIP3   OH2 2672   4.797   4.735   5.563
  910TIP3    H1 2673   4.758   4.779   5.638
  910TIP3    H2 2674   4.783   4.642   5.579
  911TIP3   OH2 2675   3.123   7.418   5.161
  911TIP3    H1 2676   3.046   7.471   5.177
  911TIP3    H2 2677   3.194   7.481   5.149
  912TIP3   OH2 2678   2.839   2.544   4.122
  912TIP3    H1 2679   2.828   2.602   4.047
  912TIP3    H2 2680   2.804   2.594   4.196
  913TIP3   OH2 2681   2.595   5.310   0.008
  913TIP3    H1 2682   2.506   5.277   0.013
  913TIP3    H2 2683   2.585   5.402  -0.017
  914TIP3   OH2 2684   0.618   2.548   2.767
  914TIP3    H1 2685   0.608   2.582   2.856
  914TIP3    H2 2686   0.684   2.479   2.774
  915TIP3   OH2 2687   7.699   6.776   4.236
  915TIP3    H1 2688   7.791   6.751   4.246
  915TIP3    H2 2689   7.674   6.739   4.151
  916TIP3   OH2 2690   4.687   4.915   4.298
  916TIP3    H1 2691   4.626   4.970   4.347
  916TIP3    H2 2692   4.637   4.835   4.280
  917TIP3   OH2 2693   4.878   2.416   2.378
  917TIP3    H1 2694   4.856   2.508   2.366
  917TIP3    H2 2695   4.855   2.375   2.294
  918TIP3   OH2 2696   0.441   3.773   3.445
  918TIP3    H1 2697   0.410   3.769   3.354
  918TIP3    H2 2698   0.523   3.823   3.440
  919TIP3   OH2 2699   1.060   3.828   6.753
  919TIP3    H1 2700   0.977   3.783   6.737
  919TIP3    H2 2701   1.100   3.780   6.825
  920TIP3   OH2 2702   6.136   2.793   4.762
  920TIP3    H1 2703   6.107   2.775   4.673
  920TIP3    H2 2704   6.157   2.707   4.799
  921TIP3   OH2 2705   1.624   0.174   3.018
  921TIP3    H1 2706   1.539   0.162   3.061
  921TIP3    H2 2707   1.666   0.089   3.023
  922TIP3   OH2 2708   1.064   2.828   0.336
  922TIP3    H1 2709   0.985   2.878   0.313
  922TIP3    H2 2710   1.136   2.889   0.323
  923TIP3   OH2 2711   6.138   4.313   6.404
  923TIP3    H1 2712   6.086   4.285   6.328
  923TIP3    H2 2713   6.206   4.247   6.413
  924TIP3   OH2 2714   2.168   0.388   1.344
  924TIP3    H1 2715   2.083   0.424   1.370
  924TIP3    H2 2716   2.219   0.387   1.425
  925TIP3   OH2 2717   6.157   6.818   5.374
  925TIP3    H1 2718   6.230   6.879   5.361
  925TIP3    H2 2719   6.081   6.865   5.341
  926TIP3   OH2 2720   1.593   7.806   4.842
  926TIP3    H1 2721   1.601   7.737   4.776
  926TIP3    H2 2722   1.552   7.879   4.795
  927TIP3   OH2 2723   5.478   2.380   4.535
  927TIP3    H1 2724   5.509   2.453   4.481
  927TIP3    H2 2725   5.476   2.305   4.474
  928TIP3   OH2 2726   0.790   5.312   4.004
  928TIP3    H1 2727   0.794   5.221   4.032
  928TIP3    H2 2728   0.717   5.349   4.054
  929TIP3   OH2 2729   1.457   5.530   4.514
  929TIP3    H1 2730   1.548   5.528   4.482
  929TIP3    H2 2731   1.413   5.593   4.458
  930TIP3   OH2 2732   1.448   6.500   4.656
  930TIP3    H1 2733   1.487   6.586   4.643
  930TIP3    H2 2734   1.522   6.443   4.678
  931TIP3   OH2 2735   7.254   1.003   5.415
  931TIP3    H1 2736   7.257   1.074   5.479
  931TIP3    H2 2737   7.215   0.929   5.462
  932TIP3   OH2 2738   2.936   7.204   0.088
  932TIP3    H1 2739   2.859   7.189   0.143
  932TIP3    H2 2740   2.909   7.273   0.027
  933TIP3   OH2 2741   3.465   3.295   1.839
  933TIP3    H1 2742   3.552   3.302   1.877
  933TIP3    H2 2743   3.448   3.201   1.831
  934TIP3   OH2 2744   0.825   5.610   6.604
  934TIP3    H1 2745   0.785   5.688   6.642
  934TIP3    H2 2746   0.919   5.629   6.605
  935TIP3   OH2 2747   6.515   5.749   2.746
  935TIP3    H1 2748   6.492   5.656   2.751
  935TIP3    H2 2749   6.451   5.786   2.685
  936TIP3   OH2 2750   1.268   2.120   5.681
  936TIP3    H1 2751   1.306   2.042   5.641
  936TIP3    H2 2752   1.205   2.086   5.745
  937TIP3   OH2 2753   3.401   2.729   2.654
  937TIP3    H1 2754   3.489   2.715   2.619
  937TIP3    H2 2755   3.409   2.808   2.708
  938TIP3   OH2 2756   7.453   6.405   4.190
  938TIP3    H1 2757   7.497   6.455   4.121
  938TIP3    H2 2758   7.401   6.340   4.143
  939TIP3   OH2 2759   6.789   2.167   5.676
  939TIP3    H1 2760   6.804   2.220   5.598
  939TIP3    H2 2761   6.846   2.091   5.665
  940TIP3   OH2 2762   7.327   7.166   1.891
  940TIP3    H1 2763   7.284   7.193   1.810
  940TIP3    H2 2764   7.271   7.200   1.960
  941TIP3   OH2 2765   7.334   2.257   0.561
  941TIP3    H1 2766   7.317   2.249   0.655
  941TIP3    H2 2767   7.363   2.347   0.549
  942TIP3   OH2 2768   5.764   4.866   1.972
  942TIP3    H1 2769   5.685   4.891   1.925
  942TIP3    H2 2770   5.769   4.929   2.045
  943TIP3   OH2 2771   1.270   5.893   4.407
  943TIP3    H1 2772   1.276   5.817   4.349
  943TIP3    H2 2773   1.338   5.879   4.473
  944TIP3   OH2 2774   0.187   6.057   3.742
  944TIP3    H1 2775   0.276   6.036   3.713
  944TIP3    H2 2776   0.199   6.120   3.812
  945TIP3   OH2 2777   7.520   1.131   5.821
  945TIP3    H1 2778   7.550   1.048   5.786
  945TIP3    H2 2779   7.427   1.137   5.797
  946TIP3   OH2 2780   1.429   3.611   2.408
  946TIP3    H1 2781   1.379   3.583   2.485
  946TIP3    H2 2782   1.486   3.537   2.388
  947TIP3   OH2 2783   4.702   0.083   1.786
  947TIP3    H1 2784   4.751   0.082   1.868
  947TIP3    H2 2785   4.738   0.010   1.736
  948TIP3   OH2 2786   1.107   5.487   4.005
  948TIP3    H1 2787   1.038   5.543   3.968
  948TIP3    H2 2788   1.062   5.406   4.027
  949TIP3   OH2 2789   6.528   4.837   3.649
  949TIP3    H1 2790   6.604   4.891   3.673
  949TIP3    H2 2791   6.453   4.886   3.682
  950TIP3   OH2 2792   1.736   5.644   2.433
  950TIP3    H1 2793   1.712   5.735   2.451
  950TIP3    H2 2794   1.675   5.616   2.365
  951TIP3   OH2 2795   2.784   1.085   5.305
  951TIP3    H1 2796   2.723   1.121   5.240
  951TIP3    H2 2797   2.869   1.120   5.279
  952TIP3   OH2 2798   0.277   0.698   4.303
  952TIP3    H1 2799   0.206   0.762   4.299
  952TIP3    H2 2800   0.347   0.742   4.351
  953TIP3   OH2 2801   4.942   6.618   0.871
  953TIP3    H1 2802   5.018   6.668   0.902
  953TIP3    H2 2803   4.867   6.675   0.886
  954TIP3   OH2 2804   3.157   5.003   6.335
  954TIP3    H1 2805   3.145   5.066   6.265
  954TIP3    H2 2806   3.249   5.010   6.359
  955TIP3   OH2 2807   2.598   1.670   5.453
  955TIP3    H1 2808   2.615   1.665   5.547
  955TIP3    H2 2809   2.682   1.649   5.412
  956TIP3   OH2 2810   0.806   3.117   6.657
  956TIP3    H1 2811   0.769   3.169   6.728
  956TIP3    H2 2812   0.899   3.112   6.677
  957TIP3   OH2 2813   0.916   1.296   0.053
  957TIP3    H1 2814   0.876   1.270   0.136
  957TIP3    H2 2815   0.860   1.367   0.021
  958TIP3   OH2 2816   3.386   3.846   2.347
  958TIP3    H1 2817   3.361   3.833   2.255
  958TIP3    H2 2818   3.338   3.924   2.374
  959TIP3   OH2 2819   0.836   3.386   4.664
  959TIP3    H1 2820   0.798   3.454   4.719
  959TIP3    H2 2821   0.887   3.434   4.598
  960TIP3   OH2 2822   7.874   3.117   2.329
  960TIP3    H1 2823   7.863   3.176   2.403
  960TIP3    H2 2824   7.786   3.109   2.292
  961TIP3   OH2 2825   1.878   4.390   0.450
  961TIP3    H1 2826   1.860   4.298   0.428
  961TIP3    H2 2827   1.961   4.409   0.407
  962TIP3   OH2 2828   3.233   7.205   1.798
  962TIP3    H1 2829   3.259   7.297   1.796
  962TIP3    H2 2830   3.255   7.172   1.711
  963TIP3   OH2 2831   2.838   5.382   0.166
  963TIP3    H1 2832   2.852   5.466   0.210
  963TIP3    H2 2833   2.752   5.390   0.125
  964TIP3   OH2 2834   1.878   0.423   0.471
  964TIP3    H1 2835   1.840   0.407   0.557
  964TIP3    H2 2836   1.972   0.432   0.488
  965TIP3   OH2 2837   0.549   4.793   0.430
  965TIP3    H1 2838   0.566   4.722   0.368
  965TIP3    H2 2839   0.460   4.822   0.409
  966TIP3   OH2 2840   1.749   4.324   4.729
  966TIP3    H1 2841   1.823   4.336   4.670
  966TIP3    H2 2842   1.722   4.412   4.753
  967TIP3   OH2 2843   3.591   5.338   0.223
  967TIP3    H1 2844   3.610   5.430   0.209
  967TIP3    H2 2845   3.673   5.300   0.255
  968TIP3   OH2 2846   3.023   2.125   3.358
  968TIP3    H1 2847   3.063   2.045   3.323
  968TIP3    H2 2848   3.093   2.167   3.408
  969TIP3   OH2 2849   6.583   5.489   5.343
  969TIP3    H1 2850   6.649   5.456   5.404
  969TIP3    H2 2851   6.503   5.441   5.365
  970TIP3   OH2 2852   0.125   1.572   4.138
  970TIP3    H1 2853   0.051   1.525   4.176
  970TIP3    H2 2854   0.120   1.660   4.177
  971TIP3   OH2 2855   1.698   4.506   5.530
  971TIP3    H1 2856   1.640   4.539   5.461
  971TIP3    H2 2857   1.760   4.577   5.545
  972TIP3   OH2 2858   2.874   4.054   2.879
  972TIP3    H1 2859   2.809   4.083   2.942
  972TIP3    H2 2860   2.833   3.980   2.835
  973TIP3   OH2 2861   6.560   4.569   4.906
  973TIP3    H1 2862   6.504   4.641   4.877
  973TIP3    H2 2863   6.610   4.605   4.979
  974TIP3   OH2 2864   1.421   7.190   4.817
  974TIP3    H1 2865   1.356   7.145   4.763
  974TIP3    H2 2866   1.504   7.147   4.795
  975TIP3   OH2 2867   5.676   4.914   1.085
  975TIP3    H1 2868   5.685   4.922   1.180
  975TIP3    H2 2869   5.583   4.927   1.069
  976TIP3   OH2 2870   3.992   0.352   5.705
  976TIP3    H1 2871   3.990   0.297   5.626
  976TIP3    H2 2872   4.081   0.341   5.739
  977TIP3   OH2 2873   2.991   3.311   3.455
  977TIP3    H1 2874   3.063   3.249   3.440
  977TIP3    H2 2875   2.947   3.317   3.370
  978TIP3   OH2 2876   3.737   5.590   0.568
  978TIP3    H1 2877   3.649   5.557   0.549
  978TIP3    H2 2878   3.742   5.673   0.521
  979TIP3   OH2 2879   6.661   3.561   6.170
  979TIP3    H1 2880   6.597   3.490   6.159
  979TIP3    H2 2881   6.690   3.554   6.261
  980TIP3   OH2 2882   1.548   0.711   1.255
  980TIP3    H1 2883   1.586   0.641   1.202
  980TIP3    H2 2884   1.465   0.675   1.287
  981TIP3   OH2 2885   7.357   7.517   3.869
  981TIP3    H1 2886   7.296   7.537   3.798
  981TIP3    H2 2887   7.302   7.484   3.940
  982TIP3   OH2 2888   8.262   4.326   4.003
  982TIP3    H1 2889   8.354   4.352   4.006
  982TIP3    H2 2890   8.261   4.247   3.949
  983TIP3   OH2 2891   2.498   6.509   3.227
  983TIP3    H1 2892   2.521   6.568   3.155
  983TIP3    H2 2893   2.500   6.565   3.305
  984TIP3   OH2 2894   6.154   3.291   3.768
  984TIP3    H1 2895   6.190   3.275   3.681
  984TIP3    H2 2896   6.230   3.293   3.826
  985TIP3   OH2 2897   7.205   7.158   6.727
  985TIP3    H1 2898   7.117   7.125   6.744
  985TIP3    H2 2899   7.194   7.216   6.651
  986TIP3   OH2 2900   2.937   5.693   2.680
  986TIP3    H1 2901   2.991   5.731   2.750
  986TIP3    H2 2902   2.858   5.663   2.726
  987TIP3   OH2 2903   3.078   1.569   0.652
  987TIP3    H1 2904   3.147   1.516   0.692
  987TIP3    H2 2905   3.100   1.570   0.558
  988TIP3   OH2 2906   4.598   2.930   4.883
  988TIP3    H1 2907   4.503   2.926   4.891
  988TIP3    H2 2908   4.620   2.857   4.825
  989TIP3   OH2 2909   3.024   5.370   6.747
  989TIP3    H1 2910   2.962   5.433   6.783
  989TIP3    H2 2911   3.108   5.415   6.749
  990TIP3   OH2 2912   3.270   4.114   4.172
  990TIP3    H1 2913   3.176   4.119   4.157
  990TIP3    H2 2914   3.305   4.195   4.134
  991TIP3   OH2 2915   6.027   0.422   5.647
  991TIP3    H1 2916   6.094   0.375   5.697
  991TIP3    H2 2917   6.054   0.412   5.555
  992TIP3   OH2 2918   6.429   4.289   3.161
  992TIP3    H1 2919   6.356   4.272   3.102
  992TIP3    H2 2920   6.425   4.384   3.178
  993TIP3   OH2 2921   8.176   5.423   1.551
  993TIP3    H1 2922   8.269   5.418   1.572
  993TIP3    H2 2923   8.137   5.474   1.623
  994TIP3   OH2 2924   1.178   3.818   6.418
  994TIP3    H1 2925   1.149   3.902   6.452
  994TIP3    H2 2926   1.274   3.820   6.426
  995TIP3   OH2 2927   4.532   6.799   5.856
  995TIP3    H1 2928   4.573   6.874   5.900
  995TIP3    H2 2929   4.442   6.826   5.841
  996TIP3   OH2 2930   0.615   3.037   4.076
  996TIP3    H1 2931   0.617   3.111   4.137
  996TIP3    H2 2932   0.593   3.076   3.991
  997TIP3   OH2 2933   6.016   5.136   0.542
  997TIP3    H1 2934   6.077   5.063   0.537
  997TIP3    H2 2935   6.021   5.177   0.455
  998TIP3   OH2 2936   6.011   3.732   5.122
  998TIP3    H1 2937   5.995   3.760   5.212
  998TIP3    H2 2938   6.068   3.655   5.130
  999TIP3   OH2 2939   6.546   1.419   3.988
  999TIP3    H1 2940   6.584   1.482   4.049
  999TIP3    H2 2941   6.615   1.401   3.925
 1000TIP3   OH2 2942   3.678   5.342   6.503
 1000TIP3    H1 2943   3.610   5.347   6.437
 1000TIP3    H2 2944   3.642   5.390   6.578
 1001TIP3   OH2 2945   6.000   6.129   4.806
 1001TIP3    H1 2946   5.988   6.065   4.736
 1001TIP3    H2 2947   6.015   6.077   4.885
 1002TIP3   OH2 2948   4.448   6.485   0.290
 1002TIP3    H1 2949   4.425   6.393   0.304
 1002TIP3    H2 2950   4.435   6.499   0.196
 1003TIP3   OH2 2951   6.410   5.551   5.985
 1003TIP3    H1 2952   6.488   5.580   6.033
 1003TIP3    H2 2953   6.392   5.463   6.019
 1004TIP3   OH2 2954   2.720   5.426   4.381
 1004TIP3    H1 2955   2.752   5.502   4.333
 1004TIP3    H2 2956   2.704   5.360   4.313
 1005TIP3   OH2 2957   1.598   3.843   2.313
 1005TIP3    H1 2958   1.539   3.777   2.348
 1005TIP3    H2 2959   1.541   3.904   2.266
 1006TIP3   OH2 2960   1.137   3.888   0.662
 1006TIP3    H1 2961   1.090   3.896   0.746
 1006TIP3    H2 2962   1.190   3.967   0.656
 1007TIP3   OH2 2963   3.727   6.381   3.355
 1007TIP3    H1 2964   3.674   6.312   3.396
 1007TIP3    H2 2965   3.718   6.366   3.261
 1008TIP3   OH2 2966   7.505   3.690   0.388
 1008TIP3    H1 2967   7.481   3.616   0.332
 1008TIP3    H2 2968   7.422   3.724   0.421
 1009TIP3   OH2 2969   3.928   4.206   6.084
 1009TIP3    H1 2970   3.851   4.254   6.054
 1009TIP3    H2 2971   3.919   4.203   6.179
 1010TIP3   OH2 2972   5.699   6.522   4.203
 1010TIP3    H1 2973   5.722   6.614   4.216
 1010TIP3    H2 2974   5.604   6.522   4.200
 1011TIP3   OH2 2975   7.393   0.113   4.432
 1011TIP3    H1 2976   7.472   0.082   4.389
 1011TIP3    H2 2977   7.373   0.196   4.390
 1012TIP3   OH2 2978   3.157   1.763   4.144
 1012TIP3    H1 2979   3.157   1.668   4.136
 1012TIP3    H2 2980   3.079   1.783   4.197
 1013TIP3   OH2 2981   3.559   7.250   0.519
 1013TIP3    H1 2982   3.577   7.343   0.534
 1013TIP3    H2 2983   3.643   7.212   0.494
 1014TIP3   OH2 2984   5.680   4.627   3.868
 1014TIP3    H1 2985   5.772   4.615   3.890
 1014TIP3    H2 2986   5.667   4.722   3.868
 1015TIP3   OH2 2987   6.531   7.439   1.513
 1015TIP3    H1 2988   6.523   7.354   1.469
 1015TIP3    H2 2989   6.624   7.460   1.506
 1016TIP3   OH2 2990   3.502   5.738   1.857
 1016TIP3    H1 2991   3.499   5.714   1.950
 1016TIP3    H2 2992   3.424   5.791   1.844
 1017TIP3   OH2 2993   1.649   4.973   1.396
 1017TIP3    H1 2994   1.561   5.005   1.414
 1017TIP3    H2 2995   1.681   5.029   1.325
 1018TIP3   OH2 2996   2.311   6.350   1.522
 1018TIP3    H1 2997   2.387   6.317   1.570
 1018TIP3    H2 2998   2.306   6.294   1.444
 1019TIP3   OH2 2999   4.103   2.442   2.998
 1019TIP3    H1 3000   4.067   2.418   3.083
 1019TIP3    H2 3001   4.032   2.424   2.936
 1020TIP3   OH2 3002   7.997   2.557   0.768
 1020TIP3    H1 3003   8.078   2.533   0.814
 1020TIP3    H2 3004   7.937   2.585   0.838
 1021TIP3   OH2 3005   6.051   0.906   4.753
 1021TIP3    H1 3006   6.122   0.848   4.779
 1021TIP3    H2 3007   6.024   0.949   4.834
 1022TIP3   OH2 3008   3.070   0.963   3.796
 1022TIP3    H1 3009   3.004   0.978   3.864
 1022TIP3    H2 3010   3.078   0.868   3.791
 1023TIP3   OH2 3011   5.644   0.312   0.913
 1023TIP3    H1 3012   5.575   0.327   0.978
 1023TIP3    H2 3013   5.723   0.349   0.953
 1024TIP3   OH2 3014   6.262   1.931   5.662
 1024TIP3    H1 3015   6.181   1.979   5.645
 1024TIP3    H2 3016   6.288   1.895   5.578
 1025TIP3   OH2 3017   6.600   0.046   6.681
 1025TIP3    H1 3018   6.552   0.005   6.753
 1025TIP3    H2 3019   6.613  -0.025   6.618
 1026TIP3   OH2 3020   2.754   5.445   1.484
 1026TIP3    H1 3021   2.721   5.518   1.536
 1026TIP3    H2 3022   2.848   5.460   1.478
 1027TIP3   OH2 3023   5.989   0.339   2.989
 1027TIP3    H1 3024   5.971   0.248   2.966
 1027TIP3    H2 3025   5.949   0.391   2.919
 1028TIP3   OH2 3026   3.313   1.127   5.258
 1028TIP3    H1 3027   3.307   1.215   5.297
 1028TIP3    H2 3028   3.400   1.124   5.219
 1029TIP3   OH2 3029   5.343   3.044   3.881
 1029TIP3    H1 3030   5.295   2.982   3.936
 1029TIP3    H2 3031   5.330   3.013   3.792
 1030TIP3   OH2 3032   7.408   3.237   4.698
 1030TIP3    H1 3033   7.488   3.288   4.712
 1030TIP3    H2 3034   7.337   3.295   4.725
 1031TIP3   OH2 3035   0.206   5.626   1.910
 1031TIP3    H1 3036   0.244   5.561   1.971
 1031TIP3    H2 3037   0.113   5.629   1.933
 1032TIP3   OH2 3038   2.271   3.297   5.192
 1032TIP3    H1 3039   2.270   3.389   5.164
 1032TIP3    H2 3040   2.185   3.283   5.231
 1033TIP3   OH2 3041   5.870   2.602   3.132
 1033TIP3    H1 3042   5.820   2.539   3.184
 1033TIP3    H2 3043   5.932   2.640   3.193
 1034TIP3   OH2 3044   4.385   1.571   1.331
 1034TIP3    H1 3045   4.315   1.532   1.383
 1034TIP3    H2 3046   4.464   1.523   1.356
 1035TIP3   OH2 3047   4.104   1.220   3.521
 1035TIP3    H1 3048   4.065   1.280   3.585
 1035TIP3    H2 3049   4.192   1.202   3.556
 1036TIP3   OH2 3050   7.146   2.693   4.377
 1036TIP3    H1 3051   7.176   2.657   4.460
 1036TIP3    H2 3052   7.079   2.757   4.403
 1037TIP3   OH2 3053   8.194   7.260   2.690
 1037TIP3    H1 3054   8.131   7.289   2.624
 1037TIP3    H2 3055   8.239   7.340   2.717
 1038TIP3   OH2 3056   4.572   3.080   2.784
 1038TIP3    H1 3057   4.598   3.068   2.875
 1038TIP3    H2 3058   4.531   3.167   2.782
 1039TIP3   OH2 3059   0.955   7.719   4.505
 1039TIP3    H1 3060   0.952   7.674   4.589
 1039TIP3    H2 3061   0.902   7.666   4.446
 1040TIP3   OH2 3062   7.216   7.235   4.957
 1040TIP3    H1 3063   7.311   7.243   4.964
 1040TIP3    H2 3064   7.202   7.162   4.896
 1041TIP3   OH2 3065   7.841   1.252   2.430
 1041TIP3    H1 3066   7.776   1.306   2.476
 1041TIP3    H2 3067   7.788   1.196   2.373
 1042TIP3   OH2 3068   0.322   5.792   5.837
 1042TIP3    H1 3069   0.347   5.715   5.889
 1042TIP3    H2 3070   0.230   5.777   5.815
 1043TIP3   OH2 3071   4.090   1.192   2.705
 1043TIP3    H1 3072   4.082   1.137   2.783
 1043TIP3    H2 3073   4.044   1.142   2.636
 1044TIP3   OH2 3074   4.480   4.901   2.950
 1044TIP3    H1 3075   4.516   4.932   3.033
 1044TIP3    H2 3076   4.424   4.827   2.974
 1045TIP3   OH2 3077   4.679   3.889   3.640
 1045TIP3    H1 3078   4.765   3.926   3.663
 1045TIP3    H2 3079   4.691   3.855   3.552
 1046TIP3   OH2 3080   2.893   3.785   2.759
 1046TIP3    H1 3081   2.977   3.774   2.714
 1046TIP3    H2 3082   2.900   3.730   2.837
 1047TIP3   OH2 3083   6.850   6.223   6.441
 1047TIP3    H1 3084   6.787   6.254   6.507
 1047TIP3    H2 3085   6.797   6.172   6.379
 1048TIP3   OH2 3086   4.626   3.356   4.272
 1048TIP3    H1 3087   4.621   3.289   4.340
 1048TIP3    H2 3088   4.563   3.326   4.205
 1049TIP3   OH2 3089   7.067   7.379   0.303
 1049TIP3    H1 3090   7.014   7.457   0.326
 1049TIP3    H2 3091   7.054   7.368   0.209
 1050TIP3   OH2 3092   3.140   1.006   5.469
 1050TIP3    H1 3093   3.105   1.040   5.387
 1050TIP3    H2 3094   3.233   0.991   5.452
 1051TIP3   OH2 3095   0.876   4.167   3.072
 1051TIP3    H1 3096   0.869   4.152   2.978
 1051TIP3    H2 3097   0.791   4.202   3.098
 1052TIP3   OH2 3098   2.301   6.773   1.125
 1052TIP3    H1 3099   2.289   6.752   1.033
 1052TIP3    H2 3100   2.342   6.696   1.163
 1053TIP3   OH2 3101   2.239   2.124   4.400
 1053TIP3    H1 3102   2.202   2.194   4.346
 1053TIP3    H2 3103   2.166   2.095   4.455
 1054TIP3   OH2 3104   1.939   2.226   4.025
 1054TIP3    H1 3105   1.871   2.289   4.048
 1054TIP3    H2 3106   1.978   2.260   3.944
 1055TIP3   OH2 3107   2.406   3.598   0.934
 1055TIP3    H1 3108   2.423   3.533   1.002
 1055TIP3    H2 3109   2.314   3.586   0.911
 1056TIP3   OH2 3110   1.390   1.042   2.783
 1056TIP3    H1 3111   1.440   1.085   2.853
 1056TIP3    H2 3112   1.321   1.105   2.761
 1057TIP3   OH2 3113   3.764   0.623   4.117
 1057TIP3    H1 3114   3.817   0.577   4.183
 1057TIP3    H2 3115   3.712   0.553   4.076
 1058TIP3   OH2 3116   2.657   2.782   6.285
 1058TIP3    H1 3117   2.564   2.761   6.294
 1058TIP3    H2 3118   2.659   2.855   6.223
 1059TIP3   OH2 3119   0.864   4.634   3.078
 1059TIP3    H1 3120   0.903   4.655   3.162
 1059TIP3    H2 3121   0.890   4.707   3.021
 1060TIP3   OH2 3122   5.888   0.825   0.164
 1060TIP3    H1 3123   5.865   0.736   0.138
 1060TIP3    H2 3124   5.952   0.853   0.099
 1061TIP3   OH2 3125   6.794   3.551   1.272
 1061TIP3    H1 3126   6.827   3.610   1.204
 1061TIP3    H2 3127   6.838   3.468   1.254
 1062TIP3   OH2 3128   5.505   5.768   0.304
 1062TIP3    H1 3129   5.597   5.759   0.327
 1062TIP3    H2 3130   5.468   5.823   0.373
 1063TIP3   OH2 3131   5.466   7.254   6.188
 1063TIP3    H1 3132   5.524   7.317   6.231
 1063TIP3    H2 3133   5.431   7.301   6.112
 1064TIP3   OH2 3134   3.382   4.792   5.901
 1064TIP3    H1 3135   3.345   4.780   5.988
 1064TIP3    H2 3136   3.473   4.766   5.909
 1065TIP3   OH2 3137   4.027   2.040   6.540
 1065TIP3    H1 3138   4.117   2.070   6.529
 1065TIP3    H2 3139   4.017   1.971   6.475
 1066TIP3   OH2 3140   5.368   0.152   1.567
 1066TIP3    H1 3141   5.422   0.146   1.645
 1066TIP3    H2 3142   5.429   0.172   1.496
 1067TIP3   OH2 3143   1.753   1.111   0.087
 1067TIP3    H1 3144   1.787   1.088   0.173
 1067TIP3    H2 3145   1.665   1.145   0.105
 1068TIP3   OH2 3146   1.403   1.066   2.397
 1068TIP3    H1 3147   1.429   0.976   2.378
 1068TIP3    H2 3148   1.308   1.066   2.384
 1069TIP3   OH2 3149   7.216   5.868   2.901
 1069TIP3    H1 3150   7.270   5.789   2.910
 1069TIP3    H2 3151   7.278   5.936   2.875
 1070TIP3   OH2 3152   6.472   2.861   6.102
 1070TIP3    H1 3153   6.537   2.891   6.167
 1070TIP3    H2 3154   6.388   2.880   6.143
 1071TIP3   OH2 3155   6.759   4.059   2.208
 1071TIP3    H1 3156   6.826   4.021   2.264
 1071TIP3    H2 3157   6.676   4.039   2.252
 1072TIP3   OH2 3158   0.548   2.012   4.119
 1072TIP3    H1 3159   0.469   2.000   4.067
 1072TIP3    H2 3160   0.545   2.103   4.148
 1073TIP3   OH2 3161   3.792   7.062   2.854
 1073TIP3    H1 3162   3.773   6.996   2.787
 1073TIP3    H2 3163   3.885   7.080   2.844
 1074TIP3   OH2 3164   6.786   1.596   2.720
 1074TIP3    H1 3165   6.708   1.621   2.769
 1074TIP3    H2 3166   6.754   1.544   2.646
 1075TIP3   OH2 3167   4.222   5.603   1.732
 1075TIP3    H1 3168   4.240   5.511   1.754
 1075TIP3    H2 3169   4.297   5.651   1.767
 1076TIP3   OH2 3170   7.397   0.704   5.514
 1076TIP3    H1 3171   7.379   0.705   5.608
 1076TIP3    H2 3172   7.374   0.792   5.484
 1077TIP3   OH2 3173   1.653   7.404   0.962
 1077TIP3    H1 3174   1.611   7.418   1.047
 1077TIP3    H2 3175   1.747   7.402   0.982
 1078TIP3   OH2 3176   1.871   1.899   0.788
 1078TIP3    H1 3177   1.938   1.967   0.793
 1078TIP3    H2 3178   1.875   1.868   0.697
 1079TIP3   OH2 3179   4.607   7.025   2.577
 1079TIP3    H1 3180   4.592   6.981   2.661
 1079TIP3    H2 3181   4.684   7.080   2.592
 1080TIP3   OH2 3182   0.554   0.625   3.813
 1080TIP3    H1 3183   0.622   0.580   3.863
 1080TIP3    H2 3184   0.506   0.676   3.877
 1081TIP3   OH2 3185   3.225   0.344   5.519
 1081TIP3    H1 3186   3.230   0.248   5.527
 1081TIP3    H2 3187   3.315   0.371   5.501
 1082TIP3   OH2 3188   2.690   1.680   2.797
 1082TIP3    H1 3189   2.688   1.655   2.704
 1082TIP3    H2 3190   2.636   1.614   2.840
 1083TIP3   OH2 3191   2.404   2.819   0.865
 1083TIP3    H1 3192   2.452   2.889   0.910
 1083TIP3    H2 3193   2.313   2.832   0.891
 1084TIP3   OH2 3194   6.628   2.276   3.423
 1084TIP3    H1 3195   6.683   2.199   3.409
 1084TIP3    H2 3196   6.539   2.240   3.427
 1085TIP3   OH2 3197   0.980   6.725   3.203
 1085TIP3    H1 3198   0.933   6.645   3.224
 1085TIP3    H2 3199   0.934   6.762   3.128
 1086TIP3   OH2 3200   5.987   0.922   5.491
 1086TIP3    H1 3201   5.947   0.836   5.504
 1086TIP3    H2 3202   6.026   0.918   5.404
 1087TIP3   OH2 3203   6.429   5.991   3.988
 1087TIP3    H1 3204   6.420   5.896   3.999
 1087TIP3    H2 3205   6.377   6.011   3.910
 1088TIP3   OH2 3206   5.430   3.829   4.347
 1088TIP3    H1 3207   5.435   3.733   4.353
 1088TIP3    H2 3208   5.519   3.856   4.326
 1089TIP3   OH2 3209   5.522   0.817   1.809
 1089TIP3    H1 3210   5.513   0.875   1.734
 1089TIP3    H2 3211   5.455   0.847   1.871
 1090TIP3   OH2 3212  -0.001   4.467   1.327
 1090TIP3    H1 3213  -0.045   4.527   1.386
 1090TIP3    H2 3214   0.090   4.466   1.356
 1091TIP3   OH2 3215   5.176   0.291   4.802
 1091TIP3    H1 3216   5.169   0.300   4.897
 1091TIP3    H2 3217   5.249   0.231   4.789
 1092TIP3   OH2 3218   7.477   3.243   3.892
 1092TIP3    H1 3219   7.517   3.230   3.978
 1092TIP3    H2 3220   7.442   3.157   3.869
 1093TIP3   OH2 3221   3.511   0.034   1.998
 1093TIP3    H1 3222   3.497   0.114   2.048
 1093TIP3    H2 3223   3.505   0.061   1.907
 1094TIP3   OH2 3224   0.546   0.718   2.863
 1094TIP3    H1 3225   0.546   0.742   2.771
 1094TIP3    H2 3226   0.638   0.717   2.888
 1095TIP3   OH2 3227   4.728   5.341   4.169
 1095TIP3    H1 3228   4.708   5.322   4.078
 1095TIP3    H2 3229   4.729   5.436   4.174
 1096TIP3   OH2 3230   0.065   3.652   3.848
 1096TIP3    H1 3231   0.065   3.641   3.943
 1096TIP3    H2 3232  -0.021   3.690   3.828
 1097TIP3   OH2 3233   6.430   2.162   6.612
 1097TIP3    H1 3234   6.484   2.238   6.589
 1097TIP3    H2 3235   6.462   2.135   6.698
 1098TIP3   OH2 3236   6.606   7.427   0.915
 1098TIP3    H1 3237   6.628   7.515   0.883
 1098TIP3    H2 3238   6.545   7.442   0.987
 1099TIP3   OH2 3239   4.171   5.519   0.268
 1099TIP3    H1 3240   4.168   5.429   0.234
 1099TIP3    H2 3241   4.106   5.520   0.338
 1100TIP3   OH2 3242   4.379   2.067   3.463
 1100TIP3    H1 3243   4.356   2.010   3.537
 1100TIP3    H2 3244   4.438   2.015   3.409
 1101TIP3   OH2 3245   2.243   2.482   3.678
 1101TIP3    H1 3246   2.293   2.401   3.662
 1101TIP3    H2 3247   2.298   2.533   3.736
 1102TIP3   OH2 3248   1.446   1.240   6.620
 1102TIP3    H1 3249   1.414   1.276   6.538
 1102TIP3    H2 3250   1.511   1.303   6.651
 1103TIP3   OH2 3251   4.370   5.515   2.376
 1103TIP3    H1 3252   4.294   5.493   2.429
 1103TIP3    H2 3253   4.423   5.572   2.433
 1104TIP3   OH2 3254   5.721   4.260   3.390
 1104TIP3    H1 3255   5.668   4.260   3.311
 1104TIP3    H2 3256   5.658   4.248   3.461
 1105TIP3   OH2 3257   1.361   1.077   3.686
 1105TIP3    H1 3258   1.320   0.990   3.689
 1105TIP3    H2 3259   1.290   1.136   3.662
 1106TIP3   OH2 3260   3.576   7.725   2.710
 1106TIP3    H1 3261   3.642   7.751   2.646
 1106TIP3    H2 3262   3.626   7.681   2.779
 1107TIP3   OH2 3263   5.672   2.447   2.359
 1107TIP3    H1 3264   5.711   2.489   2.282
 1107TIP3    H2 3265   5.631   2.520   2.407
 1108TIP3   OH2 3266   4.155   6.143   1.084
 1108TIP3    H1 3267   4.196   6.103   1.161
 1108TIP3    H2 3268   4.088   6.080   1.057
 1109TIP3   OH2 3269   6.869   5.174   1.870
 1109TIP3    H1 3270   6.940   5.130   1.824
 1109TIP3    H2 3271   6.905   5.260   1.892
 1110TIP3   OH2 3272   2.745   0.984   6.716
 1110TIP3    H1 3273   2.792   1.060   6.748
 1110TIP3    H2 3274   2.701   0.948   6.793
 1111TIP3   OH2 3275   4.529   2.858   6.451
 1111TIP3    H1 3276   4.550   2.774   6.490
 1111TIP3    H2 3277   4.601   2.915   6.478
 1112TIP3   OH2 3278   5.576   6.976   0.443
 1112TIP3    H1 3279   5.631   6.911   0.400
 1112TIP3    H2 3280   5.563   7.044   0.376
 1113TIP3   OH2 3281   6.593   2.439   5.530
 1113TIP3    H1 3282   6.540   2.512   5.563
 1113TIP3    H2 3283   6.677   2.450   5.573
 1114TIP3   OH2 3284   3.318   0.328   0.713
 1114TIP3    H1 3285   3.333   0.329   0.807
 1114TIP3    H2 3286   3.309   0.235   0.692
 1115TIP3   OH2 3287   1.368   4.956   2.386
 1115TIP3    H1 3288   1.418   4.875   2.396
 1115TIP3    H2 3289   1.308   4.957   2.461
 1116TIP3   OH2 3290   7.208   4.891   6.100
 1116TIP3    H1 3291   7.162   4.857   6.023
 1116TIP3    H2 3292   7.199   4.822   6.166
 1117TIP3   OH2 3293   5.707   6.659   5.711
 1117TIP3    H1 3294   5.728   6.745   5.749
 1117TIP3    H2 3295   5.646   6.620   5.772
 1118TIP3   OH2 3296   4.485   2.041   5.501
 1118TIP3    H1 3297   4.522   2.085   5.578
 1118TIP3    H2 3298   4.466   2.112   5.440
 1119TIP3   OH2 3299   7.633   4.913   1.780
 1119TIP3    H1 3300   7.728   4.927   1.776
 1119TIP3    H2 3301   7.616   4.890   1.871
 1120TIP3   OH2 3302   2.209   0.526   6.289
 1120TIP3    H1 3303   2.164   0.453   6.247
 1120TIP3    H2 3304   2.163   0.604   6.257
 1121TIP3   OH2 3305   6.781   7.541   1.492
 1121TIP3    H1 3306   6.843   7.530   1.419
 1121TIP3    H2 3307   6.833   7.522   1.570
 1122TIP3   OH2 3308   3.409   0.140   3.684
 1122TIP3    H1 3309   3.451   0.095   3.758
 1122TIP3    H2 3310   3.353   0.074   3.643
 1123TIP3   OH2 3311   6.456   6.338   5.454
 1123TIP3    H1 3312   6.390   6.404   5.433
 1123TIP3    H2 3313   6.512   6.334   5.376
 1124TIP3   OH2 3314   1.182   4.907   5.242
 1124TIP3    H1 3315   1.261   4.936   5.288
 1124TIP3    H2 3316   1.158   4.825   5.285
 1125TIP3   OH2 3317   6.544   6.583   4.665
 1125TIP3    H1 3318   6.597   6.651   4.707
 1125TIP3    H2 3319   6.478   6.631   4.615
 1126TIP3   OH2 3320   2.544   6.220   2.374
 1126TIP3    H1 3321   2.613   6.282   2.398
 1126TIP3    H2 3322   2.526   6.239   2.282
 1127TIP3   OH2 3323   1.344   4.644   3.455
 1127TIP3    H1 3324   1.397   4.580   3.504
 1127TIP3    H2 3325   1.308   4.594   3.382
 1128TIP3   OH2 3326   5.564   3.533   0.843
 1128TIP3    H1 3327   5.608   3.612   0.812
 1128TIP3    H2 3328   5.618   3.461   0.810
 1129TIP3   OH2 3329   7.415   7.010   3.113
 1129TIP3    H1 3330   7.361   7.033   3.189
 1129TIP3    H2 3331   7.505   7.020   3.144
 1130TIP3   OH2 3332   1.189   6.920   3.050
 1130TIP3    H1 3333   1.197   7.003   3.097
 1130TIP3    H2 3334   1.095   6.903   3.046
 1131TIP3   OH2 3335   6.006   0.495   4.475
 1131TIP3    H1 3336   5.989   0.587   4.494
 1131TIP3    H2 3337   6.005   0.491   4.379
 1132TIP3   OH2 3338   7.821   2.125   6.145
 1132TIP3    H1 3339   7.880   2.181   6.095
 1132TIP3    H2 3340   7.745   2.113   6.088
 1133TIP3   OH2 3341   1.443   5.446   1.160
 1133TIP3    H1 3342   1.379   5.498   1.208
 1133TIP3    H2 3343   1.471   5.378   1.222
 1134TIP3   OH2 3344   0.230   0.383   0.911
 1134TIP3    H1 3345   0.222   0.474   0.882
 1134TIP3    H2 3346   0.284   0.341   0.845
 1135TIP3   OH2 3347   6.593   1.555   5.298
 1135TIP3    H1 3348   6.630   1.590   5.379
 1135TIP3    H2 3349   6.669   1.520   5.250
 1136TIP3   OH2 3350   8.158   7.059   5.064
 1136TIP3    H1 3351   8.207   7.087   5.141
 1136TIP3    H2 3352   8.214   7.084   4.990
 1137TIP3   OH2 3353   0.508   7.774   3.543
 1137TIP3    H1 3354   0.430   7.744   3.590
 1137TIP3    H2 3355   0.547   7.694   3.508
 1138TIP3   OH2 3356   0.711   4.429   5.589
 1138TIP3    H1 3357   0.663   4.373   5.528
 1138TIP3    H2 3358   0.684   4.398   5.675
 1139TIP3   OH2 3359   2.324   6.839   1.455
 1139TIP3    H1 3360   2.304   6.746   1.445
 1139TIP3    H2 3361   2.239   6.881   1.466
 1140TIP3   OH2 3362   6.416   5.885   1.454
 1140TIP3    H1 3363   6.456   5.862   1.537
 1140TIP3    H2 3364   6.483   5.932   1.406
 1141TIP3   OH2 3365   7.990   4.903   6.346
 1141TIP3    H1 3366   7.997   4.975   6.282
 1141TIP3    H2 3367   7.912   4.855   6.319
 1142TIP3   OH2 3368   0.519   3.119   3.396
 1142TIP3    H1 3369   0.509   3.034   3.352
 1142TIP3    H2 3370   0.536   3.096   3.488
 1143TIP3   OH2 3371   4.066   4.334   0.911
 1143TIP3    H1 3372   4.127   4.396   0.952
 1143TIP3    H2 3373   4.064   4.359   0.819
 1144TIP3   OH2 3374   3.311   7.479   6.511
 1144TIP3    H1 3375   3.216   7.472   6.502
 1144TIP3    H2 3376   3.339   7.392   6.541
 1145TIP3   OH2 3377   6.743   0.542   5.122
 1145TIP3    H1 3378   6.768   0.450   5.136
 1145TIP3    H2 3379   6.716   0.573   5.208
 1146TIP3   OH2 3380   5.073   4.049   5.601
 1146TIP3    H1 3381   5.146   4.006   5.645
 1146TIP3    H2 3382   5.104   4.065   5.512
 1147TIP3   OH2 3383   1.774   4.415   0.768
 1147TIP3    H1 3384   1.748   4.366   0.690
 1147TIP3    H2 3385   1.857   4.375   0.795
 1148TIP3   OH2 3386   4.199   1.337   3.282
 1148TIP3    H1 3387   4.166   1.293   3.360
 1148TIP3    H2 3388   4.132   1.321   3.215
 1149TIP3   OH2 3389   3.553   2.764   6.437
 1149TIP3    H1 3390   3.619   2.716   6.488
 1149TIP3    H2 3391   3.470   2.725   6.463
 1150TIP3   OH2 3392   1.523   7.783   2.497
 1150TIP3    H1 3393   1.542   7.792   2.591
 1150TIP3    H2 3394   1.600   7.821   2.454
 1151TIP3   OH2 3395   3.491   5.201   4.400
 1151TIP3    H1 3396   3.541   5.220   4.320
 1151TIP3    H2 3397   3.460   5.111   4.389
 1152TIP3   OH2 3398   6.889   5.875   6.168
 1152TIP3    H1 3399   6.909   5.889   6.075
 1152TIP3    H2 3400   6.871   5.781   6.174
 1153TIP3   OH2 3401   3.901   5.487   3.322
 1153TIP3    H1 3402   3.838   5.544   3.368
 1153TIP3    H2 3403   3.886   5.400   3.359
 1154TIP3   OH2 3404   1.902   4.674   2.538
 1154TIP3    H1 3405   1.912   4.665   2.443
 1154TIP3    H2 3406   1.992   4.679   2.571
 1155TIP3   OH2 3407   5.912   4.630   5.928
 1155TIP3    H1 3408   5.922   4.543   5.966
 1155TIP3    H2 3409   5.982   4.682   5.968
 1156TIP3   OH2 3410   5.062   6.300   1.925
 1156TIP3    H1 3411   4.998   6.305   1.854
 1156TIP3    H2 3412   5.018   6.248   1.992
 1157TIP3   OH2 3413   7.775   3.115   5.588
 1157TIP3    H1 3414   7.727   3.193   5.616
 1157TIP3    H2 3415   7.801   3.134   5.498
 1158TIP3   OH2 3416   6.555   0.163   5.360
 1158TIP3    H1 3417   6.478   0.207   5.324
 1158TIP3    H2 3418   6.562   0.082   5.310
 1159TIP3   OH2 3419   1.339   2.548   5.968
 1159TIP3    H1 3420   1.344   2.492   5.889
 1159TIP3    H2 3421   1.396   2.504   6.031
 1160TIP3   OH2 3422   5.131   7.061   6.213
 1160TIP3    H1 3423   5.086   7.134   6.256
 1160TIP3    H2 3424   5.158   7.004   6.285
 1161TIP3   OH2 3425   7.795   1.943   5.115
 1161TIP3    H1 3426   7.884   1.908   5.110
 1161TIP3    H2 3427   7.792   1.988   5.200
 1162TIP3   OH2 3428   4.920   4.342   0.789
 1162TIP3    H1 3429   4.876   4.257   0.778
 1162TIP3    H2 3430   4.906   4.387   0.706
 1163TIP3   OH2 3431   5.929   0.398   2.597
 1163TIP3    H1 3432   5.995   0.384   2.530
 1163TIP3    H2 3433   5.869   0.462   2.558
 1164TIP3   OH2 3434   7.704   5.738   1.185
 1164TIP3    H1 3435   7.678   5.807   1.246
 1164TIP3    H2 3436   7.765   5.684   1.235
 1165TIP3   OH2 3437   7.526   6.152   3.071
 1165TIP3    H1 3438   7.606   6.142   3.123
 1165TIP3    H2 3439   7.557   6.187   2.987
 1166TIP3   OH2 3440   4.768   0.445   1.728
 1166TIP3    H1 3441   4.790   0.496   1.805
 1166TIP3    H2 3442   4.687   0.399   1.751
 1167TIP3   OH2 3443   3.211   5.696   5.090
 1167TIP3    H1 3444   3.204   5.775   5.037
 1167TIP3    H2 3445   3.124   5.655   5.084
 1168TIP3   OH2 3446   6.965   2.426   1.092
 1168TIP3    H1 3447   6.884   2.447   1.044
 1168TIP3    H2 3448   6.968   2.491   1.162
 1169TIP3   OH2 3449   0.945   3.260   1.481
 1169TIP3    H1 3450   1.016   3.323   1.466
 1169TIP3    H2 3451   0.989   3.175   1.486
 1170TIP3   OH2 3452   4.630   5.648   6.134
 1170TIP3    H1 3453   4.570   5.604   6.195
 1170TIP3    H2 3454   4.713   5.653   6.181
 1171TIP3   OH2 3455   5.877   7.592   6.379
 1171TIP3    H1 3456   5.883   7.671   6.325
 1171TIP3    H2 3457   5.836   7.622   6.460
 1172TIP3   OH2 3458   4.663   5.612   5.872
 1172TIP3    H1 3459   4.754   5.630   5.847
 1172TIP3    H2 3460   4.664   5.614   5.968
 1173TIP3   OH2 3461   7.940   5.749   3.332
 1173TIP3    H1 3462   7.890   5.776   3.255
 1173TIP3    H2 3463   7.887   5.777   3.407
 1174TIP3   OH2 3464   5.377   1.899   5.028
 1174TIP3    H1 3465   5.355   1.983   5.067
 1174TIP3    H2 3466   5.296   1.848   5.032
 1175TIP3   OH2 3467   4.895   0.553   4.472
 1175TIP3    H1 3468   4.863   0.639   4.499
 1175TIP3    H2 3469   4.870   0.546   4.380
 1176TIP3   OH2 3470   4.644   6.600   2.111
 1176TIP3    H1 3471   4.667   6.568   2.024
 1176TIP3    H2 3472   4.549   6.589   2.116
 1177TIP3   OH2 3473   3.925   1.798   1.110
 1177TIP3    H1 3474   3.863   1.825   1.178
 1177TIP3    H2 3475   3.970   1.722   1.148
 1178TIP3   OH2 3476   0.402   5.858   4.759
 1178TIP3    H1 3477   0.312   5.861   4.727
 1178TIP3    H2 3478   0.394   5.841   4.852
 1179TIP3   OH2 3479   3.947   1.683   4.591
 1179TIP3    H1 3480   3.902   1.726   4.663
 1179TIP3    H2 3481   3.891   1.699   4.515
 1180TIP3   OH2 3482   0.198   5.582   2.724
 1180TIP3    H1 3483   0.165   5.640   2.793
 1180TIP3    H2 3484   0.144   5.504   2.730
 1181TIP3   OH2 3485   6.997   4.162   4.396
 1181TIP3    H1 3486   7.071   4.176   4.337
 1181TIP3    H2 3487   6.930   4.224   4.366
 1182TIP3   OH2 3488   2.392   2.716   2.787
 1182TIP3    H1 3489   2.395   2.650   2.718
 1182TIP3    H2 3490   2.301   2.717   2.815
 1183TIP3   OH2 3491   4.840   2.325   5.356
 1183TIP3    H1 3492   4.787   2.353   5.282
 1183TIP3    H2 3493   4.830   2.230   5.358
 1184TIP3   OH2 3494   4.816   2.657   6.601
 1184TIP3    H1 3495   4.821   2.634   6.508
 1184TIP3    H2 3496   4.801   2.752   6.600
 1185TIP3   OH2 3497   3.165   1.036   1.738
 1185TIP3    H1 3498   3.074   1.013   1.719
 1185TIP3    H2 3499   3.208   1.034   1.653
 1186TIP3   OH2 3500   2.568   4.087   4.883
 1186TIP3    H1 3501   2.601   3.997   4.873
 1186TIP3    H2 3502   2.473   4.078   4.884
 1187TIP3   OH2 3503   0.643   6.604   6.141
 1187TIP3    H1 3504   0.661   6.688   6.099
 1187TIP3    H2 3505   0.548   6.595   6.136
 1188TIP3   OH2 3506   2.384   7.209   2.205
 1188TIP3    H1 3507   2.477   7.191   2.223
 1188TIP3    H2 3508   2.384   7.254   2.121
 1189TIP3   OH2 3509   4.887   2.779   3.596
 1189TIP3    H1 3510   4.862   2.698   3.551
 1189TIP3    H2 3511   4.975   2.761   3.629
 1190TIP3   OH2 3512   2.887   5.698   6.478
 1190TIP3    H1 3513   2.839   5.630   6.526
 1190TIP3    H2 3514   2.819   5.749   6.434
 1191TIP3   OH2 3515   0.907   3.464   3.842
 1191TIP3    H1 3516   0.912   3.384   3.894
 1191TIP3    H2 3517   0.988   3.464   3.791
 1192TIP3   OH2 3518   2.877   0.050   6.685
 1192TIP3    H1 3519   2.818   0.109   6.640
 1192TIP3    H2 3520   2.927   0.007   6.615
 1193TIP3   OH2 3521   4.275   0.997   4.349
 1193TIP3    H1 3522   4.246   0.915   4.389
 1193TIP3    H2 3523   4.196   1.035   4.311
 1194TIP3   OH2 3524   4.945   7.148   6.760
 1194TIP3    H1 3525   4.935   7.145   6.665
 1194TIP3    H2 3526   4.986   7.233   6.777
 1195TIP3   OH2 3527   2.735   0.081   3.273
 1195TIP3    H1 3528   2.791   0.006   3.295
 1195TIP3    H2 3529   2.649   0.058   3.307
 1196TIP3   OH2 3530   1.711   1.983   3.340
 1196TIP3    H1 3531   1.631   2.010   3.295
 1196TIP3    H2 3532   1.782   2.005   3.279
 1197TIP3   OH2 3533   7.907   0.858   2.553
 1197TIP3    H1 3534   7.861   0.939   2.576
 1197TIP3    H2 3535   7.998   0.874   2.576
 1198TIP3   OH2 3536   7.460   4.724   1.665
 1198TIP3    H1 3537   7.415   4.674   1.733
 1198TIP3    H2 3538   7.509   4.791   1.712
 1199TIP3   OH2 3539   1.266   1.211   5.599
 1199TIP3    H1 3540   1.311   1.166   5.670
 1199TIP3    H2 3541   1.259   1.145   5.530
 1200TIP3   OH2 3542   6.630   7.114   3.766
 1200TIP3    H1 3543   6.611   7.031   3.809
 1200TIP3    H2 3544   6.688   7.160   3.827
 1201TIP3   OH2 3545   7.215   2.790   1.280
 1201TIP3    H1 3546   7.282   2.772   1.346
 1201TIP3    H2 3547   7.213   2.886   1.274
 1202TIP3   OH2 3548   7.008   1.267   6.479
 1202TIP3    H1 3549   7.086   1.283   6.426
 1202TIP3    H2 3550   6.999   1.345   6.534
 1203TIP3   OH2 3551   8.077   0.729   5.734
 1203TIP3    H1 3552   8.130   0.808   5.722
 1203TIP3    H2 3553   8.018   0.728   5.659
 1204TIP3   OH2 3554   5.131   1.297   0.447
 1204TIP3    H1 3555   5.191   1.286   0.521
 1204TIP3    H2 3556   5.064   1.358   0.480
 1205TIP3   OH2 3557   7.053   4.532   2.439
 1205TIP3    H1 3558   6.963   4.537   2.406
 1205TIP3    H2 3559   7.044   4.541   2.534
 1206TIP3   OH2 3560   0.783   5.808   1.152
 1206TIP3    H1 3561   0.728   5.730   1.160
 1206TIP3    H2 3562   0.722   5.878   1.129
 1207TIP3   OH2 3563   3.747   5.656   6.079
 1207TIP3    H1 3564   3.834   5.631   6.112
 1207TIP3    H2 3565   3.763   5.733   6.024
 1208TIP3   OH2 3566   3.196   3.664   4.671
 1208TIP3    H1 3567   3.272   3.713   4.640
 1208TIP3    H2 3568   3.132   3.730   4.694
 1209TIP3   OH2 3569   5.755   7.267   3.844
 1209TIP3    H1 3570   5.715   7.304   3.924
 1209TIP3    H2 3571   5.790   7.183   3.872
 1210TIP3   OH2 3572   4.570   6.063   6.125
 1210TIP3    H1 3573   4.594   6.083   6.215
 1210TIP3    H2 3574   4.508   6.132   6.101
 1211TIP3   OH2 3575   5.835   4.981   3.879
 1211TIP3    H1 3576   5.795   5.036   3.948
 1211TIP3    H2 3577   5.852   5.042   3.807
 1212TIP3   OH2 3578   1.560   5.306   2.145
 1212TIP3    H1 3579   1.534   5.235   2.086
 1212TIP3    H2 3580   1.569   5.264   2.230
 1213TIP3   OH2 3581   3.907   6.067   1.297
 1213TIP3    H1 3582   3.977   6.003   1.286
 1213TIP3    H2 3583   3.880   6.058   1.389
 1214TIP3   OH2 3584   7.034   4.919   6.760
 1214TIP3    H1 3585   7.012   4.978   6.832
 1214TIP3    H2 3586   7.013   4.832   6.794
 1215TIP3   OH2 3587   8.244   2.475   2.945
 1215TIP3    H1 3588   8.244   2.466   2.849
 1215TIP3    H2 3589   8.158   2.511   2.965
 1216TIP3   OH2 3590   1.178   1.492   6.601
 1216TIP3    H1 3591   1.137   1.411   6.571
 1216TIP3    H2 3592   1.127   1.518   6.678
 1217TIP3   OH2 3593   6.209   0.019   5.265
 1217TIP3    H1 3594   6.155   0.042   5.341
 1217TIP3    H2 3595   6.207  -0.076   5.262
 1218TIP3   OH2 3596   3.724   3.580   6.177
 1218TIP3    H1 3597   3.657   3.520   6.144
 1218TIP3    H2 3598   3.703   3.664   6.135
 1219TIP3   OH2 3599   1.724   2.762   4.579
 1219TIP3    H1 3600   1.759   2.781   4.666
 1219TIP3    H2 3601   1.801   2.759   4.523
 1220TIP3   OH2 3602   6.011   2.433   5.633
 1220TIP3    H1 3603   6.006   2.514   5.583
 1220TIP3    H2 3604   6.058   2.457   5.713
 1221TIP3   OH2 3605   3.964   7.312   0.239
 1221TIP3    H1 3606   4.058   7.311   0.254
 1221TIP3    H2 3607   3.929   7.246   0.299
 1222TIP3   OH2 3608   2.330   5.879   1.184
 1222TIP3    H1 3609   2.273   5.940   1.139
 1222TIP3    H2 3610   2.287   5.794   1.175
 1223TIP3   OH2 3611   5.399   5.109   4.039
 1223TIP3    H1 3612   5.332   5.054   3.998
 1223TIP3    H2 3613   5.349   5.180   4.080
 1224TIP3   OH2 3614   3.944   4.959   5.440
 1224TIP3    H1 3615   3.856   4.977   5.473
 1224TIP3    H2 3616   3.936   4.963   5.345
 1225TIP3   OH2 3617   6.666   6.480   2.259
 1225TIP3    H1 3618   6.750   6.508   2.225
 1225TIP3    H2 3619   6.633   6.554   2.310
 1226TIP3   OH2 3620   4.610   4.379   2.093
 1226TIP3    H1 3621   4.680   4.435   2.126
 1226TIP3    H2 3622   4.608   4.395   1.999
 1227TIP3   OH2 3623   0.329   7.698   2.689
 1227TIP3    H1 3624   0.318   7.692   2.594
 1227TIP3    H2 3625   0.369   7.785   2.702
 1228TIP3   OH2 3626   1.192   6.146   4.909
 1228TIP3    H1 3627   1.185   6.160   4.815
 1228TIP3    H2 3628   1.162   6.229   4.948
 1229TIP3   OH2 3629   2.091   6.494   1.592
 1229TIP3    H1 3630   2.055   6.501   1.503
 1229TIP3    H2 3631   2.165   6.434   1.582
 1230TIP3   OH2 3632   0.731   3.399   1.542
 1230TIP3    H1 3633   0.795   3.339   1.503
 1230TIP3    H2 3634   0.733   3.378   1.636
 1231TIP3   OH2 3635   3.245   6.138   2.354
 1231TIP3    H1 3636   3.240   6.057   2.404
 1231TIP3    H2 3637   3.293   6.114   2.275
 1232TIP3   OH2 3638   4.074   2.278   1.003
 1232TIP3    H1 3639   4.162   2.309   1.027
 1232TIP3    H2 3640   4.053   2.213   1.070
 1233TIP3   OH2 3641   2.443   1.926   4.409
 1233TIP3    H1 3642   2.523   1.964   4.447
 1233TIP3    H2 3643   2.386   2.002   4.395
 1234TIP3   OH2 3644   6.140   4.099   1.026
 1234TIP3    H1 3645   6.222   4.145   1.012
 1234TIP3    H2 3646   6.073   4.156   0.989
 1235TIP3   OH2 3647   4.555   6.985   6.060
 1235TIP3    H1 3648   4.467   7.018   6.079
 1235TIP3    H2 3649   4.582   6.942   6.141
 1236TIP3   OH2 3650   2.665   6.039   5.337
 1236TIP3    H1 3651   2.695   6.015   5.250
 1236TIP3    H2 3652   2.640   5.956   5.378
 1237TIP3   OH2 3653   5.522   5.922   3.440
 1237TIP3    H1 3654   5.554   5.933   3.351
 1237TIP3    H2 3655   5.491   6.008   3.466
 1238TIP3   OH2 3656   2.309   3.846   3.432
 1238TIP3    H1 3657   2.365   3.769   3.422
 1238TIP3    H2 3658   2.320   3.873   3.523
 1239TIP3   OH2 3659   0.238   2.106   2.699
 1239TIP3    H1 3660   0.245   2.029   2.642
 1239TIP3    H2 3661   0.143   2.118   2.711
 1240TIP3   OH2 3662   0.055   6.936   5.746
 1240TIP3    H1 3663   0.083   7.006   5.806
 1240TIP3    H2 3664  -0.036   6.918   5.771
 1241TIP3   OH2 3665   3.342   1.832   4.341
 1241TIP3    H1 3666   3.340   1.921   4.376
 1241TIP3    H2 3667   3.288   1.836   4.262
 1242TIP3   OH2 3668   1.691   4.764   4.601
 1242TIP3    H1 3669   1.611   4.730   4.563
 1242TIP3    H2 3670   1.741   4.799   4.527
 1243TIP3   OH2 3671   0.237   7.558   2.925
 1243TIP3    H1 3672   0.253   7.468   2.897
 1243TIP3    H2 3673   0.308   7.609   2.885
 1244TIP3   OH2 3674   7.480   5.997   6.570
 1244TIP3    H1 3675   7.479   5.902   6.558
 1244TIP3    H2 3676   7.438   6.011   6.655
 1245TIP3   OH2 3677   5.763   3.926   1.239
 1245TIP3    H1 3678   5.691   3.981   1.270
 1245TIP3    H2 3679   5.838   3.985   1.234
 1246TIP3   OH2 3680   3.476   2.030   1.577
 1246TIP3    H1 3681   3.564   2.003   1.601
 1246TIP3    H2 3682   3.424   2.016   1.656
 1247TIP3   OH2 3683   0.055   3.036   3.578
 1247TIP3    H1 3684  -0.038   3.014   3.587
 1247TIP3    H2 3685   0.058   3.095   3.503
 1248TIP3   OH2 3686   1.288   4.110   2.505
 1248TIP3    H1 3687   1.383   4.097   2.505
 1248TIP3    H2 3688   1.274   4.186   2.561
 1249TIP3   OH2 3689   0.928   2.118   4.895
 1249TIP3    H1 3690   0.977   2.047   4.855
 1249TIP3    H2 3691   0.850   2.128   4.840
 1250TIP3   OH2 3692   4.196   4.434   0.263
 1250TIP3    H1 3693   4.268   4.401   0.318
 1250TIP3    H2 3694   4.224   4.415   0.174
 1251TIP3   OH2 3695   2.523   7.648   0.468
 1251TIP3    H1 3696   2.498   7.564   0.507
 1251TIP3    H2 3697   2.514   7.634   0.374
 1252TIP3   OH2 3698   2.415   7.612   4.775
 1252TIP3    H1 3699   2.334   7.618   4.826
 1252TIP3    H2 3700   2.469   7.683   4.809
 1253TIP3   OH2 3701   0.783   0.920   3.217
 1253TIP3    H1 3702   0.853   0.907   3.282
 1253TIP3    H2 3703   0.720   0.850   3.236
 1254TIP3   OH2 3704   5.326   5.457   3.925
 1254TIP3    H1 3705   5.246   5.476   3.877
 1254TIP3    H2 3706   5.299   5.396   3.994
 1255TIP3   OH2 3707   1.854   5.479   2.655
 1255TIP3    H1 3708   1.930   5.472   2.597
 1255TIP3    H2 3709   1.814   5.563   2.631
 1256TIP3   OH2 3710   6.702   6.036   6.296
 1256TIP3    H1 3711   6.768   5.973   6.267
 1256TIP3    H2 3712   6.681   6.087   6.218
 1257TIP3   OH2 3713   6.165   5.981   4.374
 1257TIP3    H1 3714   6.210   6.049   4.324
 1257TIP3    H2 3715   6.133   5.919   4.308
 1258TIP3   OH2 3716   0.900   2.311   1.127
 1258TIP3    H1 3717   0.879   2.231   1.175
 1258TIP3    H2 3718   0.817   2.357   1.119
 1259TIP3   OH2 3719   2.478   0.265   4.785
 1259TIP3    H1 3720   2.562   0.230   4.817
 1259TIP3    H2 3721   2.454   0.207   4.713
 1260TIP3   OH2 3722   0.136   7.558   5.071
 1260TIP3    H1 3723   0.140   7.628   5.007
 1260TIP3    H2 3724   0.209   7.575   5.130
 1261TIP3   OH2 3725   3.054   6.448   6.114
 1261TIP3    H1 3726   3.132   6.453   6.170
 1261TIP3    H2 3727   3.048   6.535   6.074
 1262TIP3   OH2 3728   4.653   1.058   5.945
 1262TIP3    H1 3729   4.664   1.088   6.035
 1262TIP3    H2 3730   4.690   1.128   5.892
 1263TIP3   OH2 3731   4.770   5.133   2.053
 1263TIP3    H1 3732   4.792   5.227   2.054
 1263TIP3    H2 3733   4.777   5.108   1.961
 1264TIP3   OH2 3734   7.552   5.405   3.498
 1264TIP3    H1 3735   7.607   5.425   3.574
 1264TIP3    H2 3736   7.605   5.430   3.423
 1265TIP3   OH2 3737   6.428   4.780   0.580
 1265TIP3    H1 3738   6.440   4.720   0.507
 1265TIP3    H2 3739   6.469   4.737   0.654
 1266TIP3   OH2 3740   6.440   1.628   3.379
 1266TIP3    H1 3741   6.378   1.568   3.337
 1266TIP3    H2 3742   6.451   1.592   3.467
 1267TIP3   OH2 3743   6.483   3.031   1.972
 1267TIP3    H1 3744   6.470   3.106   2.030
 1267TIP3    H2 3745   6.534   2.968   2.024
 1268TIP3   OH2 3746   2.045   6.430   1.311
 1268TIP3    H1 3747   2.073   6.482   1.236
 1268TIP3    H2 3748   1.957   6.462   1.331
 1269TIP3   OH2 3749   1.294   4.694   0.303
 1269TIP3    H1 3750   1.221   4.718   0.360
 1269TIP3    H2 3751   1.253   4.672   0.220
 1270TIP3   OH2 3752   2.637   2.182   4.727
 1270TIP3    H1 3753   2.577   2.216   4.662
 1270TIP3    H2 3754   2.582   2.162   4.803
 1271TIP3   OH2 3755   3.932   2.581   0.466
 1271TIP3    H1 3756   3.917   2.559   0.374
 1271TIP3    H2 3757   3.845   2.604   0.499
 1272TIP3   OH2 3758   4.834   3.332   4.661
 1272TIP3    H1 3759   4.872   3.319   4.574
 1272TIP3    H2 3760   4.858   3.253   4.709
 1273TIP3   OH2 3761   5.765   0.382   4.051
 1273TIP3    H1 3762   5.811   0.336   3.981
 1273TIP3    H2 3763   5.683   0.413   4.011
 1274TIP3   OH2 3764   4.267   5.792   0.170
 1274TIP3    H1 3765   4.246   5.701   0.187
 1274TIP3    H2 3766   4.319   5.791   0.090
 1275TIP3   OH2 3767   6.251   4.863   1.633
 1275TIP3    H1 3768   6.187   4.877   1.703
 1275TIP3    H2 3769   6.297   4.783   1.658
 1276TIP3   OH2 3770   2.176   1.421   4.255
 1276TIP3    H1 3771   2.194   1.426   4.349
 1276TIP3    H2 3772   2.084   1.397   4.250
 1277TIP3   OH2 3773   6.586   0.285   2.521
 1277TIP3    H1 3774   6.648   0.246   2.582
 1277TIP3    H2 3775   6.500   0.267   2.558
 1278TIP3   OH2 3776   1.841   0.384   5.202
 1278TIP3    H1 3777   1.762   0.438   5.203
 1278TIP3    H2 3778   1.809   0.296   5.222
 1279TIP3   OH2 3779   6.728   0.014   1.261
 1279TIP3    H1 3780   6.796   0.008   1.327
 1279TIP3    H2 3781   6.652   0.049   1.307
 1280TIP3   OH2 3782   4.770   2.444   6.363
 1280TIP3    H1 3783   4.862   2.428   6.379
 1280TIP3    H2 3784   4.726   2.417   6.443
 1281TIP3   OH2 3785   2.914   1.789   0.665
 1281TIP3    H1 3786   2.850   1.754   0.603
 1281TIP3    H2 3787   2.975   1.717   0.681
 1282TIP3   OH2 3788   6.478   2.855   1.048
 1282TIP3    H1 3789   6.567   2.849   1.012
 1282TIP3    H2 3790   6.490   2.872   1.141
 1283TIP3   OH2 3791   4.260   0.351   2.925
 1283TIP3    H1 3792   4.273   0.438   2.888
 1283TIP3    H2 3793   4.348   0.315   2.932
 1284TIP3   OH2 3794   2.781   3.967   1.067
 1284TIP3    H1 3795   2.812   4.033   1.005
 1284TIP3    H2 3796   2.859   3.914   1.085
 1285TIP3   OH2 3797   5.937   2.059   5.276
 1285TIP3    H1 3798   5.887   2.089   5.200
 1285TIP3    H2 3799   6.004   2.127   5.288
 1286TIP3   OH2 3800   1.028   5.957   2.327
 1286TIP3    H1 3801   1.028   5.887   2.262
 1286TIP3    H2 3802   0.970   6.024   2.290
 1287TIP3   OH2 3803   6.243   4.986   1.903
 1287TIP3    H1 3804   6.320   5.010   1.851
 1287TIP3    H2 3805   6.270   4.908   1.951
 1288TIP3   OH2 3806   4.643   7.676   6.454
 1288TIP3    H1 3807   4.588   7.663   6.532
 1288TIP3    H2 3808   4.612   7.758   6.416
 1289TIP3   OH2 3809   5.279   2.501   3.612
 1289TIP3    H1 3810   5.198   2.471   3.571
 1289TIP3    H2 3811   5.347   2.477   3.550
 1290TIP3   OH2 3812   0.873   7.564   6.525
 1290TIP3    H1 3813   0.846   7.488   6.577
 1290TIP3    H2 3814   0.803   7.628   6.538
 1291TIP3   OH2 3815   7.467   0.847   2.729
 1291TIP3    H1 3816   7.488   0.830   2.821
 1291TIP3    H2 3817   7.531   0.796   2.680
 1292TIP3   OH2 3818   1.220   7.644   4.610
 1292TIP3    H1 3819   1.254   7.585   4.677
 1292TIP3    H2 3820   1.201   7.587   4.535
 1293TIP3   OH2 3821   3.495   1.941   6.655
 1293TIP3    H1 3822   3.419   1.988   6.689
 1293TIP3    H2 3823   3.570   1.978   6.701
 1294TIP3   OH2 3824   4.137   2.632   1.590
 1294TIP3    H1 3825   4.232   2.623   1.595
 1294TIP3    H2 3826   4.118   2.630   1.496
 1295TIP3   OH2 3827   6.011   2.722   4.039
 1295TIP3    H1 3828   6.072   2.762   3.977
 1295TIP3    H2 3829   5.926   2.728   3.996
 1296TIP3   OH2 3830   2.659   7.558   2.529
 1296TIP3    H1 3831   2.633   7.585   2.617
 1296TIP3    H2 3832   2.591   7.497   2.502
 1297TIP3   OH2 3833   6.479   7.538   0.610
 1297TIP3    H1 3834   6.512   7.530   0.520
 1297TIP3    H2 3835   6.558   7.554   0.663
 1298TIP3   OH2 3836   6.331   3.581   3.604
 1298TIP3    H1 3837   6.249   3.535   3.587
 1298TIP3    H2 3838   6.378   3.525   3.666
 1299TIP3   OH2 3839   2.384   3.779   6.238
 1299TIP3    H1 3840   2.366   3.686   6.248
 1299TIP3    H2 3841   2.411   3.789   6.147
 1300TIP3   OH2 3842   7.377   0.092   6.671
 1300TIP3    H1 3843   7.425   0.170   6.643
 1300TIP3    H2 3844   7.335   0.118   6.753
 1301TIP3   OH2 3845   1.324   0.872   5.529
 1301TIP3    H1 3846   1.285   0.811   5.467
 1301TIP3    H2 3847   1.275   0.860   5.610
 1302TIP3   OH2 3848   6.670   7.183   3.181
 1302TIP3    H1 3849   6.730   7.114   3.209
 1302TIP3    H2 3850   6.726   7.259   3.167
 1303TIP3   OH2 3851   7.033   3.049   1.878
 1303TIP3    H1 3852   7.011   2.983   1.812
 1303TIP3    H2 3853   7.044   3.130   1.828
 1304TIP3   OH2 3854   1.295   2.921   3.372
 1304TIP3    H1 3855   1.278   2.869   3.293
 1304TIP3    H2 3856   1.285   2.859   3.444
 1305TIP3   OH2 3857   7.608   5.115   5.909
 1305TIP3    H1 3858   7.630   5.024   5.890
 1305TIP3    H2 3859   7.515   5.122   5.889
 1306TIP3   OH2 3860   5.722   3.572   1.585
 1306TIP3    H1 3861   5.712   3.666   1.594
 1306TIP3    H2 3862   5.694   3.536   1.669
 1307TIP3   OH2 3863   4.004   4.821   2.134
 1307TIP3    H1 3864   4.087   4.774   2.142
 1307TIP3    H2 3865   4.021   4.906   2.175
 1308TIP3   OH2 3866   7.450   3.637   1.382
 1308TIP3    H1 3867   7.474   3.549   1.412
 1308TIP3    H2 3868   7.454   3.691   1.461
 1309TIP3   OH2 3869   1.509   1.286   3.885
 1309TIP3    H1 3870   1.441   1.255   3.945
 1309TIP3    H2 3871   1.460   1.321   3.810
 1310TIP3   OH2 3872   3.371   7.132   1.063
 1310TIP3    H1 3873   3.369   7.044   1.101
 1310TIP3    H2 3874   3.373   7.118   0.969
 1311TIP3   OH2 3875   1.309   2.253   0.988
 1311TIP3    H1 3876   1.362   2.208   0.923
 1311TIP3    H2 3877   1.224   2.265   0.945
 1312TIP3   OH2 3878   1.887   4.325   2.444
 1312TIP3    H1 3879   1.828   4.366   2.507
 1312TIP3    H2 3880   1.852   4.349   2.359
 1313TIP3   OH2 3881   8.165   2.064   0.687
 1313TIP3    H1 3882   8.216   2.049   0.608
 1313TIP3    H2 3883   8.095   2.124   0.660
 1314TIP3   OH2 3884   0.007   3.942   1.949
 1314TIP3    H1 3885   0.002   3.999   2.025
 1314TIP3    H2 3886   0.094   3.902   1.955
 1315TIP3   OH2 3887   7.747   4.687   6.668
 1315TIP3    H1 3888   7.806   4.740   6.721
 1315TIP3    H2 3889   7.805   4.641   6.607
 1316TIP3   OH2 3890   7.273   4.942   1.959
 1316TIP3    H1 3891   7.264   4.904   1.871
 1316TIP3    H2 3892   7.367   4.938   1.978
 1317TIP3   OH2 3893   2.388   1.439   2.521
 1317TIP3    H1 3894   2.390   1.430   2.425
 1317TIP3    H2 3895   2.386   1.349   2.553
 1318TIP3   OH2 3896   7.477   1.476   5.400
 1318TIP3    H1 3897   7.553   1.532   5.380
 1318TIP3    H2 3898   7.480   1.465   5.495
 1319TIP3   OH2 3899   5.997   1.024   6.041
 1319TIP3    H1 3900   6.030   0.937   6.063
 1319TIP3    H2 3901   5.977   1.063   6.126
 1320TIP3   OH2 3902   2.340   2.470   1.641
 1320TIP3    H1 3903   2.423   2.438   1.676
 1320TIP3    H2 3904   2.338   2.439   1.550
 1321TIP3   OH2 3905   3.732   5.942   3.608
 1321TIP3    H1 3906   3.814   5.990   3.619
 1321TIP3    H2 3907   3.685   5.954   3.691
 1322TIP3   OH2 3908   1.054   2.583   6.035
 1322TIP3    H1 3909   1.150   2.585   6.035
 1322TIP3    H2 3910   1.032   2.507   5.981
 1323TIP3   OH2 3911   2.121   4.868   1.631
 1323TIP3    H1 3912   2.144   4.782   1.596
 1323TIP3    H2 3913   2.104   4.922   1.554
 1324TIP3   OH2 3914   2.777   6.038   2.219
 1324TIP3    H1 3915   2.832   6.056   2.296
 1324TIP3    H2 3916   2.717   5.970   2.249
 1325TIP3   OH2 3917   4.492   5.842   5.200
 1325TIP3    H1 3918   4.524   5.801   5.281
 1325TIP3    H2 3919   4.468   5.930   5.227
 1326TIP3   OH2 3920   5.793   0.710   4.142
 1326TIP3    H1 3921   5.791   0.800   4.177
 1326TIP3    H2 3922   5.786   0.655   4.220
 1327TIP3   OH2 3923   1.668   4.999   3.725
 1327TIP3    H1 3924   1.696   5.088   3.706
 1327TIP3    H2 3925   1.574   4.999   3.708
 1328TIP3   OH2 3926   0.775   3.535   0.735
 1328TIP3    H1 3927   0.774   3.557   0.641
 1328TIP3    H2 3928   0.705   3.588   0.773
 1329TIP3   OH2 3929   2.096   3.629   0.543
 1329TIP3    H1 3930   2.011   3.601   0.509
 1329TIP3    H2 3931   2.078   3.713   0.586
 1330TIP3   OH2 3932   5.205   5.398   5.954
 1330TIP3    H1 3933   5.238   5.476   5.910
 1330TIP3    H2 3934   5.274   5.375   6.017
 1331TIP3   OH2 3935   0.772   6.006   3.704
 1331TIP3    H1 3936   0.845   6.059   3.674
 1331TIP3    H2 3937   0.805   5.960   3.781
 1332TIP3   OH2 3938   2.276   6.682   6.715
 1332TIP3    H1 3939   2.297   6.588   6.706
 1332TIP3    H2 3940   2.362   6.725   6.715
 1333TIP3   OH2 3941   6.475   6.597   0.722
 1333TIP3    H1 3942   6.420   6.521   0.740
 1333TIP3    H2 3943   6.420   6.672   0.743
 1334TIP3   OH2 3944   1.805   2.416   1.552
 1334TIP3    H1 3945   1.889   2.371   1.558
 1334TIP3    H2 3946   1.828   2.509   1.548
 1335TIP3   OH2 3947   0.367   6.785   0.017
 1335TIP3    H1 3948   0.295   6.763   0.076
 1335TIP3    H2 3949   0.328   6.783  -0.071
 1336TIP3   OH2 3950   1.315   2.479   3.709
 1336TIP3    H1 3951   1.280   2.390   3.709
 1336TIP3    H2 3952   1.276   2.521   3.786
 1337TIP3   OH2 3953   3.069   1.392   5.474
 1337TIP3    H1 3954   3.086   1.303   5.507
 1337TIP3    H2 3955   3.146   1.413   5.422
 1338TIP3   OH2 3956   5.336   2.451   6.639
 1338TIP3    H1 3957   5.291   2.368   6.654
 1338TIP3    H2 3958   5.321   2.501   6.719
 1339TIP3   OH2 3959   2.778   3.187   4.570
 1339TIP3    H1 3960   2.828   3.263   4.598
 1339TIP3    H2 3961   2.808   3.170   4.481
 1340TIP3   OH2 3962   3.429   4.884   3.696
 1340TIP3    H1 3963   3.414   4.941   3.771
 1340TIP3    H2 3964   3.352   4.827   3.692
 1341TIP3   OH2 3965   3.429   2.008   6.212
 1341TIP3    H1 3966   3.453   2.010   6.120
 1341TIP3    H2 3967   3.497   1.956   6.254
 1342TIP3   OH2 3968   5.814   6.977   3.473
 1342TIP3    H1 3969   5.799   6.889   3.507
 1342TIP3    H2 3970   5.736   7.026   3.498
 1343TIP3   OH2 3971   0.922   7.179   1.450
 1343TIP3    H1 3972   0.985   7.107   1.443
 1343TIP3    H2 3973   0.930   7.227   1.368
 1344TIP3   OH2 3974   2.375   6.252   2.632
 1344TIP3    H1 3975   2.410   6.262   2.721
 1344TIP3    H2 3976   2.444   6.206   2.584
 1345TIP3   OH2 3977   0.892   3.344   6.321
 1345TIP3    H1 3978   0.952   3.343   6.396
 1345TIP3    H2 3979   0.807   3.319   6.358
 1346TIP3   OH2 3980   7.942   1.143   6.123
 1346TIP3    H1 3981   7.924   1.236   6.132
 1346TIP3    H2 3982   7.856   1.103   6.109
 1347TIP3   OH2 3983   7.639   6.788   0.918
 1347TIP3    H1 3984   7.620   6.721   0.983
 1347TIP3    H2 3985   7.580   6.860   0.940
 1348TIP3   OH2 3986   5.094   0.212   6.061
 1348TIP3    H1 3987   5.001   0.229   6.052
 1348TIP3    H2 3988   5.136   0.270   5.997
 1349TIP3   OH2 3989   2.029   3.342   2.523
 1349TIP3    H1 3990   2.001   3.278   2.588
 1349TIP3    H2 3991   2.034   3.425   2.570
 1350TIP3   OH2 3992   6.181   4.629   0.876
 1350TIP3    H1 3993   6.245   4.606   0.944
 1350TIP3    H2 3994   6.181   4.725   0.875
 1351TIP3   OH2 3995   4.249   4.165   4.986
 1351TIP3    H1 3996   4.185   4.171   4.914
 1351TIP3    H2 3997   4.214   4.096   5.043
 1352TIP3   OH2 3998   3.555   3.799   3.212
 1352TIP3    H1 3999   3.598   3.738   3.271
 1352TIP3    H2 4000   3.542   3.879   3.264
 1353TIP3   OH2 4001   7.724   1.962   1.136
 1353TIP3    H1 4002   7.678   1.897   1.083
 1353TIP3    H2 4003   7.760   1.912   1.210
 1354TIP3   OH2 4004   4.209   6.004   1.313
 1354TIP3    H1 4005   4.248   6.018   1.399
 1354TIP3    H2 4006   4.185   5.911   1.312
 1355TIP3   OH2 4007   7.202   6.953   6.446
 1355TIP3    H1 4008   7.176   7.043   6.468
 1355TIP3    H2 4009   7.233   6.916   6.529
 1356TIP3   OH2 4010   6.199   7.559   0.303
 1356TIP3    H1 4011   6.107   7.572   0.327
 1356TIP3    H2 4012   6.243   7.639   0.331
 1357TIP3   OH2 4013   1.174   3.952   5.552
 1357TIP3    H1 4014   1.224   3.941   5.471
 1357TIP3    H2 4015   1.240   3.960   5.620
 1358TIP3   OH2 4016   0.513   2.562   5.196
 1358TIP3    H1 4017   0.438   2.587   5.251
 1358TIP3    H2 4018   0.588   2.604   5.238
 1359TIP3   OH2 4019   4.607   0.088   0.343
 1359TIP3    H1 4020   4.558   0.035   0.279
 1359TIP3    H2 4021   4.695   0.093   0.308
 1360TIP3   OH2 4022   8.094   5.465   6.371
 1360TIP3    H1 4023   8.076   5.546   6.323
 1360TIP3    H2 4024   8.081   5.396   6.306
 1361TIP3   OH2 4025   1.145   2.690   2.064
 1361TIP3    H1 4026   1.175   2.705   1.975
 1361TIP3    H2 4027   1.057   2.728   2.067
 1362TIP3   OH2 4028   5.402   0.449   0.897
 1362TIP3    H1 4029   5.403   0.415   0.987
 1362TIP3    H2 4030   5.311   0.436   0.868
 1363TIP3   OH2 4031   2.714   1.148   0.609
 1363TIP3    H1 4032   2.733   1.073   0.664
 1363TIP3    H2 4033   2.784   1.148   0.544
 1364TIP3   OH2 4034   6.624   0.021   6.344
 1364TIP3    H1 4035   6.594  -0.040   6.411
 1364TIP3    H2 4036   6.707   0.055   6.378
 1365TIP3   OH2 4037   5.507   2.438   3.104
 1365TIP3    H1 4038   5.413   2.440   3.084
 1365TIP3    H2 4039   5.549   2.465   3.023
 1366TIP3   OH2 4040   0.675   2.221   3.676
 1366TIP3    H1 4041   0.632   2.136   3.667
 1366TIP3    H2 4042   0.602   2.283   3.687
 1367TIP3   OH2 4043   5.329   5.232   5.642
 1367TIP3    H1 4044   5.344   5.228   5.547
 1367TIP3    H2 4045   5.360   5.318   5.668
 1368TIP3   OH2 4046   8.092   7.680   1.612
 1368TIP3    H1 4047   8.043   7.725   1.681
 1368TIP3    H2 4048   8.183   7.708   1.624
 1369TIP3   OH2 4049   8.037   1.724   3.365
 1369TIP3    H1 4050   7.944   1.732   3.390
 1369TIP3    H2 4051   8.078   1.801   3.403
 1370TIP3   OH2 4052   4.450   4.185   3.082
 1370TIP3    H1 4053   4.402   4.228   3.154
 1370TIP3    H2 4054   4.385   4.128   3.041
 1371TIP3   OH2 4055   8.093   1.831   2.439
 1371TIP3    H1 4056   8.016   1.776   2.424
 1371TIP3    H2 4057   8.166   1.769   2.446
 1372TIP3   OH2 4058   0.664   5.027   3.382
 1372TIP3    H1 4059   0.683   5.015   3.289
 1372TIP3    H2 4060   0.681   5.120   3.399
 1373TIP3   OH2 4061   2.452   5.738   1.677
 1373TIP3    H1 4062   2.392   5.753   1.603
 1373TIP3    H2 4063   2.394   5.713   1.749
 1374TIP3   OH2 4064   1.247   0.156   2.328
 1374TIP3    H1 4065   1.217   0.244   2.346
 1374TIP3    H2 4066   1.175   0.114   2.281
 1375TIP3   OH2 4067   2.898   4.066   1.995
 1375TIP3    H1 4068   2.812   4.091   1.962
 1375TIP3    H2 4069   2.954   4.065   1.918
 1376TIP3   OH2 4070   5.861   0.378   6.343
 1376TIP3    H1 4071   5.935   0.336   6.298
 1376TIP3    H2 4072   5.786   0.360   6.286
 1377TIP3   OH2 4073   2.028   3.331   6.500
 1377TIP3    H1 4074   1.981   3.253   6.529
 1377TIP3    H2 4075   2.041   3.318   6.406
 1378TIP3   OH2 4076   5.417   0.887   5.172
 1378TIP3    H1 4077   5.489   0.890   5.235
 1378TIP3    H2 4078   5.340   0.912   5.224
 1379TIP3   OH2 4079   7.195   5.083   0.889
 1379TIP3    H1 4080   7.187   5.101   0.795
 1379TIP3    H2 4081   7.182   5.168   0.931
 1380TIP3   OH2 4082   8.037   4.523   5.133
 1380TIP3    H1 4083   7.954   4.559   5.103
 1380TIP3    H2 4084   8.102   4.557   5.071
 1381TIP3   OH2 4085   4.653   2.386   0.180
 1381TIP3    H1 4086   4.607   2.303   0.168
 1381TIP3    H2 4087   4.587   2.446   0.215
 1382TIP3   OH2 4088   5.267   2.443   2.998
 1382TIP3    H1 4089   5.241   2.528   2.961
 1382TIP3    H2 4090   5.219   2.379   2.946
 1383TIP3   OH2 4091   5.804   3.796   6.078
 1383TIP3    H1 4092   5.728   3.818   6.132
 1383TIP3    H2 4093   5.873   3.776   6.142
 1384TIP3   OH2 4094   5.878   0.508   1.550
 1384TIP3    H1 4095   5.809   0.474   1.493
 1384TIP3    H2 4096   5.849   0.596   1.574
 1385TIP3   OH2 4097   6.075   0.633   5.820
 1385TIP3    H1 4098   6.038   0.598   5.739
 1385TIP3    H2 4099   6.116   0.716   5.793
 1386TIP3   OH2 4100   3.529   4.662   0.396
 1386TIP3    H1 4101   3.620   4.639   0.378
 1386TIP3    H2 4102   3.477   4.601   0.344
 1387TIP3   OH2 4103   5.860   3.730   6.563
 1387TIP3    H1 4104   5.874   3.661   6.498
 1387TIP3    H2 4105   5.800   3.791   6.520
 1388TIP3   OH2 4106   1.880   1.985   3.904
 1388TIP3    H1 4107   1.850   2.022   3.821
 1388TIP3    H2 4108   1.909   2.060   3.955
 1389TIP3   OH2 4109   4.597   3.990   4.112
 1389TIP3    H1 4110   4.567   4.033   4.031
 1389TIP3    H2 4111   4.555   3.904   4.111
 1390TIP3   OH2 4112   5.092   1.103   1.882
 1390TIP3    H1 4113   5.063   1.016   1.909
 1390TIP3    H2 4114   5.011   1.154   1.876
 1391TIP3   OH2 4115   0.878   7.594   5.922
 1391TIP3    H1 4116   0.876   7.684   5.888
 1391TIP3    H2 4117   0.970   7.576   5.938
 1392TIP3   OH2 4118   2.590   1.684   1.687
 1392TIP3    H1 4119   2.507   1.714   1.724
 1392TIP3    H2 4120   2.566   1.617   1.623
 1393TIP3   OH2 4121   3.148   3.162   4.250
 1393TIP3    H1 4122   3.135   3.255   4.263
 1393TIP3    H2 4123   3.211   3.156   4.177
 1394TIP3   OH2 4124   0.502   2.726   6.550
 1394TIP3    H1 4125   0.543   2.740   6.465
 1394TIP3    H2 4126   0.560   2.770   6.612
 1395TIP3   OH2 4127   4.465   4.909   2.678
 1395TIP3    H1 4128   4.453   4.913   2.773
 1395TIP3    H2 4129   4.422   4.989   2.645
 1396TIP3   OH2 4130   3.418   5.604   4.007
 1396TIP3    H1 4131   3.435   5.597   4.101
 1396TIP3    H2 4132   3.327   5.631   4.001
 1397TIP3   OH2 4133   2.564   4.056   1.362
 1397TIP3    H1 4134   2.526   4.078   1.277
 1397TIP3    H2 4135   2.659   4.056   1.347
 1398TIP3   OH2 4136   2.664   2.360   4.064
 1398TIP3    H1 4137   2.578   2.375   4.104
 1398TIP3    H2 4138   2.721   2.425   4.105
 1399TIP3   OH2 4139   4.872   1.715   5.247
 1399TIP3    H1 4140   4.863   1.800   5.291
 1399TIP3    H2 4141   4.859   1.734   5.155
 1400TIP3   OH2 4142   1.703   3.791   4.798
 1400TIP3    H1 4143   1.697   3.885   4.783
 1400TIP3    H2 4144   1.725   3.783   4.891
 1401TIP3   OH2 4145   0.785   6.855   2.721
 1401TIP3    H1 4146   0.771   6.930   2.780
 1401TIP3    H2 4147   0.818   6.895   2.640
 1402TIP3   OH2 4148   0.471   5.410   1.095
 1402TIP3    H1 4149   0.509   5.324   1.108
 1402TIP3    H2 4150   0.490   5.432   1.004
 1403TIP3   OH2 4151   5.039   5.917   5.803
 1403TIP3    H1 4152   5.080   5.974   5.738
 1403TIP3    H2 4153   4.946   5.943   5.801
 1404TIP3   OH2 4154   7.831   6.805   5.390
 1404TIP3    H1 4155   7.741   6.802   5.359
 1404TIP3    H2 4156   7.853   6.898   5.391
 1405TIP3   OH2 4157   3.140   5.832   1.547
 1405TIP3    H1 4158   3.211   5.824   1.610
 1405TIP3    H2 4159   3.184   5.838   1.462
 1406TIP3   OH2 4160   4.080   3.469   6.370
 1406TIP3    H1 4161   4.114   3.557   6.385
 1406TIP3    H2 4162   4.134   3.412   6.425
 1407TIP3   OH2 4163   0.801   5.323   0.084
 1407TIP3    H1 4164   0.761   5.241   0.113
 1407TIP3    H2 4165   0.788   5.323  -0.011
 1408TIP3   OH2 4166   2.300   0.005   6.420
 1408TIP3    H1 4167   2.336  -0.060   6.481
 1408TIP3    H2 4168   2.375   0.032   6.367
 1409TIP3   OH2 4169   6.610   3.440   0.953
 1409TIP3    H1 4170   6.559   3.361   0.937
 1409TIP3    H2 4171   6.605   3.453   1.048
 1410TIP3   OH2 4172   6.282   3.339   4.909
 1410TIP3    H1 4173   6.215   3.402   4.934
 1410TIP3    H2 4174   6.256   3.310   4.821
 1411TIP3   OH2 4175   0.145   5.870   0.092
 1411TIP3    H1 4176   0.198   5.871   0.171
 1411TIP3    H2 4177   0.154   5.780   0.058
 1412TIP3   OH2 4178   6.638   0.991   0.963
 1412TIP3    H1 4179   6.726   1.005   0.929
 1412TIP3    H2 4180   6.584   0.973   0.886
 1413TIP3   OH2 4181   0.966   3.169   5.270
 1413TIP3    H1 4182   1.004   3.250   5.236
 1413TIP3    H2 4183   0.897   3.197   5.329
 1414TIP3   OH2 4184   1.440   4.075   2.211
 1414TIP3    H1 4185   1.345   4.086   2.213
 1414TIP3    H2 4186   1.472   4.130   2.282
 1415TIP3   OH2 4187   4.935   4.038   5.127
 1415TIP3    H1 4188   4.966   4.102   5.192
 1415TIP3    H2 4189   4.844   4.022   5.151
 1416TIP3   OH2 4190   7.392   2.593   3.430
 1416TIP3    H1 4191   7.345   2.602   3.347
 1416TIP3    H2 4192   7.325   2.604   3.497
 1417TIP3   OH2 4193   3.590   6.436   6.267
 1417TIP3    H1 4194   3.623   6.435   6.357
 1417TIP3    H2 4195   3.580   6.529   6.247
 1418TIP3   OH2 4196   6.126   0.395   0.806
 1418TIP3    H1 4197   6.119   0.315   0.754
 1418TIP3    H2 4198   6.199   0.443   0.767
 1419TIP3   OH2 4199   6.181   3.258   0.588
 1419TIP3    H1 4200   6.262   3.286   0.630
 1419TIP3    H2 4201   6.117   3.324   0.612
 1420TIP3   OH2 4202   7.664   6.458   3.040
 1420TIP3    H1 4203   7.749   6.454   3.084
 1420TIP3    H2 4204   7.674   6.400   2.964
 1421TIP3   OH2 4205   4.239   5.546   6.149
 1421TIP3    H1 4206   4.282   5.521   6.067
 1421TIP3    H2 4207   4.286   5.625   6.177
 1422TIP3   OH2 4208   7.442   5.839   1.725
 1422TIP3    H1 4209   7.500   5.915   1.730
 1422TIP3    H2 4210   7.440   5.817   1.632
 1423TIP3   OH2 4211   3.305   6.555   0.334
 1423TIP3    H1 4212   3.392   6.531   0.368
 1423TIP3    H2 4213   3.293   6.646   0.360
 1424TIP3   OH2 4214   7.809   2.638   6.591
 1424TIP3    H1 4215   7.869   2.663   6.521
 1424TIP3    H2 4216   7.771   2.555   6.562
 1425TIP3   OH2 4217   4.963   5.922   6.721
 1425TIP3    H1 4218   5.034   5.985   6.715
 1425TIP3    H2 4219   4.964   5.893   6.812
 1426TIP3   OH2 4220   7.482   0.628   4.863
 1426TIP3    H1 4221   7.504   0.719   4.880
 1426TIP3    H2 4222   7.500   0.616   4.770
 1427TIP3   OH2 4223   2.903   0.454   6.463
 1427TIP3    H1 4224   2.884   0.534   6.512
 1427TIP3    H2 4225   2.827   0.398   6.476
 1428TIP3   OH2 4226   7.544   7.332   3.067
 1428TIP3    H1 4227   7.548   7.262   3.132
 1428TIP3    H2 4228   7.619   7.316   3.009
 1429TIP3   OH2 4229   0.783   2.853   3.300
 1429TIP3    H1 4230   0.859   2.883   3.250
 1429TIP3    H2 4231   0.818   2.835   3.387
 1430TIP3   OH2 4232   7.558   3.714   6.341
 1430TIP3    H1 4233   7.511   3.784   6.296
 1430TIP3    H2 4234   7.649   3.742   6.342
 1431TIP3   OH2 4235   2.759   1.832   1.836
 1431TIP3    H1 4236   2.713   1.764   1.787
 1431TIP3    H2 4237   2.692   1.899   1.852
 1432TIP3   OH2 4238   2.679   0.184   6.490
 1432TIP3    H1 4239   2.609   0.228   6.539
 1432TIP3    H2 4240   2.636   0.153   6.410
 1433TIP3   OH2 4241   3.210   0.707   1.797
 1433TIP3    H1 4242   3.203   0.701   1.892
 1433TIP3    H2 4243   3.125   0.679   1.765
 1434TIP3   OH2 4244   0.151   7.089   2.046
 1434TIP3    H1 4245   0.175   7.019   1.986
 1434TIP3    H2 4246   0.225   7.096   2.107
 1435TIP3   OH2 4247   4.609   4.059   2.852
 1435TIP3    H1 4248   4.537   3.998   2.840
 1435TIP3    H2 4249   4.568   4.146   2.845
 1436TIP3   OH2 4250   0.282   1.486   3.004
 1436TIP3    H1 4251   0.375   1.506   2.996
 1436TIP3    H2 4252   0.267   1.416   2.940
 1437TIP3   OH2 4253   4.486   6.229   6.621
 1437TIP3    H1 4254   4.461   6.173   6.694
 1437TIP3    H2 4255   4.404   6.253   6.578
 1438TIP3   OH2 4256   0.137   4.997   3.811
 1438TIP3    H1 4257   0.132   5.053   3.888
 1438TIP3    H2 4258   0.083   4.921   3.833
 1439TIP3   OH2 4259   7.400   2.535   0.596
 1439TIP3    H1 4260   7.354   2.532   0.680
 1439TIP3    H2 4261   7.350   2.596   0.543
 1440TIP3   OH2 4262   6.645   5.053   0.688
 1440TIP3    H1 4263   6.722   5.096   0.727
 1440TIP3    H2 4264   6.605   5.121   0.634
 1441TIP3   OH2 4265   7.859   4.348   6.172
 1441TIP3    H1 4266   7.874   4.438   6.200
 1441TIP3    H2 4267   7.836   4.355   6.079
 1442TIP3   OH2 4268   5.680   3.843   1.601
 1442TIP3    H1 4269   5.706   3.932   1.581
 1442TIP3    H2 4270   5.585   3.847   1.611
 1443TIP3   OH2 4271   5.531   1.896   0.735
 1443TIP3    H1 4272   5.448   1.908   0.780
 1443TIP3    H2 4273   5.538   1.802   0.722
 1444TIP3   OH2 4274   6.401   0.535   1.254
 1444TIP3    H1 4275   6.316   0.517   1.295
 1444TIP3    H2 4276   6.383   0.603   1.189
 1445TIP3   OH2 4277   6.703   5.599   3.178
 1445TIP3    H1 4278   6.778   5.622   3.123
 1445TIP3    H2 4279   6.672   5.516   3.142
 1446TIP3   OH2 4280   6.112   4.775   0.099
 1446TIP3    H1 4281   6.130   4.869   0.103
 1446TIP3    H2 4282   6.114   4.754   0.005
 1447TIP3   OH2 4283   3.654   7.711   5.696
 1447TIP3    H1 4284   3.686   7.798   5.673
 1447TIP3    H2 4285   3.566   7.707   5.660
 1448TIP3   OH2 4286   6.725   6.513   0.143
 1448TIP3    H1 4287   6.724   6.600   0.103
 1448TIP3    H2 4288   6.680   6.525   0.227
 1449TIP3   OH2 4289   3.900   3.846   3.123
 1449TIP3    H1 4290   3.958   3.783   3.080
 1449TIP3    H2 4291   3.844   3.879   3.052
 1450TIP3   OH2 4292   2.371   5.269   3.096
 1450TIP3    H1 4293   2.330   5.249   3.011
 1450TIP3    H2 4294   2.444   5.208   3.102
 1451TIP3   OH2 4295   1.616   2.696   5.221
 1451TIP3    H1 4296   1.543   2.684   5.282
 1451TIP3    H2 4297   1.617   2.790   5.203
 1452TIP3   OH2 4298   6.234   0.838   5.715
 1452TIP3    H1 4299   6.264   0.792   5.636
 1452TIP3    H2 4300   6.232   0.930   5.690
 1453TIP3   OH2 4301   7.741   0.890   5.251
 1453TIP3    H1 4302   7.742   0.961   5.315
 1453TIP3    H2 4303   7.648   0.874   5.234
 1454TIP3   OH2 4304   6.052   1.803   6.716
 1454TIP3    H1 4305   6.066   1.772   6.806
 1454TIP3    H2 4306   6.014   1.728   6.671
 1455TIP3   OH2 4307   4.087   1.625   1.873
 1455TIP3    H1 4308   4.070   1.692   1.939
 1455TIP3    H2 4309   4.108   1.673   1.794
 1456TIP3   OH2 4310   1.963   3.159   2.711
 1456TIP3    H1 4311   1.887   3.203   2.749
 1456TIP3    H2 4312   1.928   3.078   2.674
 1457TIP3   OH2 4313   2.044   3.807   5.982
 1457TIP3    H1 4314   2.126   3.848   6.011
 1457TIP3    H2 4315   2.068   3.719   5.957
 1458TIP3   OH2 4316   1.380   0.884   0.330
 1458TIP3    H1 4317   1.398   0.809   0.386
 1458TIP3    H2 4318   1.449   0.947   0.352
 1459TIP3   OH2 4319   6.707   7.364   1.765
 1459TIP3    H1 4320   6.614   7.365   1.743
 1459TIP3    H2 4321   6.709   7.347   1.860
 1460TIP3   OH2 4322   1.754   5.076   5.452
 1460TIP3    H1 4323   1.713   4.990   5.459
 1460TIP3    H2 4324   1.842   5.065   5.489
 1461TIP3   OH2 4325   5.347   4.219   2.150
 1461TIP3    H1 4326   5.426   4.243   2.102
 1461TIP3    H2 4327   5.277   4.227   2.085
 1462TIP3   OH2 4328   3.799   5.466   2.809
 1462TIP3    H1 4329   3.803   5.505   2.897
 1462TIP3    H2 4330   3.866   5.398   2.810
 1463TIP3   OH2 4331   1.431   0.250   3.640
 1463TIP3    H1 4332   1.440   0.177   3.701
 1463TIP3    H2 4333   1.341   0.281   3.653
 1464TIP3   OH2 4334   7.438   6.359   3.303
 1464TIP3    H1 4335   7.493   6.371   3.226
 1464TIP3    H2 4336   7.365   6.304   3.272
 1465TIP3   OH2 4337   0.799   2.102   3.319
 1465TIP3    H1 4338   0.835   2.093   3.231
 1465TIP3    H2 4339   0.782   2.011   3.347
 1466TIP3   OH2 4340   7.931   2.819   5.925
 1466TIP3    H1 4341   7.991   2.780   5.989
 1466TIP3    H2 4342   7.972   2.902   5.901
 1467TIP3   OH2 4343   6.145   7.178   2.138
 1467TIP3    H1 4344   6.196   7.123   2.197
 1467TIP3    H2 4345   6.122   7.120   2.065
 1468TIP3   OH2 4346   6.565   2.967   5.687
 1468TIP3    H1 4347   6.618   2.996   5.761
 1468TIP3    H2 4348   6.579   3.034   5.620
 1469TIP3   OH2 4349   1.384   7.657   6.369
 1469TIP3    H1 4350   1.403   7.672   6.276
 1469TIP3    H2 4351   1.462   7.613   6.403
 1470TIP3   OH2 4352   5.949   3.070   3.019
 1470TIP3    H1 4353   5.986   3.154   2.994
 1470TIP3    H2 4354   5.881   3.091   3.084
 1471TIP3   OH2 4355   1.303   0.751   0.735
 1471TIP3    H1 4356   1.266   0.836   0.756
 1471TIP3    H2 4357   1.259   0.689   0.794
 1472TIP3   OH2 4358   6.329   5.841   6.721
 1472TIP3    H1 4359   6.386   5.823   6.795
 1472TIP3    H2 4360   6.275   5.914   6.750
 1473TIP3   OH2 4361   3.790   6.973   0.094
 1473TIP3    H1 4362   3.878   6.961   0.130
 1473TIP3    H2 4363   3.763   6.885   0.067
 1474TIP3   OH2 4364   6.823   7.163   6.278
 1474TIP3    H1 4365   6.820   7.242   6.225
 1474TIP3    H2 4366   6.849   7.193   6.365
 1475TIP3   OH2 4367   3.965   7.355   2.205
 1475TIP3    H1 4368   4.031   7.345   2.136
 1475TIP3    H2 4369   4.006   7.316   2.282
 1476TIP3   OH2 4370   4.372   0.786   5.583
 1476TIP3    H1 4371   4.426   0.862   5.608
 1476TIP3    H2 4372   4.398   0.767   5.493
 1477TIP3   OH2 4373   6.862   0.278   4.891
 1477TIP3    H1 4374   6.898   0.197   4.855
 1477TIP3    H2 4375   6.770   0.258   4.907
 1478TIP3   OH2 4376   4.491   0.353   0.805
 1478TIP3    H1 4377   4.508   0.306   0.723
 1478TIP3    H2 4378   4.435   0.426   0.779
 1479TIP3   OH2 4379   2.956   1.876   6.320
 1479TIP3    H1 4380   3.009   1.956   6.313
 1479TIP3    H2 4381   3.005   1.820   6.381
 1480TIP3   OH2 4382   5.982   4.840   1.788
 1480TIP3    H1 4383   5.901   4.838   1.838
 1480TIP3    H2 4384   5.955   4.858   1.698
 1481TIP3   OH2 4385   7.810   7.602   0.007
 1481TIP3    H1 4386   7.726   7.647   0.006
 1481TIP3    H2 4387   7.795   7.521  -0.041
 1482TIP3   OH2 4388   1.860   1.090   3.996
 1482TIP3    H1 4389   1.948   1.104   3.961
 1482TIP3    H2 4390   1.870   1.014   4.053
 1483TIP3   OH2 4391   4.458   4.815   1.438
 1483TIP3    H1 4392   4.469   4.793   1.531
 1483TIP3    H2 4393   4.378   4.769   1.412
 1484TIP3   OH2 4394   0.437   0.962   2.269
 1484TIP3    H1 4395   0.530   0.962   2.291
 1484TIP3    H2 4396   0.407   0.873   2.289
 1485TIP3   OH2 4397   5.795   5.811   0.636
 1485TIP3    H1 4398   5.875   5.821   0.688
 1485TIP3    H2 4399   5.746   5.741   0.680
 1486TIP3   OH2 4400   7.602   1.734   4.624
 1486TIP3    H1 4401   7.622   1.819   4.664
 1486TIP3    H2 4402   7.513   1.715   4.652
 1487TIP3   OH2 4403   5.923   6.183   0.306
 1487TIP3    H1 4404   5.860   6.115   0.331
 1487TIP3    H2 4405   5.869   6.249   0.260
 1488TIP3   OH2 4406   5.140   5.841   3.979
 1488TIP3    H1 4407   5.230   5.861   4.002
 1488TIP3    H2 4408   5.140   5.832   3.884
 1489TIP3   OH2 4409   3.854   0.823   4.510
 1489TIP3    H1 4410   3.931   0.814   4.567
 1489TIP3    H2 4411   3.834   0.733   4.484
 1490TIP3   OH2 4412   2.678   0.999   0.196
 1490TIP3    H1 4413   2.671   0.909   0.163
 1490TIP3    H2 4414   2.637   1.053   0.128
 1491TIP3   OH2 4415   2.836   2.677   1.292
 1491TIP3    H1 4416   2.766   2.627   1.249
 1491TIP3    H2 4417   2.804   2.693   1.380
 1492TIP3   OH2 4418   0.656   4.603   4.521
 1492TIP3    H1 4419   0.726   4.580   4.459
 1492TIP3    H2 4420   0.651   4.699   4.516
 1493TIP3   OH2 4421   6.551   3.552   0.651
 1493TIP3    H1 4422   6.519   3.551   0.741
 1493TIP3    H2 4423   6.485   3.601   0.602
 1494TIP3   OH2 4424   3.348   5.336   4.841
 1494TIP3    H1 4425   3.390   5.266   4.790
 1494TIP3    H2 4426   3.257   5.305   4.853
 1495TIP3   OH2 4427   7.908   4.640   5.995
 1495TIP3    H1 4428   7.896   4.719   5.942
 1495TIP3    H2 4429   7.860   4.572   5.948
 1496TIP3   OH2 4430   6.756   1.454   6.384
 1496TIP3    H1 4431   6.703   1.415   6.315
 1496TIP3    H2 4432   6.692   1.499   6.440
 1497TIP3   OH2 4433   0.986   1.937   3.650
 1497TIP3    H1 4434   0.957   2.007   3.709
 1497TIP3    H2 4435   0.991   1.860   3.706
 1498TIP3   OH2 4436   8.123   4.136   6.052
 1498TIP3    H1 4437   8.191   4.096   5.998
 1498TIP3    H2 4438   8.107   4.221   6.012
 1499TIP3   OH2 4439   0.537   6.064   6.565
 1499TIP3    H1 4440   0.629   6.057   6.537
 1499TIP3    H2 4441   0.540   6.052   6.660
 1500TIP3   OH2 4442   5.111   1.865   2.490
 1500TIP3    H1 4443   5.171   1.813   2.437
 1500TIP3    H2 4444   5.024   1.830   2.470
 1501TIP3   OH2 4445   6.607   2.702   5.908
 1501TIP3    H1 4446   6.568   2.771   5.961
 1501TIP3    H2 4447   6.595   2.622   5.959
 1502TIP3   OH2 4448   0.017   2.235   1.149
 1502TIP3    H1 4449   0.036   2.151   1.190
 1502TIP3    H2 4450  -0.038   2.213   1.074
 1503TIP3   OH2 4451   1.172   7.261   2.243
 1503TIP3    H1 4452   1.246   7.306   2.284
 1503TIP3    H2 4453   1.211   7.210   2.172
 1504TIP3   OH2 4454   3.196   7.497   2.292
 1504TIP3    H1 4455   3.155   7.411   2.297
 1504TIP3    H2 4456   3.228   7.513   2.381
 1505TIP3   OH2 4457   5.047   6.649   5.495
 1505TIP3    H1 4458   5.125   6.694   5.463
 1505TIP3    H2 4459   5.045   6.667   5.589
 1506TIP3   OH2 4460   7.690   0.357   1.783
 1506TIP3    H1 4461   7.636   0.282   1.809
 1506TIP3    H2 4462   7.740   0.326   1.708
 1507TIP3   OH2 4463   7.950   3.488   0.501
 1507TIP3    H1 4464   7.857   3.471   0.512
 1507TIP3    H2 4465   7.957   3.537   0.419
 1508TIP3   OH2 4466   3.602   1.323   3.228
 1508TIP3    H1 4467   3.543   1.276   3.286
 1508TIP3    H2 4468   3.560   1.317   3.142
 1509TIP3   OH2 4469   0.016   3.659   2.716
 1509TIP3    H1 4470   0.020   3.752   2.690
 1509TIP3    H2 4471  -0.075   3.635   2.702
 1510TIP3   OH2 4472   4.249   6.344   6.549
 1510TIP3    H1 4473   4.188   6.281   6.511
 1510TIP3    H2 4474   4.200   6.386   6.620
 1511TIP3   OH2 4475   4.534   7.327   6.117
 1511TIP3    H1 4476   4.558   7.415   6.089
 1511TIP3    H2 4477   4.613   7.274   6.103
 1512TIP3   OH2 4478   0.950   7.407   4.898
 1512TIP3    H1 4479   1.025   7.461   4.923
 1512TIP3    H2 4480   0.896   7.404   4.976
 1513TIP3   OH2 4481   0.944   3.450   5.835
 1513TIP3    H1 4482   0.889   3.463   5.912
 1513TIP3    H2 4483   0.891   3.396   5.777
 1514TIP3   OH2 4484   7.174   5.630   3.462
 1514TIP3    H1 4485   7.154   5.653   3.371
 1514TIP3    H2 4486   7.165   5.711   3.511
 1515TIP3   OH2 4487   7.535   1.340   6.532
 1515TIP3    H1 4488   7.488   1.350   6.615
 1515TIP3    H2 4489   7.627   1.345   6.556
 1516TIP3   OH2 4490   2.351   2.531   3.313
 1516TIP3    H1 4491   2.298   2.603   3.278
 1516TIP3    H2 4492   2.406   2.572   3.379
 1517TIP3   OH2 4493   3.752   5.391   5.709
 1517TIP3    H1 4494   3.684   5.457   5.716
 1517TIP3    H2 4495   3.748   5.363   5.617
 1518TIP3   OH2 4496   4.090   7.452   6.541
 1518TIP3    H1 4497   4.011   7.504   6.529
 1518TIP3    H2 4498   4.152   7.486   6.476
 1519TIP3   OH2 4499   3.322   4.804   6.163
 1519TIP3    H1 4500   3.312   4.899   6.175
 1519TIP3    H2 4501   3.305   4.767   6.249
 1520TIP3   OH2 4502   7.024   3.613   4.290
 1520TIP3    H1 4503   6.997   3.563   4.367
 1520TIP3    H2 4504   7.076   3.551   4.238
 1521TIP3   OH2 4505   8.287   0.982   2.257
 1521TIP3    H1 4506   8.310   1.050   2.320
 1521TIP3    H2 4507   8.298   1.023   2.172
 1522TIP3   OH2 4508   4.137   0.268   0.979
 1522TIP3    H1 4509   4.179   0.266   1.065
 1522TIP3    H2 4510   4.164   0.352   0.941
 1523TIP3   OH2 4511   6.497   3.685   5.889
 1523TIP3    H1 4512   6.519   3.730   5.970
 1523TIP3    H2 4513   6.420   3.731   5.856
 1524TIP3   OH2 4514   0.925   6.378   4.276
 1524TIP3    H1 4515   0.953   6.316   4.345
 1524TIP3    H2 4516   0.921   6.325   4.197
 1525TIP3   OH2 4517   6.874   0.141   6.412
 1525TIP3    H1 4518   6.852   0.234   6.417
 1525TIP3    H2 4519   6.957   0.134   6.460
 1526TIP3   OH2 4520   6.198   7.813   3.057
 1526TIP3    H1 4521   6.167   7.768   2.978
 1526TIP3    H2 4522   6.243   7.891   3.024
 1527TIP3   OH2 4523   0.569   4.622   4.796
 1527TIP3    H1 4524   0.586   4.614   4.702
 1527TIP3    H2 4525   0.651   4.596   4.838
 1528TIP3   OH2 4526   8.166   3.918   3.307
 1528TIP3    H1 4527   8.179   4.012   3.324
 1528TIP3    H2 4528   8.192   3.875   3.388
 1529TIP3   OH2 4529   4.211   4.885   6.561
 1529TIP3    H1 4530   4.142   4.858   6.622
 1529TIP3    H2 4531   4.164   4.924   6.487
 1530TIP3   OH2 4532   2.043   7.542   0.087
 1530TIP3    H1 4533   1.992   7.461   0.074
 1530TIP3    H2 4534   1.977   7.611   0.093
 1531TIP3   OH2 4535   5.767   6.228   2.967
 1531TIP3    H1 4536   5.753   6.134   2.962
 1531TIP3    H2 4537   5.681   6.264   2.988
 1532TIP3   OH2 4538   7.593   5.842   3.389
 1532TIP3    H1 4539   7.529   5.794   3.336
 1532TIP3    H2 4540   7.584   5.933   3.362
 1533TIP3   OH2 4541   4.120   3.964   0.224
 1533TIP3    H1 4542   4.043   4.019   0.238
 1533TIP3    H2 4543   4.163   4.000   0.146
 1534TIP3   OH2 4544   2.020   2.405   2.452
 1534TIP3    H1 4545   1.975   2.346   2.392
 1534TIP3    H2 4546   1.950   2.438   2.509
 1535TIP3   OH2 4547   4.824   0.402   1.475
 1535TIP3    H1 4548   4.813   0.420   1.569
 1535TIP3    H2 4549   4.878   0.474   1.443
 1536TIP3   OH2 4550   2.302   3.388   4.714
 1536TIP3    H1 4551   2.252   3.460   4.752
 1536TIP3    H2 4552   2.241   3.314   4.715
 1537TIP3   OH2 4553   1.647   7.003   0.599
 1537TIP3    H1 4554   1.619   7.091   0.572
 1537TIP3    H2 4555   1.697   7.018   0.679
 1538TIP3   OH2 4556   5.223   1.639   1.255
 1538TIP3    H1 4557   5.147   1.684   1.219
 1538TIP3    H2 4558   5.251   1.579   1.185
 1539TIP3   OH2 4559   4.606   6.244   0.530
 1539TIP3    H1 4560   4.588   6.337   0.544
 1539TIP3    H2 4561   4.662   6.219   0.604
 1540TIP3   OH2 4562   0.562   1.933   1.808
 1540TIP3    H1 4563   0.648   1.933   1.850
 1540TIP3    H2 4564   0.582   1.935   1.714
 1541TIP3   OH2 4565   3.771   2.625   6.516
 1541TIP3    H1 4566   3.776   2.555   6.451
 1541TIP3    H2 4567   3.800   2.584   6.598
 1542TIP3   OH2 4568   2.517   2.217   5.855
 1542TIP3    H1 4569   2.474   2.190   5.936
 1542TIP3    H2 4570   2.557   2.301   5.878
 1543TIP3   OH2 4571   8.021   2.166   4.044
 1543TIP3    H1 4572   7.982   2.254   4.044
 1543TIP3    H2 4573   7.976   2.120   3.973
 1544TIP3   OH2 4574   6.787   6.593   1.691
 1544TIP3    H1 4575   6.758   6.536   1.762
 1544TIP3    H2 4576   6.717   6.659   1.683
 1545TIP3   OH2 4577   7.416   3.506   4.386
 1545TIP3    H1 4578   7.401   3.482   4.478
 1545TIP3    H2 4579   7.334   3.484   4.342
 1546TIP3   OH2 4580   2.285   4.499   4.584
 1546TIP3    H1 4581   2.195   4.465   4.581
 1546TIP3    H2 4582   2.283   4.566   4.653
 1547TIP3   OH2 4583   7.312   2.088   2.105
 1547TIP3    H1 4584   7.232   2.121   2.144
 1547TIP3    H2 4585   7.368   2.165   2.096
 1548TIP3   OH2 4586   7.236   1.568   5.775
 1548TIP3    H1 4587   7.231   1.640   5.712
 1548TIP3    H2 4588   7.322   1.578   5.817
 1549TIP3   OH2 4589   5.366   0.119   6.149
 1549TIP3    H1 4590   5.428   0.183   6.184
 1549TIP3    H2 4591   5.286   0.168   6.133
 1550TIP3   OH2 4592   2.067   5.380   5.967
 1550TIP3    H1 4593   2.015   5.456   5.991
 1550TIP3    H2 4594   2.132   5.414   5.905
 1551TIP3   OH2 4595   8.240   4.128   0.129
 1551TIP3    H1 4596   8.156   4.173   0.138
 1551TIP3    H2 4597   8.218   4.035   0.132
 1552TIP3   OH2 4598   2.404   0.554   5.349
 1552TIP3    H1 4599   2.353   0.605   5.412
 1552TIP3    H2 4600   2.489   0.542   5.392
 1553TIP3   OH2 4601   6.004   5.551   3.344
 1553TIP3    H1 4602   6.059   5.489   3.296
 1553TIP3    H2 4603   6.041   5.637   3.323
 1554TIP3   OH2 4604   6.713   6.463   2.832
 1554TIP3    H1 4605   6.786   6.421   2.786
 1554TIP3    H2 4606   6.651   6.393   2.848
 1555TIP3   OH2 4607   8.130   6.822   4.817
 1555TIP3    H1 4608   8.049   6.866   4.844
 1555TIP3    H2 4609   8.114   6.797   4.726
 1556TIP3   OH2 4610   0.203   2.837   4.054
 1556TIP3    H1 4611   0.141   2.768   4.031
 1556TIP3    H2 4612   0.164   2.917   4.018
 1557TIP3   OH2 4613   0.091   1.357   5.192
 1557TIP3    H1 4614   0.087   1.387   5.101
 1557TIP3    H2 4615   0.172   1.307   5.198
 1558TIP3   OH2 4616   5.844   7.802   0.326
 1558TIP3    H1 4617   5.878   7.887   0.299
 1558TIP3    H2 4618   5.839   7.751   0.245
 1559TIP3   OH2 4619   3.512   7.265   1.238
 1559TIP3    H1 4620   3.455   7.227   1.171
 1559TIP3    H2 4621   3.502   7.359   1.228
 1560TIP3   OH2 4622   4.418   5.383   4.552
 1560TIP3    H1 4623   4.422   5.476   4.533
 1560TIP3    H2 4624   4.449   5.375   4.642
 1561TIP3   OH2 4625   1.171   7.813   6.476
 1561TIP3    H1 4626   1.228   7.748   6.435
 1561TIP3    H2 4627   1.139   7.866   6.402
 1562TIP3   OH2 4628   6.232   5.592   6.337
 1562TIP3    H1 4629   6.263   5.614   6.425
 1562TIP3    H2 4630   6.186   5.671   6.308
 1563TIP3   OH2 4631   7.257   6.956   0.868
 1563TIP3    H1 4632   7.205   7.008   0.929
 1563TIP3    H2 4633   7.254   6.867   0.904
 1564TIP3   OH2 4634   5.767   6.586   1.885
 1564TIP3    H1 4635   5.845   6.606   1.938
 1564TIP3    H2 4636   5.701   6.562   1.950
 1565TIP3   OH2 4637   1.854   4.357   6.576
 1565TIP3    H1 4638   1.793   4.317   6.514
 1565TIP3    H2 4639   1.928   4.296   6.578
 1566TIP3   OH2 4640   1.630   6.859   5.808
 1566TIP3    H1 4641   1.586   6.855   5.723
 1566TIP3    H2 4642   1.646   6.767   5.831
 1567TIP3   OH2 4643   2.453   6.370   4.716
 1567TIP3    H1 4644   2.374   6.374   4.770
 1567TIP3    H2 4645   2.503   6.448   4.739
 1568TIP3   OH2 4646   2.209   7.237   4.577
 1568TIP3    H1 4647   2.289   7.284   4.598
 1568TIP3    H2 4648   2.229   7.189   4.497
 1569TIP3   OH2 4649   1.595   7.458   0.426
 1569TIP3    H1 4650   1.527   7.522   0.447
 1569TIP3    H2 4651   1.617   7.476   0.335
 1570TIP3   OH2 4652   2.159   4.346   2.454
 1570TIP3    H1 4653   2.074   4.303   2.445
 1570TIP3    H2 4654   2.153   4.423   2.398
 1571TIP3   OH2 4655   3.368   6.896   5.232
 1571TIP3    H1 4656   3.388   6.966   5.170
 1571TIP3    H2 4657   3.373   6.937   5.318
 1572TIP3   OH2 4658   0.103   7.780   2.827
 1572TIP3    H1 4659   0.158   7.720   2.877
 1572TIP3    H2 4660   0.119   7.757   2.736
 1573TIP3   OH2 4661   2.655   5.588   1.927
 1573TIP3    H1 4662   2.629   5.511   1.876
 1573TIP3    H2 4663   2.742   5.609   1.894
 1574TIP3   OH2 4664   3.917   0.180   3.236
 1574TIP3    H1 4665   3.986   0.246   3.224
 1574TIP3    H2 4666   3.841   0.216   3.191
 1575TIP3   OH2 4667   4.173   3.002   5.581
 1575TIP3    H1 4668   4.232   2.927   5.591
 1575TIP3    H2 4669   4.213   3.054   5.511
 1576TIP3   OH2 4670   0.976   1.350   2.290
 1576TIP3    H1 4671   0.937   1.290   2.227
 1576TIP3    H2 4672   0.935   1.329   2.374
 1577TIP3   OH2 4673   5.574   7.148   3.026
 1577TIP3    H1 4674   5.615   7.195   3.099
 1577TIP3    H2 4675   5.569   7.213   2.956
 1578TIP3   OH2 4676   0.949   3.424   2.906
 1578TIP3    H1 4677   0.861   3.411   2.941
 1578TIP3    H2 4678   0.971   3.514   2.930
 1579TIP3   OH2 4679   6.418   2.373   0.721
 1579TIP3    H1 4680   6.336   2.379   0.672
 1579TIP3    H2 4681   6.407   2.434   0.794
 1580TIP3   OH2 4682   6.548   0.962   3.234
 1580TIP3    H1 4683   6.576   1.034   3.179
 1580TIP3    H2 4684   6.548   0.997   3.323
 1581TIP3   OH2 4685   4.228   7.488   3.132
 1581TIP3    H1 4686   4.157   7.453   3.186
 1581TIP3    H2 4687   4.266   7.412   3.088
 1582TIP3   OH2 4688   2.404   1.412   5.446
 1582TIP3    H1 4689   2.491   1.391   5.480
 1582TIP3    H2 4690   2.366   1.470   5.512
 1583TIP3   OH2 4691   1.967   7.160   3.882
 1583TIP3    H1 4692   1.989   7.138   3.972
 1583TIP3    H2 4693   1.886   7.112   3.864
 1584TIP3   OH2 4694   3.675   0.452   0.474
 1584TIP3    H1 4695   3.736   0.379   0.478
 1584TIP3    H2 4696   3.619   0.441   0.550
 1585TIP3   OH2 4697   0.999   3.880   2.817
 1585TIP3    H1 4698   0.992   3.833   2.900
 1585TIP3    H2 4699   1.060   3.952   2.835
 1586TIP3   OH2 4700   5.345   7.678   0.593
 1586TIP3    H1 4701   5.416   7.663   0.656
 1586TIP3    H2 4702   5.346   7.773   0.578
 1587TIP3   OH2 4703   4.577   4.765   1.910
 1587TIP3    H1 4704   4.617   4.848   1.885
 1587TIP3    H2 4705   4.540   4.781   1.997
 1588TIP3   OH2 4706   2.199   0.045   3.722
 1588TIP3    H1 4707   2.165   0.046   3.632
 1588TIP3    H2 4708   2.130   0.002   3.772
 1589TIP3   OH2 4709   5.997   0.874   1.878
 1589TIP3    H1 4710   6.068   0.818   1.910
 1589TIP3    H2 4711   6.036   0.961   1.875
 1590TIP3   OH2 4712   4.236   7.375   3.643
 1590TIP3    H1 4713   4.217   7.356   3.735
 1590TIP3    H2 4714   4.248   7.289   3.603
 1591TIP3   OH2 4715   3.036   3.516   4.966
 1591TIP3    H1 4716   3.114   3.570   4.973
 1591TIP3    H2 4717   3.023   3.481   5.055
 1592TIP3   OH2 4718   7.687   0.803   5.650
 1592TIP3    H1 4719   7.636   0.813   5.731
 1592TIP3    H2 4720   7.622   0.772   5.586
 1593TIP3   OH2 4721   2.018   2.494   4.303
 1593TIP3    H1 4722   2.012   2.547   4.223
 1593TIP3    H2 4723   2.077   2.544   4.359
 1594TIP3   OH2 4724   7.232   0.082   4.982
 1594TIP3    H1 4725   7.146   0.073   4.942
 1594TIP3    H2 4726   7.287   0.018   4.936
 1595TIP3   OH2 4727   0.498   5.822   6.442
 1595TIP3    H1 4728   0.485   5.910   6.478
 1595TIP3    H2 4729   0.446   5.821   6.361
 1596TIP3   OH2 4730   7.186   3.864   4.031
 1596TIP3    H1 4731   7.226   3.844   4.116
 1596TIP3    H2 4732   7.096   3.888   4.052
 1597TIP3   OH2 4733   1.799   5.551   6.729
 1597TIP3    H1 4734   1.808   5.638   6.690
 1597TIP3    H2 4735   1.761   5.497   6.660
 1598TIP3   OH2 4736   2.754   1.852   5.028
 1598TIP3    H1 4737   2.703   1.771   5.017
 1598TIP3    H2 4738   2.794   1.843   5.115
 1599TIP3   OH2 4739   4.396   5.312   4.298
 1599TIP3    H1 4740   4.467   5.368   4.267
 1599TIP3    H2 4741   4.378   5.343   4.387
 1600TIP3   OH2 4742   0.919   0.842   3.459
 1600TIP3    H1 4743   0.909   0.753   3.494
 1600TIP3    H2 4744   0.900   0.899   3.533
 1601TIP3   OH2 4745   4.639   0.306   2.124
 1601TIP3    H1 4746   4.618   0.316   2.031
 1601TIP3    H2 4747   4.728   0.270   2.125
 1602TIP3   OH2 4748   3.108   1.519   0.377
 1602TIP3    H1 4749   3.182   1.472   0.415
 1602TIP3    H2 4750   3.106   1.490   0.285
 1603TIP3   OH2 4751   3.565   7.493   1.696
 1603TIP3    H1 4752   3.619   7.504   1.774
 1603TIP3    H2 4753   3.579   7.402   1.669
 1604TIP3   OH2 4754   6.205   5.318   6.569
 1604TIP3    H1 4755   6.251   5.399   6.587
 1604TIP3    H2 4756   6.208   5.309   6.474
 1605TIP3   OH2 4757   4.794   7.516   1.861
 1605TIP3    H1 4758   4.703   7.543   1.872
 1605TIP3    H2 4759   4.789   7.442   1.800
 1606TIP3   OH2 4760   6.684   5.787   1.119
 1606TIP3    H1 4761   6.655   5.851   1.184
 1606TIP3    H2 4762   6.620   5.792   1.049
 1607TIP3   OH2 4763   6.903   2.362   3.416
 1607TIP3    H1 4764   6.821   2.373   3.465
 1607TIP3    H2 4765   6.937   2.451   3.406
 1608TIP3   OH2 4766   6.014   6.850   6.559
 1608TIP3    H1 4767   6.004   6.945   6.557
 1608TIP3    H2 4768   6.003   6.823   6.467
 1609TIP3   OH2 4769   7.603   6.810   3.924
 1609TIP3    H1 4770   7.621   6.771   3.838
 1609TIP3    H2 4771   7.645   6.895   3.921
 1610TIP3   OH2 4772   6.028   6.980   0.969
 1610TIP3    H1 4773   6.035   6.945   1.057
 1610TIP3    H2 4774   6.045   7.074   0.979
 1611TIP3   OH2 4775   5.812   7.748   5.838
 1611TIP3    H1 4776   5.760   7.686   5.889
 1611TIP3    H2 4777   5.799   7.722   5.747
 1612TIP3   OH2 4778   2.078   5.367   5.571
 1612TIP3    H1 4779   2.091   5.303   5.501
 1612TIP3    H2 4780   2.159   5.364   5.622
 1613TIP3   OH2 4781   2.731   2.004   0.297
 1613TIP3    H1 4782   2.709   2.037   0.385
 1613TIP3    H2 4783   2.822   1.977   0.304
 1614TIP3   OH2 4784   2.580   7.592   6.060
 1614TIP3    H1 4785   2.566   7.687   6.059
 1614TIP3    H2 4786   2.492   7.555   6.060
 1615TIP3   OH2 4787   7.356   1.327   1.931
 1615TIP3    H1 4788   7.274   1.278   1.925
 1615TIP3    H2 4789   7.344   1.402   1.874
 1616TIP3   OH2 4790   7.855   4.966   5.128
 1616TIP3    H1 4791   7.836   5.055   5.159
 1616TIP3    H2 4792   7.769   4.929   5.109
 1617TIP3   OH2 4793   0.157   2.228   0.251
 1617TIP3    H1 4794   0.134   2.161   0.186
 1617TIP3    H2 4795   0.235   2.193   0.294
 1618TIP3   OH2 4796   5.124   6.341   0.064
 1618TIP3    H1 4797   5.066   6.276   0.103
 1618TIP3    H2 4798   5.204   6.292   0.043
 1619TIP3   OH2 4799   8.183   1.648   1.570
 1619TIP3    H1 4800   8.176   1.614   1.482
 1619TIP3    H2 4801   8.212   1.574   1.623
 1620TIP3   OH2 4802   0.928   0.097   1.856
 1620TIP3    H1 4803   1.017   0.113   1.824
 1620TIP3    H2 4804   0.873   0.108   1.779
 1621TIP3   OH2 4805   2.696   7.378   2.829
 1621TIP3    H1 4806   2.605   7.350   2.823
 1621TIP3    H2 4807   2.691   7.461   2.877
 1622TIP3   OH2 4808   5.106   5.787   5.309
 1622TIP3    H1 4809   5.030   5.753   5.357
 1622TIP3    H2 4810   5.155   5.836   5.375
 1623TIP3   OH2 4811   8.221   3.001   4.090
 1623TIP3    H1 4812   8.167   3.081   4.085
 1623TIP3    H2 4813   8.238   2.978   3.999
 1624TIP3   OH2 4814   7.590   2.450   2.796
 1624TIP3    H1 4815   7.646   2.396   2.740
 1624TIP3    H2 4816   7.558   2.520   2.739
 1625TIP3   OH2 4817   4.543   3.863   2.588
 1625TIP3    H1 4818   4.491   3.867   2.669
 1625TIP3    H2 4819   4.585   3.949   2.583
 1626TIP3   OH2 4820   6.995   3.426   4.493
 1626TIP3    H1 4821   6.930   3.380   4.440
 1626TIP3    H2 4822   6.993   3.382   4.578
 1627TIP3   OH2 4823   7.381   4.643   2.545
 1627TIP3    H1 4824   7.334   4.573   2.589
 1627TIP3    H2 4825   7.350   4.638   2.454
 1628TIP3   OH2 4826   5.785   5.608   3.667
 1628TIP3    H1 4827   5.747   5.580   3.751
 1628TIP3    H2 4828   5.754   5.543   3.604
 1629TIP3   OH2 4829   5.263   7.165   4.061
 1629TIP3    H1 4830   5.216   7.100   4.009
 1629TIP3    H2 4831   5.201   7.192   4.129
 1630TIP3   OH2 4832   4.916   5.311   4.357
 1630TIP3    H1 4833   4.884   5.231   4.398
 1630TIP3    H2 4834   4.848   5.333   4.293
 1631TIP3   OH2 4835   7.441   4.619   6.386
 1631TIP3    H1 4836   7.465   4.529   6.367
 1631TIP3    H2 4837   7.480   4.670   6.315
 1632TIP3   OH2 4838   4.685   2.032   1.968
 1632TIP3    H1 4839   4.634   2.109   1.992
 1632TIP3    H2 4840   4.757   2.066   1.915
 1633TIP3   OH2 4841   2.626   4.769   0.859
 1633TIP3    H1 4842   2.606   4.686   0.817
 1633TIP3    H2 4843   2.720   4.766   0.875
 1634TIP3   OH2 4844   7.335   6.012   1.400
 1634TIP3    H1 4845   7.267   6.071   1.432
 1634TIP3    H2 4846   7.395   6.067   1.350
 1635TIP3   OH2 4847   6.491   2.574   5.186
 1635TIP3    H1 4848   6.503   2.607   5.275
 1635TIP3    H2 4849   6.494   2.652   5.130
 1636TIP3   OH2 4850   1.041   2.346   5.922
 1636TIP3    H1 4851   0.964   2.299   5.889
 1636TIP3    H2 4852   1.080   2.285   5.985
 1637TIP3   OH2 4853   3.020   3.544   2.645
 1637TIP3    H1 4854   3.097   3.537   2.589
 1637TIP3    H2 4855   3.054   3.533   2.734
 1638TIP3   OH2 4856   5.495   4.329   0.795
 1638TIP3    H1 4857   5.424   4.369   0.745
 1638TIP3    H2 4858   5.574   4.346   0.743
 1639TIP3   OH2 4859   1.211   0.591   3.383
 1639TIP3    H1 4860   1.278   0.642   3.430
 1639TIP3    H2 4861   1.261   0.525   3.336
 1640TIP3   OH2 4862   1.715   4.625   2.880
 1640TIP3    H1 4863   1.739   4.618   2.973
 1640TIP3    H2 4864   1.645   4.561   2.868
 1641TIP3   OH2 4865   5.459   3.266   5.401
 1641TIP3    H1 4866   5.384   3.226   5.444
 1641TIP3    H2 4867   5.516   3.294   5.473
 1642TIP3   OH2 4868   8.008   1.721   6.453
 1642TIP3    H1 4869   8.014   1.812   6.422
 1642TIP3    H2 4870   7.951   1.678   6.390
 1643TIP3   OH2 4871   2.535   5.596   1.109
 1643TIP3    H1 4872   2.591   5.651   1.164
 1643TIP3    H2 4873   2.478   5.550   1.172
 1644TIP3   OH2 4874   6.348   2.446   4.698
 1644TIP3    H1 4875   6.292   2.418   4.626
 1644TIP3    H2 4876   6.425   2.388   4.693
 1645TIP3   OH2 4877   4.092   2.733   5.784
 1645TIP3    H1 4878   4.100   2.719   5.879
 1645TIP3    H2 4879   4.031   2.806   5.776
 1646TIP3   OH2 4880   0.692   7.752   6.636
 1646TIP3    H1 4881   0.688   7.829   6.580
 1646TIP3    H2 4882   0.601   7.735   6.660
 1647TIP3   OH2 4883   5.301   0.236   4.220
 1647TIP3    H1 4884   5.397   0.237   4.224
 1647TIP3    H2 4885   5.280   0.152   4.179
 1648TIP3   OH2 4886   3.321   3.479   0.892
 1648TIP3    H1 4887   3.278   3.480   0.977
 1648TIP3    H2 4888   3.414   3.468   0.911
 1649TIP3   OH2 4889   1.203   2.062   3.071
 1649TIP3    H1 4890   1.199   1.983   3.017
 1649TIP3    H2 4891   1.113   2.095   3.073
 1650TIP3   OH2 4892   7.049   7.380   1.364
 1650TIP3    H1 4893   7.044   7.428   1.282
 1650TIP3    H2 4894   6.992   7.305   1.352
 1651TIP3   OH2 4895   0.315   0.046   4.870
 1651TIP3    H1 4896   0.239   0.095   4.902
 1651TIP3    H2 4897   0.384   0.065   4.933
 1652TIP3   OH2 4898   4.935   3.115   0.007
 1652TIP3    H1 4899   4.867   3.107  -0.061
 1652TIP3    H2 4900   4.987   3.035  -0.001
 1653TIP3   OH2 4901   4.116   4.072   3.104
 1653TIP3    H1 4902   4.195   4.058   3.051
 1653TIP3    H2 4903   4.077   3.985   3.113
 1654TIP3   OH2 4904   4.199   0.844   0.550
 1654TIP3    H1 4905   4.195   0.931   0.589
 1654TIP3    H2 4906   4.288   0.813   0.569
 1655TIP3   OH2 4907   2.893   1.283   0.078
 1655TIP3    H1 4908   2.976   1.331   0.085
 1655TIP3    H2 4909   2.893   1.223   0.153
 1656TIP3   OH2 4910   4.360   3.600   2.912
 1656TIP3    H1 4911   4.387   3.558   2.830
 1656TIP3    H2 4912   4.396   3.689   2.905
 1657TIP3   OH2 4913   8.257   6.397   3.857
 1657TIP3    H1 4914   8.350   6.378   3.843
 1657TIP3    H2 4915   8.211   6.347   3.790
 1658TIP3   OH2 4916   1.962   6.555   2.167
 1658TIP3    H1 4917   2.015   6.485   2.129
 1658TIP3    H2 4918   1.943   6.526   2.256
 1659TIP3   OH2 4919   6.595   4.235   1.688
 1659TIP3    H1 4920   6.602   4.174   1.762
 1659TIP3    H2 4921   6.636   4.315   1.721
 1660TIP3   OH2 4922   7.732   7.255   3.393
 1660TIP3    H1 4923   7.709   7.325   3.455
 1660TIP3    H2 4924   7.648   7.216   3.370
 1661TIP3   OH2 4925   5.852   2.993   1.437
 1661TIP3    H1 4926   5.825   2.916   1.387
 1661TIP3    H2 4927   5.784   3.058   1.419
 1662TIP3   OH2 4928   4.819   3.171   5.757
 1662TIP3    H1 4929   4.817   3.241   5.691
 1662TIP3    H2 4930   4.852   3.214   5.836
 1663TIP3   OH2 4931   4.798   4.331   6.106
 1663TIP3    H1 4932   4.705   4.340   6.085
 1663TIP3    H2 4933   4.800   4.311   6.199
 1664TIP3   OH2 4934   7.636   7.095   0.265
 1664TIP3    H1 4935   7.628   7.186   0.294
 1664TIP3    H2 4936   7.714   7.062   0.310
 1665TIP3   OH2 4937   1.348   2.723   6.216
 1665TIP3    H1 4938   1.427   2.775   6.233
 1665TIP3    H2 4939   1.350   2.706   6.122
 1666TIP3   OH2 4940   3.151   3.909   6.344
 1666TIP3    H1 4941   3.141   3.896   6.439
 1666TIP3    H2 4942   3.062   3.923   6.313
 1667TIP3   OH2 4943   0.853   2.124   0.401
 1667TIP3    H1 4944   0.884   2.215   0.399
 1667TIP3    H2 4945   0.873   2.094   0.490
 1668TIP3   OH2 4946   2.488   1.520   1.504
 1668TIP3    H1 4947   2.493   1.442   1.560
 1668TIP3    H2 4948   2.398   1.551   1.515
 1669TIP3   OH2 4949   2.822   4.337   1.493
 1669TIP3    H1 4950   2.915   4.321   1.506
 1669TIP3    H2 4951   2.800   4.291   1.412
 1670TIP3   OH2 4952   1.268   2.450   2.819
 1670TIP3    H1 4953   1.353   2.473   2.784
 1670TIP3    H2 4954   1.208   2.458   2.745
 1671TIP3   OH2 4955   3.343   2.467   0.860
 1671TIP3    H1 4956   3.344   2.508   0.947
 1671TIP3    H2 4957   3.430   2.429   0.850
 1672TIP3   OH2 4958   4.585   7.749   5.566
 1672TIP3    H1 4959   4.675   7.781   5.559
 1672TIP3    H2 4960   4.591   7.672   5.623
 1673TIP3   OH2 4961   3.281   3.717   5.061
 1673TIP3    H1 4962   3.310   3.629   5.086
 1673TIP3    H2 4963   3.362   3.768   5.058
 1674TIP3   OH2 4964   4.587   3.124   0.727
 1674TIP3    H1 4965   4.546   3.127   0.641
 1674TIP3    H2 4966   4.657   3.059   0.719
 1675TIP3   OH2 4967   2.910   6.908   5.798
 1675TIP3    H1 4968   2.945   6.965   5.866
 1675TIP3    H2 4969   2.912   6.962   5.719
 1676TIP3   OH2 4970   4.819   2.534   1.607
 1676TIP3    H1 4971   4.781   2.452   1.575
 1676TIP3    H2 4972   4.874   2.507   1.681
 1677TIP3   OH2 4973   4.825   0.104   5.962
 1677TIP3    H1 4974   4.799   0.085   6.052
 1677TIP3    H2 4975   4.833   0.018   5.921
 1678TIP3   OH2 4976   1.966   0.418   2.467
 1678TIP3    H1 4977   2.036   0.472   2.430
 1678TIP3    H2 4978   1.953   0.348   2.403
 1679TIP3   OH2 4979   7.432   2.679   1.045
 1679TIP3    H1 4980   7.444   2.611   1.111
 1679TIP3    H2 4981   7.341   2.708   1.058
 1680TIP3   OH2 4982   7.824   1.001   3.876
 1680TIP3    H1 4983   7.822   1.046   3.961
 1680TIP3    H2 4984   7.775   0.920   3.891
 1681TIP3   OH2 4985   1.930   3.775   3.027
 1681TIP3    H1 4986   2.019   3.741   3.016
 1681TIP3    H2 4987   1.910   3.815   2.942
 1682TIP3   OH2 4988   0.499   3.257   1.491
 1682TIP3    H1 4989   0.571   3.319   1.505
 1682TIP3    H2 4990   0.455   3.254   1.576
 1683TIP3   OH2 4991   1.144   1.131   2.383
 1683TIP3    H1 4992   1.083   1.084   2.439
 1683TIP3    H2 4993   1.106   1.218   2.374
 1684TIP3   OH2 4994   2.904   4.548   5.285
 1684TIP3    H1 4995   2.943   4.472   5.243
 1684TIP3    H2 4996   2.811   4.543   5.264
 1685TIP3   OH2 4997   0.824   4.205   0.542
 1685TIP3    H1 4998   0.755   4.185   0.479
 1685TIP3    H2 4999   0.855   4.120   0.573
 1686TIP3   OH2 5000   4.131   6.341   1.994
 1686TIP3    H1 5001   4.139   6.355   1.899
 1686TIP3    H2 5002   4.195   6.401   2.032
 1687TIP3   OH2 5003   0.652   3.003   6.455
 1687TIP3    H1 5004   0.568   2.980   6.496
 1687TIP3    H2 5005   0.711   3.020   6.528
 1688TIP3   OH2 5006   1.756   4.366   1.239
 1688TIP3    H1 5007   1.757   4.321   1.324
 1688TIP3    H2 5008   1.685   4.324   1.190
 1689TIP3   OH2 5009   2.930   5.598   4.651
 1689TIP3    H1 5010   3.003   5.604   4.712
 1689TIP3    H2 5011   2.871   5.533   4.689
 1690TIP3   OH2 5012   4.810   7.068   5.621
 1690TIP3    H1 5013   4.718   7.060   5.646
 1690TIP3    H2 5014   4.808   7.081   5.526
 1691TIP3   OH2 5015   0.805   5.998   0.788
 1691TIP3    H1 5016   0.737   6.053   0.825
 1691TIP3    H2 5017   0.829   6.040   0.706
 1692TIP3   OH2 5018   0.211   2.758   5.058
 1692TIP3    H1 5019   0.161   2.796   5.131
 1692TIP3    H2 5020   0.212   2.664   5.076
 1693TIP3   OH2 5021   1.050   1.440   5.679
 1693TIP3    H1 5022   1.140   1.426   5.651
 1693TIP3    H2 5023   0.998   1.430   5.599
 1694TIP3   OH2 5024   7.136   7.342   5.936
 1694TIP3    H1 5025   7.135   7.324   5.842
 1694TIP3    H2 5026   7.204   7.284   5.971
 1695TIP3   OH2 5027   3.755   5.482   4.108
 1695TIP3    H1 5028   3.813   5.430   4.054
 1695TIP3    H2 5029   3.810   5.552   4.143
 1696TIP3   OH2 5030   2.225   1.400   1.708
 1696TIP3    H1 5031   2.145   1.349   1.693
 1696TIP3    H2 5032   2.295   1.348   1.667
 1697TIP3   OH2 5033   4.299   1.011   2.028
 1697TIP3    H1 5034   4.369   1.027   2.091
 1697TIP3    H2 5035   4.339   1.026   1.943
 1698TIP3   OH2 5036   6.757   3.689   1.541
 1698TIP3    H1 5037   6.677   3.665   1.587
 1698TIP3    H2 5038   6.739   3.669   1.449
 1699TIP3   OH2 5039   6.957   2.373   0.005
 1699TIP3    H1 5040   6.930   2.330   0.087
 1699TIP3    H2 5041   7.003   2.452   0.033
 1700TIP3   OH2 5042   5.794   6.146   0.663
 1700TIP3    H1 5043   5.744   6.215   0.621
 1700TIP3    H2 5044   5.761   6.065   0.624
 1701TIP3   OH2 5045   7.678   2.729   2.398
 1701TIP3    H1 5046   7.605   2.705   2.454
 1701TIP3    H2 5047   7.661   2.820   2.374
 1702TIP3   OH2 5048   7.951   2.801   4.413
 1702TIP3    H1 5049   7.928   2.858   4.339
 1702TIP3    H2 5050   8.035   2.836   4.444
 1703TIP3   OH2 5051   2.066   7.663   2.396
 1703TIP3    H1 5052   1.978   7.651   2.362
 1703TIP3    H2 5053   2.097   7.575   2.415
 1704TIP3   OH2 5054   1.028   0.524   2.213
 1704TIP3    H1 5055   1.104   0.499   2.161
 1704TIP3    H2 5056   0.953   0.488   2.166
 1705TIP3   OH2 5057   0.221   1.273   6.645
 1705TIP3    H1 5058   0.278   1.307   6.575
 1705TIP3    H2 5059   0.139   1.251   6.601
 1706TIP3   OH2 5060   5.273   1.603   1.519
 1706TIP3    H1 5061   5.259   1.691   1.554
 1706TIP3    H2 5062   5.240   1.607   1.429
 1707TIP3   OH2 5063   7.605   5.577   2.497
 1707TIP3    H1 5064   7.672   5.630   2.454
 1707TIP3    H2 5065   7.629   5.486   2.476
 1708TIP3   OH2 5066   8.105   0.354   4.270
 1708TIP3    H1 5067   8.146   0.268   4.268
 1708TIP3    H2 5068   8.074   0.364   4.360
 1709TIP3   OH2 5069   0.030   2.263   4.050
 1709TIP3    H1 5070   0.062   2.175   4.028
 1709TIP3    H2 5071  -0.059   2.265   4.013
 1710TIP3   OH2 5072   5.907   6.522   0.605
 1710TIP3    H1 5073   5.953   6.526   0.521
 1710TIP3    H2 5074   5.969   6.559   0.668
 1711TIP3   OH2 5075   6.543   7.221   5.473
 1711TIP3    H1 5076   6.576   7.308   5.452
 1711TIP3    H2 5077   6.612   7.161   5.445
 1712TIP3   OH2 5078   3.652   4.781   6.500
 1712TIP3    H1 5079   3.629   4.713   6.438
 1712TIP3    H2 5080   3.739   4.758   6.532
 1713TIP3   OH2 5081   5.227   3.007   0.284
 1713TIP3    H1 5082   5.187   3.083   0.243
 1713TIP3    H2 5083   5.157   2.942   0.288
 1714TIP3   OH2 5084   0.242   1.543   4.838
 1714TIP3    H1 5085   0.218   1.478   4.903
 1714TIP3    H2 5086   0.174   1.610   4.844
 1715TIP3   OH2 5087   7.369   6.281   0.187
 1715TIP3    H1 5088   7.463   6.269   0.200
 1715TIP3    H2 5089   7.329   6.204   0.227
 1716TIP3   OH2 5090   2.351   7.741   0.978
 1716TIP3    H1 5091   2.288   7.813   0.977
 1716TIP3    H2 5092   2.300   7.664   0.956
 1717TIP3   OH2 5093   7.614   7.450   1.245
 1717TIP3    H1 5094   7.543   7.407   1.198
 1717TIP3    H2 5095   7.633   7.392   1.319
 1718TIP3   OH2 5096   3.328   4.106   2.281
 1718TIP3    H1 5097   3.256   4.121   2.220
 1718TIP3    H2 5098   3.405   4.144   2.239
 1719TIP3   OH2 5099   1.430   3.111   1.026
 1719TIP3    H1 5100   1.485   3.182   1.060
 1719TIP3    H2 5101   1.445   3.039   1.088
 1720TIP3   OH2 5102   7.480   3.423   2.894
 1720TIP3    H1 5103   7.564   3.405   2.852
 1720TIP3    H2 5104   7.415   3.389   2.832
 1721TIP3   OH2 5105   7.230   6.015   5.156
 1721TIP3    H1 5106   7.215   6.109   5.146
 1721TIP3    H2 5107   7.256   5.985   5.069
 1722TIP3   OH2 5108   7.197   3.741   3.074
 1722TIP3    H1 5109   7.155   3.656   3.058
 1722TIP3    H2 5110   7.173   3.762   3.164
 1723TIP3   OH2 5111   2.704   4.586   5.652
 1723TIP3    H1 5112   2.709   4.587   5.747
 1723TIP3    H2 5113   2.794   4.602   5.622
 1724TIP3   OH2 5114   0.024   7.563   3.106
 1724TIP3    H1 5115   0.094   7.561   3.041
 1724TIP3    H2 5116  -0.022   7.480   3.094
 1725TIP3   OH2 5117   5.937   2.581   2.842
 1725TIP3    H1 5118   5.879   2.519   2.798
 1725TIP3    H2 5119   5.934   2.555   2.934
 1726TIP3   OH2 5120   0.278   5.712   1.658
 1726TIP3    H1 5121   0.267   5.691   1.751
 1726TIP3    H2 5122   0.335   5.789   1.656
 1727TIP3   OH2 5123   4.765   7.286   2.510
 1727TIP3    H1 5124   4.796   7.304   2.422
 1727TIP3    H2 5125   4.819   7.342   2.567
 1728TIP3   OH2 5126   7.102   5.931   2.075
 1728TIP3    H1 5127   7.093   5.836   2.087
 1728TIP3    H2 5128   7.172   5.956   2.135
 1729TIP3   OH2 5129   8.106   4.828   3.551
 1729TIP3    H1 5130   8.029   4.841   3.497
 1729TIP3    H2 5131   8.134   4.738   3.532
 1730TIP3   OH2 5132   1.702   2.054   5.263
 1730TIP3    H1 5133   1.741   2.095   5.186
 1730TIP3    H2 5134   1.680   2.126   5.321
 1731TIP3   OH2 5135   7.434   7.096   2.838
 1731TIP3    H1 5136   7.452   7.089   2.932
 1731TIP3    H2 5137   7.359   7.038   2.824
 1732TIP3   OH2 5138   3.490   5.380   1.948
 1732TIP3    H1 5139   3.432   5.320   1.995
 1732TIP3    H2 5140   3.456   5.467   1.968
 1733TIP3   OH2 5141   0.210   0.278   6.127
 1733TIP3    H1 5142   0.240   0.343   6.191
 1733TIP3    H2 5143   0.187   0.330   6.051
 1734TIP3   OH2 5144   0.596   3.656   2.281
 1734TIP3    H1 5145   0.624   3.609   2.203
 1734TIP3    H2 5146   0.588   3.747   2.253
 1735TIP3   OH2 5147   0.913   7.137   6.575
 1735TIP3    H1 5148   0.959   7.216   6.602
 1735TIP3    H2 5149   0.820   7.157   6.591
 1736TIP3   OH2 5150   5.483   4.850   6.348
 1736TIP3    H1 5151   5.393   4.882   6.356
 1736TIP3    H2 5152   5.517   4.895   6.271
 1737TIP3   OH2 5153   4.425   6.928   3.215
 1737TIP3    H1 5154   4.370   6.890   3.147
 1737TIP3    H2 5155   4.398   7.020   3.220
 1738TIP3   OH2 5156   4.531   6.097   5.567
 1738TIP3    H1 5157   4.584   6.040   5.624
 1738TIP3    H2 5158   4.483   6.152   5.628
 1739TIP3   OH2 5159   3.422   3.481   5.202
 1739TIP3    H1 5160   3.486   3.544   5.170
 1739TIP3    H2 5161   3.474   3.412   5.244
 1740TIP3   OH2 5162   1.777   0.057   1.122
 1740TIP3    H1 5163   1.854   0.060   1.066
 1740TIP3    H2 5164   1.800   0.109   1.199
 1741TIP3   OH2 5165   0.902   7.021   3.396
 1741TIP3    H1 5166   0.870   7.011   3.485
 1741TIP3    H2 5167   0.884   6.936   3.355
 1742TIP3   OH2 5168   4.227   1.130   1.440
 1742TIP3    H1 5169   4.159   1.182   1.481
 1742TIP3    H2 5170   4.195   1.115   1.351
 1743TIP3   OH2 5171   2.151   4.358   3.200
 1743TIP3    H1 5172   2.108   4.272   3.195
 1743TIP3    H2 5173   2.096   4.408   3.261
 1744TIP3   OH2 5174   1.197   2.160   0.008
 1744TIP3    H1 5175   1.161   2.078  -0.026
 1744TIP3    H2 5176   1.162   2.166   0.097
 1745TIP3   OH2 5177   6.642   6.030   0.958
 1745TIP3    H1 5178   6.566   6.045   1.014
 1745TIP3    H2 5179   6.636   6.098   0.891
 1746TIP3   OH2 5180   6.573   0.135   5.737
 1746TIP3    H1 5181   6.660   0.136   5.778
 1746TIP3    H2 5182   6.590   0.152   5.645
 1747TIP3   OH2 5183   2.921   1.089   0.267
 1747TIP3    H1 5184   2.827   1.069   0.267
 1747TIP3    H2 5185   2.957   1.034   0.336
 1748TIP3   OH2 5186   3.764   1.035   1.847
 1748TIP3    H1 5187   3.804   0.967   1.901
 1748TIP3    H2 5188   3.683   1.058   1.893
 1749TIP3   OH2 5189   5.800   7.644   1.845
 1749TIP3    H1 5190   5.707   7.651   1.826
 1749TIP3    H2 5191   5.834   7.583   1.779
 1750TIP3   OH2 5192   0.564   6.443   4.838
 1750TIP3    H1 5193   0.521   6.420   4.920
 1750TIP3    H2 5194   0.528   6.382   4.774
 1751TIP3   OH2 5195   2.384   1.265   0.174
 1751TIP3    H1 5196   2.381   1.201   0.245
 1751TIP3    H2 5197   2.437   1.223   0.106
 1752TIP3   OH2 5198   4.164   2.244   3.739
 1752TIP3    H1 5199   4.168   2.335   3.770
 1752TIP3    H2 5200   4.196   2.192   3.813
 1753TIP3   OH2 5201   0.952   3.895   5.091
 1753TIP3    H1 5202   0.887   3.960   5.065
 1753TIP3    H2 5203   0.903   3.813   5.097
 1754TIP3   OH2 5204   5.763   7.672   3.041
 1754TIP3    H1 5205   5.764   7.759   3.082
 1754TIP3    H2 5206   5.855   7.653   3.024
 1755TIP3   OH2 5207   7.714   1.265   4.991
 1755TIP3    H1 5208   7.708   1.240   5.083
 1755TIP3    H2 5209   7.752   1.352   4.992
 1756TIP3   OH2 5210   4.446   4.587   1.090
 1756TIP3    H1 5211   4.442   4.515   1.028
 1756TIP3    H2 5212   4.411   4.551   1.171
 1757TIP3   OH2 5213   5.723   5.747   1.251
 1757TIP3    H1 5214   5.685   5.683   1.311
 1757TIP3    H2 5215   5.797   5.784   1.299
 1758TIP3   OH2 5216   7.384   2.253   3.957
 1758TIP3    H1 5217   7.409   2.206   3.877
 1758TIP3    H2 5218   7.457   2.237   4.017
 1759TIP3   OH2 5219   2.264   3.156   3.553
 1759TIP3    H1 5220   2.205   3.144   3.479
 1759TIP3    H2 5221   2.321   3.229   3.526
 1760TIP3   OH2 5222   2.835   4.474   2.718
 1760TIP3    H1 5223   2.892   4.481   2.642
 1760TIP3    H2 5224   2.832   4.563   2.754
 1761TIP3   OH2 5225   1.924   7.412   1.042
 1761TIP3    H1 5226   1.921   7.435   1.135
 1761TIP3    H2 5227   1.995   7.466   1.007
 1762TIP3   OH2 5228   3.412   4.415   4.659
 1762TIP3    H1 5229   3.332   4.402   4.607
 1762TIP3    H2 5230   3.424   4.333   4.707
 1763TIP3   OH2 5231   0.553   7.444   6.175
 1763TIP3    H1 5232   0.488   7.403   6.117
 1763TIP3    H2 5233   0.536   7.538   6.167
 1764TIP3   OH2 5234   3.116   5.203   6.167
 1764TIP3    H1 5235   3.048   5.267   6.188
 1764TIP3    H2 5236   3.179   5.252   6.114
 1765TIP3   OH2 5237   3.213   0.516   1.574
 1765TIP3    H1 5238   3.266   0.445   1.610
 1765TIP3    H2 5239   3.137   0.520   1.632
 1766TIP3   OH2 5240   4.862   4.129   3.303
 1766TIP3    H1 5241   4.828   4.184   3.232
 1766TIP3    H2 5242   4.946   4.169   3.326
 1767TIP3   OH2 5243   2.051   5.601   5.361
 1767TIP3    H1 5244   1.979   5.567   5.414
 1767TIP3    H2 5245   2.023   5.689   5.337
 1768TIP3   OH2 5246   4.699   2.506   4.382
 1768TIP3    H1 5247   4.769   2.502   4.448
 1768TIP3    H2 5248   4.648   2.426   4.397
 1769TIP3   OH2 5249   3.329   3.845   6.619
 1769TIP3    H1 5250   3.356   3.771   6.565
 1769TIP3    H2 5251   3.286   3.804   6.695
 1770TIP3   OH2 5252   1.501   2.328   6.446
 1770TIP3    H1 5253   1.423   2.321   6.501
 1770TIP3    H2 5254   1.561   2.263   6.481
 1771TIP3   OH2 5255   0.355   6.295   3.590
 1771TIP3    H1 5256   0.265   6.325   3.599
 1771TIP3    H2 5257   0.395   6.354   3.526
 1772TIP3   OH2 5258   4.758   5.688   2.224
 1772TIP3    H1 5259   4.737   5.768   2.175
 1772TIP3    H2 5260   4.761   5.716   2.315
 1773TIP3   OH2 5261   4.809   1.698   1.823
 1773TIP3    H1 5262   4.877   1.631   1.834
 1773TIP3    H2 5263   4.798   1.736   1.910
 1774TIP3   OH2 5264   6.027   6.756   5.948
 1774TIP3    H1 5265   5.972   6.828   5.978
 1774TIP3    H2 5266   6.070   6.790   5.869
 1775TIP3   OH2 5267   8.201   2.790   4.555
 1775TIP3    H1 5268   8.198   2.826   4.644
 1775TIP3    H2 5269   8.233   2.863   4.502
 1776TIP3   OH2 5270   6.387   1.146   5.387
 1776TIP3    H1 5271   6.470   1.190   5.403
 1776TIP3    H2 5272   6.401   1.095   5.308
 1777TIP3   OH2 5273   5.842   7.809   6.157
 1777TIP3    H1 5274   5.833   7.904   6.161
 1777TIP3    H2 5275   5.759   7.779   6.120
 1778TIP3   OH2 5276   1.973   1.133   5.467
 1778TIP3    H1 5277   1.945   1.054   5.512
 1778TIP3    H2 5278   2.059   1.154   5.504
 1779TIP3   OH2 5279   6.435   2.170   3.119
 1779TIP3    H1 5280   6.412   2.165   3.212
 1779TIP3    H2 5281   6.409   2.258   3.093
 1780TIP3   OH2 5282   5.414   6.280   6.539
 1780TIP3    H1 5283   5.329   6.320   6.557
 1780TIP3    H2 5284   5.393   6.196   6.498
 1781TIP3   OH2 5285   4.418   4.789   6.721
 1781TIP3    H1 5286   4.346   4.831   6.674
 1781TIP3    H2 5287   4.457   4.859   6.774
 1782TIP3   OH2 5288   2.341   7.217   0.711
 1782TIP3    H1 5289   2.327   7.311   0.719
 1782TIP3    H2 5290   2.381   7.191   0.795
 1783TIP3   OH2 5291   0.754   5.766   1.807
 1783TIP3    H1 5292   0.733   5.856   1.779
 1783TIP3    H2 5293   0.712   5.711   1.742
 1784TIP3   OH2 5294   2.546   5.328   1.355
 1784TIP3    H1 5295   2.578   5.263   1.293
 1784TIP3    H2 5296   2.624   5.376   1.383
 1785TIP3   OH2 5297   1.163   6.841   3.461
 1785TIP3    H1 5298   1.135   6.821   3.372
 1785TIP3    H2 5299   1.186   6.934   3.458
 1786TIP3   OH2 5300   1.719   0.653   4.902
 1786TIP3    H1 5301   1.710   0.736   4.854
 1786TIP3    H2 5302   1.759   0.593   4.839
 1787TIP3   OH2 5303   0.987   5.608   2.704
 1787TIP3    H1 5304   0.941   5.681   2.746
 1787TIP3    H2 5305   1.074   5.608   2.744
 1788TIP3   OH2 5306   3.567   2.287   2.240
 1788TIP3    H1 5307   3.518   2.324   2.166
 1788TIP3    H2 5308   3.535   2.336   2.316
 1789TIP3   OH2 5309   1.811   1.614   0.859
 1789TIP3    H1 5310   1.850   1.617   0.946
 1789TIP3    H2 5311   1.820   1.704   0.826
 1790TIP3   OH2 5312   1.856   7.456   4.288
 1790TIP3    H1 5313   1.776   7.496   4.323
 1790TIP3    H2 5314   1.842   7.454   4.193
 1791TIP3   OH2 5315   6.193   2.328   4.211
 1791TIP3    H1 5316   6.160   2.272   4.140
 1791TIP3    H2 5317   6.274   2.285   4.240
 1792TIP3   OH2 5318   7.938   1.897   0.691
 1792TIP3    H1 5319   8.008   1.961   0.703
 1792TIP3    H2 5320   7.884   1.933   0.621
 1793TIP3   OH2 5321   7.004   7.387   4.189
 1793TIP3    H1 5322   7.019   7.357   4.099
 1793TIP3    H2 5323   6.952   7.318   4.229
 1794TIP3   OH2 5324   5.059   3.707   0.311
 1794TIP3    H1 5325   5.126   3.745   0.253
 1794TIP3    H2 5326   4.996   3.777   0.324
 1795TIP3   OH2 5327   5.641   3.565   1.887
 1795TIP3    H1 5328   5.723   3.611   1.865
 1795TIP3    H2 5329   5.587   3.633   1.928
 1796TIP3   OH2 5330   3.990   4.359   2.934
 1796TIP3    H1 5331   3.999   4.266   2.952
 1796TIP3    H2 5332   3.988   4.365   2.838
 1797TIP3   OH2 5333   6.514   6.300   2.118
 1797TIP3    H1 5334   6.478   6.322   2.032
 1797TIP3    H2 5335   6.546   6.384   2.153
 1798TIP3   OH2 5336   2.726   2.561   6.727
 1798TIP3    H1 5337   2.747   2.508   6.803
 1798TIP3    H2 5338   2.643   2.526   6.694
 1799TIP3   OH2 5339   6.587   6.417   3.972
 1799TIP3    H1 5340   6.499   6.420   4.008
 1799TIP3    H2 5341   6.643   6.451   4.042
 1800TIP3   OH2 5342   2.486   5.716   0.870
 1800TIP3    H1 5343   2.484   5.681   0.959
 1800TIP3    H2 5344   2.480   5.811   0.881
 1801TIP3   OH2 5345   0.271   1.068   5.090
 1801TIP3    H1 5346   0.359   1.033   5.077
 1801TIP3    H2 5347   0.249   1.045   5.181
 1802TIP3   OH2 5348   0.503   0.078   5.461
 1802TIP3    H1 5349   0.410   0.056   5.465
 1802TIP3    H2 5350   0.540   0.043   5.542
 1803TIP3   OH2 5351   5.689   7.115   1.401
 1803TIP3    H1 5352   5.613   7.119   1.344
 1803TIP3    H2 5353   5.657   7.076   1.482
 1804TIP3   OH2 5354   5.495   3.109   6.689
 1804TIP3    H1 5355   5.462   3.167   6.620
 1804TIP3    H2 5356   5.579   3.077   6.655
 1805TIP3   OH2 5357   5.003   1.383   5.489
 1805TIP3    H1 5358   4.952   1.310   5.454
 1805TIP3    H2 5359   5.083   1.341   5.522
 1806TIP3   OH2 5360   5.203   2.683   2.875
 1806TIP3    H1 5361   5.255   2.740   2.819
 1806TIP3    H2 5362   5.122   2.669   2.827
 1807TIP3   OH2 5363   7.081   1.890   1.640
 1807TIP3    H1 5364   7.051   1.822   1.699
 1807TIP3    H2 5365   7.014   1.958   1.646
 1808TIP3   OH2 5366   1.505   0.440   1.224
 1808TIP3    H1 5367   1.534   0.362   1.177
 1808TIP3    H2 5368   1.411   0.426   1.238
 1809TIP3   OH2 5369   3.959   5.572   1.655
 1809TIP3    H1 5370   4.048   5.601   1.674
 1809TIP3    H2 5371   3.913   5.581   1.738
 1810TIP3   OH2 5372   1.322   4.862   0.633
 1810TIP3    H1 5373   1.343   4.917   0.708
 1810TIP3    H2 5374   1.237   4.825   0.654
 1811TIP3   OH2 5375   3.938   0.804   1.602
 1811TIP3    H1 5376   3.855   0.769   1.635
 1811TIP3    H2 5377   3.981   0.840   1.680
 1812TIP3   OH2 5378   7.069   2.688   1.018
 1812TIP3    H1 5379   7.058   2.682   1.113
 1812TIP3    H2 5380   7.022   2.612   0.984
 1813TIP3   OH2 5381   4.392   3.154   5.325
 1813TIP3    H1 5382   4.476   3.127   5.363
 1813TIP3    H2 5383   4.348   3.072   5.304
 1814TIP3   OH2 5384   7.081   0.395   5.047
 1814TIP3    H1 5385   7.002   0.362   5.004
 1814TIP3    H2 5386   7.071   0.490   5.047
 1815TIP3   OH2 5387   8.279   4.538   5.805
 1815TIP3    H1 5388   8.246   4.587   5.729
 1815TIP3    H2 5389   8.222   4.461   5.810
 1816TIP3   OH2 5390   1.537   1.284   5.406
 1816TIP3    H1 5391   1.560   1.349   5.340
 1816TIP3    H2 5392   1.442   1.294   5.419
 1817TIP3   OH2 5393   6.313   2.542   4.108
 1817TIP3    H1 5394   6.238   2.492   4.140
 1817TIP3    H2 5395   6.389   2.500   4.147
 1818TIP3   OH2 5396   4.370   1.665   4.866
 1818TIP3    H1 5397   4.448   1.659   4.921
 1818TIP3    H2 5398   4.301   1.626   4.920
 1819TIP3   OH2 5399   0.600   7.710   4.466
 1819TIP3    H1 5400   0.640   7.786   4.422
 1819TIP3    H2 5401   0.539   7.675   4.401
 1820TIP3   OH2 5402   3.611   0.339   6.004
 1820TIP3    H1 5403   3.646   0.425   6.028
 1820TIP3    H2 5404   3.688   0.282   5.999
 1821TIP3   OH2 5405   4.596   0.890   0.239
 1821TIP3    H1 5406   4.609   0.862   0.330
 1821TIP3    H2 5407   4.506   0.921   0.235
 1822TIP3   OH2 5408   1.573   2.900   5.979
 1822TIP3    H1 5409   1.611   2.987   5.969
 1822TIP3    H2 5410   1.579   2.881   6.072
 1823TIP3   OH2 5411   2.771   5.314   3.412
 1823TIP3    H1 5412   2.749   5.228   3.448
 1823TIP3    H2 5413   2.746   5.309   3.320
 1824TIP3   OH2 5414   1.037   7.154   1.038
 1824TIP3    H1 5415   1.013   7.208   0.963
 1824TIP3    H2 5416   1.102   7.093   1.004
 1825TIP3   OH2 5417   1.020   6.667   4.085
 1825TIP3    H1 5418   0.925   6.679   4.085
 1825TIP3    H2 5419   1.040   6.632   4.172
 1826TIP3   OH2 5420   1.466   4.480   3.639
 1826TIP3    H1 5421   1.501   4.404   3.686
 1826TIP3    H2 5422   1.433   4.537   3.708
 1827TIP3   OH2 5423   6.394   4.600   4.288
 1827TIP3    H1 5424   6.320   4.613   4.347
 1827TIP3    H2 5425   6.359   4.617   4.200
 1828TIP3   OH2 5426   1.949   6.123   4.946
 1828TIP3    H1 5427   1.908   6.086   5.024
 1828TIP3    H2 5428   1.879   6.124   4.880
 1829TIP3   OH2 5429   0.317   3.271   4.024
 1829TIP3    H1 5430   0.386   3.226   3.974
 1829TIP3    H2 5431   0.331   3.244   4.114
 1830TIP3   OH2 5432   2.269   4.822   5.341
 1830TIP3    H1 5433   2.312   4.863   5.416
 1830TIP3    H2 5434   2.177   4.845   5.350
 1831TIP3   OH2 5435   6.441   5.224   3.441
 1831TIP3    H1 5436   6.399   5.192   3.361
 1831TIP3    H2 5437   6.533   5.234   3.418
 1832TIP3   OH2 5438   5.554   2.108   0.168
 1832TIP3    H1 5439   5.496   2.070   0.101
 1832TIP3    H2 5440   5.503   2.105   0.249
 1833TIP3   OH2 5441   0.346   4.492   0.282
 1833TIP3    H1 5442   0.372   4.406   0.248
 1833TIP3    H2 5443   0.322   4.542   0.205
 1834TIP3   OH2 5444   5.451   1.615   5.868
 1834TIP3    H1 5445   5.383   1.555   5.839
 1834TIP3    H2 5446   5.448   1.687   5.805
 1835TIP3   OH2 5447   7.034   0.009   4.798
 1835TIP3    H1 5448   7.070  -0.016   4.713
 1835TIP3    H2 5449   6.943  -0.020   4.796
 1836TIP3   OH2 5450   2.873   1.192   5.986
 1836TIP3    H1 5451   2.849   1.110   6.029
 1836TIP3    H2 5452   2.800   1.210   5.926
 1837TIP3   OH2 5453   3.100   3.954   0.009
 1837TIP3    H1 5454   3.069   3.958   0.099
 1837TIP3    H2 5455   3.091   4.044  -0.023
 1838TIP3   OH2 5456   7.662   3.998   1.659
 1838TIP3    H1 5457   7.653   4.092   1.672
 1838TIP3    H2 5458   7.726   3.989   1.588
 1839TIP3   OH2 5459   4.973   5.961   1.142
 1839TIP3    H1 5460   4.907   6.029   1.125
 1839TIP3    H2 5461   4.998   5.931   1.054
 1840TIP3   OH2 5462   5.750   2.365   6.535
 1840TIP3    H1 5463   5.783   2.372   6.625
 1840TIP3    H2 5464   5.824   2.328   6.486
 1841TIP3   OH2 5465   6.290   2.396   3.014
 1841TIP3    H1 5466   6.249   2.404   2.928
 1841TIP3    H2 5467   6.220   2.360   3.070
 1842TIP3   OH2 5468   2.622   4.335   5.639
 1842TIP3    H1 5469   2.670   4.417   5.648
 1842TIP3    H2 5470   2.545   4.358   5.587
 1843TIP3   OH2 5471   2.090   0.249   3.154
 1843TIP3    H1 5472   2.011   0.240   3.206
 1843TIP3    H2 5473   2.070   0.204   3.072
 1844TIP3   OH2 5474   7.777   4.098   6.400
 1844TIP3    H1 5475   7.705   4.066   6.346
 1844TIP3    H2 5476   7.807   4.021   6.448
 1845TIP3   OH2 5477   7.203   4.711   2.155
 1845TIP3    H1 5478   7.150   4.777   2.109
 1845TIP3    H2 5479   7.293   4.743   2.146
 1846TIP3   OH2 5480   3.204   3.957   3.744
 1846TIP3    H1 5481   3.186   4.051   3.744
 1846TIP3    H2 5482   3.183   3.929   3.833
 1847TIP3   OH2 5483   3.325   4.478   2.940
 1847TIP3    H1 5484   3.309   4.393   2.901
 1847TIP3    H2 5485   3.410   4.470   2.983
 1848TIP3   OH2 5486   6.338   6.260   4.952
 1848TIP3    H1 5487   6.329   6.166   4.938
 1848TIP3    H2 5488   6.327   6.270   5.047
 1849TIP3   OH2 5489   8.125   4.572   3.749
 1849TIP3    H1 5490   8.144   4.517   3.825
 1849TIP3    H2 5491   8.034   4.599   3.761
 1850TIP3   OH2 5492   5.226   6.729   3.633
 1850TIP3    H1 5493   5.267   6.815   3.624
 1850TIP3    H2 5494   5.300   6.668   3.636
 1851TIP3   OH2 5495   0.391   0.201   5.849
 1851TIP3    H1 5496   0.481   0.183   5.876
 1851TIP3    H2 5497   0.345   0.118   5.864
 1852TIP3   OH2 5498   1.687   0.789   0.857
 1852TIP3    H1 5499   1.729   0.836   0.786
 1852TIP3    H2 5500   1.596   0.818   0.855
 1853TIP3   OH2 5501   7.521   7.216   0.620
 1853TIP3    H1 5502   7.519   7.298   0.668
 1853TIP3    H2 5503   7.613   7.204   0.594
 1854TIP3   OH2 5504   7.767   3.451   2.352
 1854TIP3    H1 5505   7.860   3.467   2.334
 1854TIP3    H2 5506   7.745   3.513   2.421
 1855TIP3   OH2 5507   1.002   0.972   1.755
 1855TIP3    H1 5508   1.093   1.002   1.767
 1855TIP3    H2 5509   0.953   1.016   1.824
 1856TIP3   OH2 5510   4.766   2.963   0.201
 1856TIP3    H1 5511   4.684   2.972   0.250
 1856TIP3    H2 5512   4.784   3.051   0.168
 1857TIP3   OH2 5513   3.669   1.576   4.993
 1857TIP3    H1 5514   3.646   1.600   4.904
 1857TIP3    H2 5515   3.715   1.652   5.028
 1858TIP3   OH2 5516   5.392   6.320   5.070
 1858TIP3    H1 5517   5.480   6.337   5.038
 1858TIP3    H2 5518   5.339   6.312   4.991
 1859TIP3   OH2 5519   2.629   1.430   4.434
 1859TIP3    H1 5520   2.570   1.355   4.440
 1859TIP3    H2 5521   2.619   1.461   4.344
 1860TIP3   OH2 5522   1.528   5.982   6.457
 1860TIP3    H1 5523   1.492   6.069   6.436
 1860TIP3    H2 5524   1.547   5.986   6.551
 1861TIP3   OH2 5525   2.346   3.052   2.951
 1861TIP3    H1 5526   2.422   3.040   2.894
 1861TIP3    H2 5527   2.305   2.966   2.955
 1862TIP3   OH2 5528   8.132   2.655   6.055
 1862TIP3    H1 5529   8.225   2.659   6.032
 1862TIP3    H2 5530   8.094   2.598   5.988
 1863TIP3   OH2 5531   6.422   3.203   4.152
 1863TIP3    H1 5532   6.515   3.194   4.171
 1863TIP3    H2 5533   6.406   3.142   4.080
 1864TIP3   OH2 5534   5.527   7.157   0.217
 1864TIP3    H1 5535   5.490   7.231   0.169
 1864TIP3    H2 5536   5.468   7.084   0.198
 1865TIP3   OH2 5537   2.700   6.111   2.658
 1865TIP3    H1 5538   2.682   6.172   2.729
 1865TIP3    H2 5539   2.669   6.027   2.691
 1866TIP3   OH2 5540   7.834   1.203   1.223
 1866TIP3    H1 5541   7.771   1.140   1.256
 1866TIP3    H2 5542   7.875   1.160   1.148
 1867TIP3   OH2 5543   4.469   0.578   5.066
 1867TIP3    H1 5544   4.459   0.609   5.156
 1867TIP3    H2 5545   4.383   0.589   5.027
 1868TIP3   OH2 5546   3.995   2.689   0.868
 1868TIP3    H1 5547   4.080   2.718   0.835
 1868TIP3    H2 5548   4.002   2.699   0.963
 1869TIP3   OH2 5549   0.209   3.520   2.863
 1869TIP3    H1 5550   0.254   3.448   2.819
 1869TIP3    H2 5551   0.169   3.571   2.792
 1870TIP3   OH2 5552   4.683   3.990   0.449
 1870TIP3    H1 5553   4.729   4.012   0.531
 1870TIP3    H2 5554   4.615   3.929   0.476
 1871TIP3   OH2 5555   7.205   3.221   0.084
 1871TIP3    H1 5556   7.259   3.193   0.010
 1871TIP3    H2 5557   7.118   3.234   0.047
 1872TIP3   OH2 5558   1.753   0.969   0.650
 1872TIP3    H1 5559   1.838   1.012   0.637
 1872TIP3    H2 5560   1.701   0.997   0.574
 1873TIP3   OH2 5561   0.956   1.107   5.303
 1873TIP3    H1 5562   0.890   1.047   5.266
 1873TIP3    H2 5563   0.953   1.091   5.397
 1874TIP3   OH2 5564   6.652   7.532   0.348
 1874TIP3    H1 5565   6.598   7.459   0.316
 1874TIP3    H2 5566   6.622   7.608   0.298
 1875TIP3   OH2 5567   5.133   2.280   2.783
 1875TIP3    H1 5568   5.161   2.188   2.776
 1875TIP3    H2 5569   5.082   2.295   2.703
 1876TIP3   OH2 5570   0.640   2.239   4.301
 1876TIP3    H1 5571   0.709   2.176   4.322
 1876TIP3    H2 5572   0.581   2.236   4.376
 1877TIP3   OH2 5573   8.258   7.306   4.765
 1877TIP3    H1 5574   8.308   7.387   4.756
 1877TIP3    H2 5575   8.319   7.237   4.738
 1878TIP3   OH2 5576   3.318   1.703   0.115
 1878TIP3    H1 5577   3.252   1.674   0.052
 1878TIP3    H2 5578   3.298   1.795   0.130
 1879TIP3   OH2 5579   0.666   7.401   2.775
 1879TIP3    H1 5580   0.707   7.363   2.697
 1879TIP3    H2 5581   0.739   7.417   2.835
 1880TIP3   OH2 5582   4.880   0.754   0.668
 1880TIP3    H1 5583   4.971   0.773   0.693
 1880TIP3    H2 5584   4.836   0.734   0.750
 1881TIP3   OH2 5585   3.509   6.035   0.678
 1881TIP3    H1 5586   3.596   6.062   0.707
 1881TIP3    H2 5587   3.466   6.003   0.758
 1882TIP3   OH2 5588   0.413   4.140   2.293
 1882TIP3    H1 5589   0.323   4.169   2.274
 1882TIP3    H2 5590   0.468   4.213   2.265
 1883TIP3   OH2 5591   4.882   2.913   2.791
 1883TIP3    H1 5592   4.912   3.004   2.779
 1883TIP3    H2 5593   4.791   2.922   2.819
 1884TIP3   OH2 5594   5.808   6.699   2.178
 1884TIP3    H1 5595   5.753   6.624   2.157
 1884TIP3    H2 5596   5.756   6.752   2.237
 1885TIP3   OH2 5597   5.703   7.060   0.904
 1885TIP3    H1 5598   5.774   7.115   0.872
 1885TIP3    H2 5599   5.745   6.976   0.923
 1886TIP3   OH2 5600   0.445   2.919   4.670
 1886TIP3    H1 5601   0.531   2.917   4.712
 1886TIP3    H2 5602   0.463   2.919   4.576
 1887TIP3   OH2 5603   2.475   7.594   3.247
 1887TIP3    H1 5604   2.459   7.686   3.268
 1887TIP3    H2 5605   2.401   7.548   3.287
 1888TIP3   OH2 5606   3.660   3.829   1.094
 1888TIP3    H1 5607   3.583   3.883   1.116
 1888TIP3    H2 5608   3.643   3.800   1.004
 1889TIP3   OH2 5609   8.158   1.261   0.513
 1889TIP3    H1 5610   8.118   1.270   0.426
 1889TIP3    H2 5611   8.119   1.181   0.549
 1890TIP3   OH2 5612   4.432   4.286   0.535
 1890TIP3    H1 5613   4.447   4.193   0.521
 1890TIP3    H2 5614   4.461   4.327   0.453
 1891TIP3   OH2 5615   2.352   6.212   2.921
 1891TIP3    H1 5616   2.290   6.141   2.902
 1891TIP3    H2 5617   2.323   6.246   3.005
 1892TIP3   OH2 5618   1.918   0.583   3.127
 1892TIP3    H1 5619   2.011   0.604   3.119
 1892TIP3    H2 5620   1.893   0.615   3.213
 1893TIP3   OH2 5621   1.775   4.639   0.582
 1893TIP3    H1 5622   1.682   4.645   0.603
 1893TIP3    H2 5623   1.794   4.545   0.584
 1894TIP3   OH2 5624   0.790   2.336   3.431
 1894TIP3    H1 5625   0.736   2.324   3.509
 1894TIP3    H2 5626   0.785   2.252   3.385
 1895TIP3   OH2 5627   3.562   3.202   3.469
 1895TIP3    H1 5628   3.631   3.168   3.526
 1895TIP3    H2 5629   3.494   3.231   3.530
 1896TIP3   OH2 5630   2.872   5.564   3.631
 1896TIP3    H1 5631   2.921   5.598   3.706
 1896TIP3    H2 5632   2.781   5.566   3.659
 1897TIP3   OH2 5633   1.743   1.936   4.316
 1897TIP3    H1 5634   1.748   1.871   4.386
 1897TIP3    H2 5635   1.808   1.908   4.252
 1898TIP3   OH2 5636   0.020   7.119   5.278
 1898TIP3    H1 5637   0.058   7.138   5.364
 1898TIP3    H2 5638   0.035   7.025   5.266
 1899TIP3   OH2 5639   6.217   7.452   6.172
 1899TIP3    H1 5640   6.248   7.494   6.253
 1899TIP3    H2 5641   6.295   7.444   6.117
 1900TIP3   OH2 5642   0.603   4.820   0.944
 1900TIP3    H1 5643   0.574   4.832   0.854
 1900TIP3    H2 5644   0.590   4.727   0.961
 1901TIP3   OH2 5645   6.919   4.337   4.668
 1901TIP3    H1 5646   6.912   4.396   4.743
 1901TIP3    H2 5647   6.985   4.379   4.612
 1902TIP3   OH2 5648   5.136   5.312   0.027
 1902TIP3    H1 5649   5.215   5.260   0.010
 1902TIP3    H2 5650   5.107   5.339  -0.060
 1903TIP3   OH2 5651   5.009   1.300   6.163
 1903TIP3    H1 5652   5.028   1.290   6.256
 1903TIP3    H2 5653   5.074   1.363   6.132
 1904TIP3   OH2 5654   5.014   6.116   0.198
 1904TIP3    H1 5655   4.922   6.138   0.212
 1904TIP3    H2 5656   5.012   6.047   0.132
 1905TIP3   OH2 5657   5.032   2.887   0.875
 1905TIP3    H1 5658   5.085   2.905   0.798
 1905TIP3    H2 5659   5.078   2.931   0.947
 1906TIP3   OH2 5660   1.759   0.658   6.406
 1906TIP3    H1 5661   1.695   0.729   6.406
 1906TIP3    H2 5662   1.839   0.698   6.440
 1907TIP3   OH2 5663   0.383   6.494   3.408
 1907TIP3    H1 5664   0.450   6.550   3.446
 1907TIP3    H2 5665   0.301   6.540   3.423
 1908TIP3   OH2 5666   2.350   0.407   2.750
 1908TIP3    H1 5667   2.384   0.388   2.662
 1908TIP3    H2 5668   2.402   0.351   2.808
 1909TIP3   OH2 5669   7.489   3.528   6.573
 1909TIP3    H1 5670   7.394   3.516   6.566
 1909TIP3    H2 5671   7.514   3.568   6.490
 1910TIP3   OH2 5672   4.574   0.234   6.422
 1910TIP3    H1 5673   4.521   0.160   6.454
 1910TIP3    H2 5674   4.512   0.307   6.416
 1911TIP3   OH2 5675   0.026   1.335   0.733
 1911TIP3    H1 5676  -0.023   1.306   0.656
 1911TIP3    H2 5677  -0.040   1.372   0.791
 1912TIP3   OH2 5678   0.394   0.879   0.184
 1912TIP3    H1 5679   0.457   0.816   0.220
 1912TIP3    H2 5680   0.310   0.832   0.186
 1913TIP3   OH2 5681   7.881   5.587   4.456
 1913TIP3    H1 5682   7.956   5.567   4.400
 1913TIP3    H2 5683   7.806   5.592   4.396
 1914TIP3   OH2 5684   7.487   4.810   6.216
 1914TIP3    H1 5685   7.463   4.802   6.124
 1914TIP3    H2 5686   7.521   4.899   6.224
 1915TIP3   OH2 5687   0.078   0.144   2.925
 1915TIP3    H1 5688   0.061   0.050   2.919
 1915TIP3    H2 5689   0.163   0.156   2.882
 1916TIP3   OH2 5690   4.034   5.142   3.355
 1916TIP3    H1 5691   4.082   5.222   3.375
 1916TIP3    H2 5692   4.011   5.106   3.440
 1917TIP3   OH2 5693   0.690   6.042   4.853
 1917TIP3    H1 5694   0.634   6.081   4.785
 1917TIP3    H2 5695   0.628   6.004   4.915
 1918TIP3   OH2 5696   4.974   3.151   1.135
 1918TIP3    H1 5697   4.988   3.111   1.221
 1918TIP3    H2 5698   4.887   3.192   1.143
 1919TIP3   OH2 5699   1.653   3.182   6.370
 1919TIP3    H1 5700   1.699   3.173   6.453
 1919TIP3    H2 5701   1.583   3.117   6.374
 1920TIP3   OH2 5702   4.698   6.226   1.910
 1920TIP3    H1 5703   4.745   6.233   1.992
 1920TIP3    H2 5704   4.653   6.310   1.900
 1921TIP3   OH2 5705   7.364   5.800   3.967
 1921TIP3    H1 5706   7.385   5.751   4.046
 1921TIP3    H2 5707   7.347   5.733   3.900
 1922TIP3   OH2 5708   3.136   1.296   4.610
 1922TIP3    H1 5709   3.174   1.208   4.606
 1922TIP3    H2 5710   3.042   1.282   4.610
 1923TIP3   OH2 5711   7.064   3.565   6.282
 1923TIP3    H1 5712   7.158   3.552   6.294
 1923TIP3    H2 5713   7.032   3.481   6.250
 1924TIP3   OH2 5714   4.242   4.661   2.062
 1924TIP3    H1 5715   4.219   4.568   2.064
 1924TIP3    H2 5716   4.306   4.672   2.133
 1925TIP3   OH2 5717   1.921   6.767   2.431
 1925TIP3    H1 5718   1.924   6.678   2.464
 1925TIP3    H2 5719   1.828   6.785   2.415
 1926TIP3   OH2 5720   7.156   3.280   6.202
 1926TIP3    H1 5721   7.174   3.270   6.109
 1926TIP3    H2 5722   7.085   3.219   6.220
 1927TIP3   OH2 5723   0.841   3.266   3.596
 1927TIP3    H1 5724   0.768   3.321   3.625
 1927TIP3    H2 5725   0.915   3.295   3.649
 1928TIP3   OH2 5726   4.426   4.753   6.384
 1928TIP3    H1 5727   4.363   4.747   6.457
 1928TIP3    H2 5728   4.472   4.669   6.387
 1929TIP3   OH2 5729   7.711   5.786   3.867
 1929TIP3    H1 5730   7.645   5.837   3.820
 1929TIP3    H2 5731   7.715   5.703   3.819
 1930TIP3   OH2 5732   7.295   6.853   6.684
 1930TIP3    H1 5733   7.320   6.770   6.724
 1930TIP3    H2 5734   7.258   6.904   6.757
 1931TIP3   OH2 5735   0.203   4.684   1.119
 1931TIP3    H1 5736   0.127   4.626   1.110
 1931TIP3    H2 5737   0.252   4.671   1.038
 1932TIP3   OH2 5738   1.001   5.060   1.389
 1932TIP3    H1 5739   1.004   5.098   1.301
 1932TIP3    H2 5740   1.057   4.983   1.384
 1933TIP3   OH2 5741   7.571   1.334   1.415
 1933TIP3    H1 5742   7.538   1.260   1.365
 1933TIP3    H2 5743   7.495   1.366   1.464
 1934TIP3   OH2 5744   7.819   6.944   3.726
 1934TIP3    H1 5745   7.842   6.978   3.640
 1934TIP3    H2 5746   7.766   7.013   3.766
 1935TIP3   OH2 5747   6.674   7.738   3.734
 1935TIP3    H1 5748   6.687   7.670   3.668
 1935TIP3    H2 5749   6.580   7.736   3.752
 1936TIP3   OH2 5750   4.923   1.692   4.718
 1936TIP3    H1 5751   4.833   1.707   4.688
 1936TIP3    H2 5752   4.972   1.766   4.684
 1937TIP3   OH2 5753   6.319   6.140   2.423
 1937TIP3    H1 5754   6.233   6.181   2.415
 1937TIP3    H2 5755   6.346   6.123   2.333
 1938TIP3   OH2 5756   6.105   0.820   2.654
 1938TIP3    H1 5757   6.011   0.836   2.654
 1938TIP3    H2 5758   6.131   0.834   2.745
 1939TIP3   OH2 5759   8.220   2.516   0.915
 1939TIP3    H1 5760   8.265   2.591   0.877
 1939TIP3    H2 5761   8.251   2.514   1.006
 1940TIP3   OH2 5762   0.914   6.608   5.092
 1940TIP3    H1 5763   0.921   6.587   4.999
 1940TIP3    H2 5764   0.942   6.529   5.137
 1941TIP3   OH2 5765   0.012   7.459   6.673
 1941TIP3    H1 5766   0.027   7.534   6.730
 1941TIP3    H2 5767   0.003   7.385   6.732
 1942TIP3   OH2 5768   3.032   4.979   1.590
 1942TIP3    H1 5769   3.125   4.997   1.583
 1942TIP3    H2 5770   3.016   4.972   1.684
 1943TIP3   OH2 5771   6.428   6.843   3.512
 1943TIP3    H1 5772   6.511   6.798   3.527
 1943TIP3    H2 5773   6.416   6.900   3.588
 1944TIP3   OH2 5774   3.244   4.757   2.314
 1944TIP3    H1 5775   3.164   4.767   2.367
 1944TIP3    H2 5776   3.278   4.672   2.339
 1945TIP3   OH2 5777   1.667   6.879   2.039
 1945TIP3    H1 5778   1.740   6.892   1.978
 1945TIP3    H2 5779   1.687   6.797   2.084
 1946TIP3   OH2 5780   7.230   0.380   5.391
 1946TIP3    H1 5781   7.183   0.341   5.465
 1946TIP3    H2 5782   7.301   0.430   5.432
 1947TIP3   OH2 5783   3.842   7.708   0.834
 1947TIP3    H1 5784   3.888   7.792   0.828
 1947TIP3    H2 5785   3.876   7.669   0.914
 1948TIP3   OH2 5786   2.587   1.264   1.212
 1948TIP3    H1 5787   2.659   1.227   1.162
 1948TIP3    H2 5788   2.513   1.206   1.197
 1949TIP3   OH2 5789   0.080   0.805   4.583
 1949TIP3    H1 5790   0.063   0.895   4.613
 1949TIP3    H2 5791   0.069   0.809   4.488
 1950TIP3   OH2 5792   5.852   7.626   5.557
 1950TIP3    H1 5793   5.857   7.535   5.526
 1950TIP3    H2 5794   5.940   7.660   5.545
 1951TIP3   OH2 5795   4.779   7.412   5.573
 1951TIP3    H1 5796   4.728   7.436   5.496
 1951TIP3    H2 5797   4.850   7.357   5.539
 1952TIP3   OH2 5798   1.845   2.290   4.641
 1952TIP3    H1 5799   1.852   2.374   4.686
 1952TIP3    H2 5800   1.930   2.248   4.654
 1953TIP3   OH2 5801   6.960   6.222   4.171
 1953TIP3    H1 5802   6.977   6.136   4.209
 1953TIP3    H2 5803   6.897   6.206   4.100
 1954TIP3   OH2 5804   7.063   2.976   5.430
 1954TIP3    H1 5805   7.081   2.918   5.503
 1954TIP3    H2 5806   6.979   2.947   5.395
 1955TIP3   OH2 5807   6.112   7.715   5.275
 1955TIP3    H1 5808   6.173   7.670   5.334
 1955TIP3    H2 5809   6.068   7.779   5.330
 1956TIP3   OH2 5810   4.779   0.717   1.527
 1956TIP3    H1 5811   4.807   0.641   1.579
 1956TIP3    H2 5812   4.720   0.680   1.461
 1957TIP3   OH2 5813   3.826   5.270   0.372
 1957TIP3    H1 5814   3.763   5.275   0.443
 1957TIP3    H2 5815   3.905   5.233   0.412
 1958TIP3   OH2 5816   8.097   6.629   3.714
 1958TIP3    H1 5817   8.117   6.646   3.622
 1958TIP3    H2 5818   8.126   6.539   3.728
 1959TIP3   OH2 5819   2.981   3.255   2.124
 1959TIP3    H1 5820   2.938   3.174   2.153
 1959TIP3    H2 5821   3.069   3.228   2.098
 1960TIP3   OH2 5822   5.823   5.971   5.892
 1960TIP3    H1 5823   5.771   5.940   5.818
 1960TIP3    H2 5824   5.758   6.003   5.954
 1961TIP3   OH2 5825   5.614   0.376   2.391
 1961TIP3    H1 5826   5.530   0.368   2.436
 1961TIP3    H2 5827   5.662   0.443   2.441
 1962TIP3   OH2 5828   6.600   2.906   6.673
 1962TIP3    H1 5829   6.676   2.917   6.730
 1962TIP3    H2 5830   6.529   2.884   6.733
 1963TIP3   OH2 5831   7.331   7.753   2.020
 1963TIP3    H1 5832   7.363   7.675   1.975
 1963TIP3    H2 5833   7.387   7.824   1.987
 1964TIP3   OH2 5834   4.523   6.463   1.633
 1964TIP3    H1 5835   4.601   6.461   1.578
 1964TIP3    H2 5836   4.450   6.460   1.571
 1965TIP3   OH2 5837   4.205   6.528   4.809
 1965TIP3    H1 5838   4.116   6.529   4.775
 1965TIP3    H2 5839   4.260   6.515   4.732
 1966TIP3   OH2 5840   0.583   3.650   6.742
 1966TIP3    H1 5841   0.549   3.655   6.831
 1966TIP3    H2 5842   0.677   3.666   6.751
 1967TIP3   OH2 5843   3.546   4.877   4.691
 1967TIP3    H1 5844   3.630   4.915   4.666
 1967TIP3    H2 5845   3.489   4.953   4.704
 1968TIP3   OH2 5846   6.304   0.317   2.846
 1968TIP3    H1 5847   6.339   0.250   2.904
 1968TIP3    H2 5848   6.244   0.368   2.902
 1969TIP3   OH2 5849   7.955   7.740   2.587
 1969TIP3    H1 5850   7.928   7.652   2.614
 1969TIP3    H2 5851   7.876   7.793   2.596
 1970TIP3   OH2 5852   7.019   7.023   1.679
 1970TIP3    H1 5853   7.005   6.932   1.654
 1970TIP3    H2 5854   6.932   7.063   1.674
 1971TIP3   OH2 5855   5.032   7.585   2.539
 1971TIP3    H1 5856   5.110   7.637   2.555
 1971TIP3    H2 5857   4.959   7.643   2.561
 1972TIP3   OH2 5858   2.510   3.917   6.653
 1972TIP3    H1 5859   2.592   3.926   6.702
 1972TIP3    H2 5860   2.444   3.899   6.720
 1973TIP3   OH2 5861   6.183   2.651   2.655
 1973TIP3    H1 5862   6.111   2.666   2.594
 1973TIP3    H2 5863   6.140   2.623   2.736
 1974TIP3   OH2 5864   2.026   3.192   0.213
 1974TIP3    H1 5865   1.942   3.222   0.178
 1974TIP3    H2 5866   2.088   3.205   0.141
 1975TIP3   OH2 5867   2.457   3.555   2.249
 1975TIP3    H1 5868   2.496   3.521   2.168
 1975TIP3    H2 5869   2.456   3.650   2.238
 1976TIP3   OH2 5870   0.263   6.505   1.227
 1976TIP3    H1 5871   0.173   6.498   1.195
 1976TIP3    H2 5872   0.279   6.598   1.236
 1977TIP3   OH2 5873   3.100   6.034   1.011
 1977TIP3    H1 5874   3.137   5.958   1.056
 1977TIP3    H2 5875   3.028   5.999   0.959
 1978TIP3   OH2 5876   5.320   0.015   5.351
 1978TIP3    H1 5877   5.415   0.029   5.353
 1978TIP3    H2 5878   5.302  -0.037   5.429
 1979TIP3   OH2 5879   1.468   5.969   1.037
 1979TIP3    H1 5880   1.454   6.063   1.032
 1979TIP3    H2 5881   1.496   5.953   1.127
 1980TIP3   OH2 5882   5.884   2.497   4.570
 1980TIP3    H1 5883   5.827   2.493   4.493
 1980TIP3    H2 5884   5.826   2.480   4.644
 1981TIP3   OH2 5885   8.194   6.229   5.748
 1981TIP3    H1 5886   8.226   6.257   5.662
 1981TIP3    H2 5887   8.133   6.297   5.775
 1982TIP3   OH2 5888   3.219   6.325   3.459
 1982TIP3    H1 5889   3.269   6.405   3.477
 1982TIP3    H2 5890   3.180   6.302   3.543
 1983TIP3   OH2 5891   4.319   2.645   3.292
 1983TIP3    H1 5892   4.232   2.607   3.281
 1983TIP3    H2 5893   4.325   2.711   3.222
 1984TIP3   OH2 5894   6.653   2.021   4.442
 1984TIP3    H1 5895   6.624   2.007   4.352
 1984TIP3    H2 5896   6.573   2.016   4.494
 1985TIP3   OH2 5897   6.307   0.974   2.486
 1985TIP3    H1 5898   6.243   0.924   2.537
 1985TIP3    H2 5899   6.376   0.911   2.465
 1986TIP3   OH2 5900   0.611   6.262   2.275
 1986TIP3    H1 5901   0.620   6.327   2.205
 1986TIP3    H2 5902   0.587   6.313   2.352
 1987TIP3   OH2 5903   0.414   2.777   1.947
 1987TIP3    H1 5904   0.468   2.803   1.872
 1987TIP3    H2 5905   0.357   2.852   1.962
 1988TIP3   OH2 5906   2.569   5.992   0.895
 1988TIP3    H1 5907   2.563   6.084   0.871
 1988TIP3    H2 5908   2.568   5.991   0.991
 1989TIP3   OH2 5909   7.330   3.032   6.006
 1989TIP3    H1 5910   7.334   2.948   5.960
 1989TIP3    H2 5911   7.370   3.015   6.091
 1990TIP3   OH2 5912   7.435   0.520   2.269
 1990TIP3    H1 5913   7.484   0.444   2.238
 1990TIP3    H2 5914   7.500   0.589   2.279
 1991TIP3   OH2 5915   2.926   2.366   5.798
 1991TIP3    H1 5916   2.888   2.356   5.711
 1991TIP3    H2 5917   2.998   2.428   5.786
 1992TIP3   OH2 5918   5.320   1.116   1.355
 1992TIP3    H1 5919   5.406   1.125   1.313
 1992TIP3    H2 5920   5.257   1.140   1.287
 1993TIP3   OH2 5921   6.203   6.052   3.825
 1993TIP3    H1 5922   6.111   6.056   3.851
 1993TIP3    H2 5923   6.208   5.977   3.766
 1994TIP3   OH2 5924   1.241   3.340   2.984
 1994TIP3    H1 5925   1.327   3.359   3.022
 1994TIP3    H2 5926   1.179   3.358   3.055
 1995TIP3   OH2 5927   6.805   0.529   5.556
 1995TIP3    H1 5928   6.799   0.532   5.651
 1995TIP3    H2 5929   6.738   0.466   5.530
 1996TIP3   OH2 5930   3.012   5.822   2.440
 1996TIP3    H1 5931   3.098   5.779   2.438
 1996TIP3    H2 5932   2.974   5.795   2.524
 1997TIP3   OH2 5933   1.096   6.437   1.868
 1997TIP3    H1 5934   1.075   6.405   1.780
 1997TIP3    H2 5935   1.105   6.358   1.921
 1998TIP3   OH2 5936   4.836   3.652   1.952
 1998TIP3    H1 5937   4.796   3.607   1.878
 1998TIP3    H2 5938   4.924   3.674   1.921
 1999TIP3   OH2 5939   1.734   1.083   2.829
 1999TIP3    H1 5940   1.727   1.021   2.902
 1999TIP3    H2 5941   1.825   1.075   2.800
 2000TIP3   OH2 5942   6.034   7.221   4.859
 2000TIP3    H1 5943   5.963   7.162   4.885
 2000TIP3    H2 5944   6.102   7.207   4.924
 2001TIP3   OH2 5945   2.328   2.608   2.484
 2001TIP3    H1 5946   2.276   2.689   2.478
 2001TIP3    H2 5947   2.318   2.567   2.398
 2002TIP3   OH2 5948   3.708   1.432   0.307
 2002TIP3    H1 5949   3.631   1.430   0.251
 2002TIP3    H2 5950   3.690   1.501   0.370
 2003TIP3   OH2 5951   3.960   2.846   5.016
 2003TIP3    H1 5952   3.974   2.811   5.104
 2003TIP3    H2 5953   3.932   2.771   4.964
 2004TIP3   OH2 5954   5.396   3.538   4.374
 2004TIP3    H1 5955   5.338   3.478   4.421
 2004TIP3    H2 5956   5.445   3.482   4.314
 2005TIP3   OH2 5957   0.815   5.038   5.572
 2005TIP3    H1 5958   0.862   4.956   5.556
 2005TIP3    H2 5959   0.872   5.105   5.534
 2006TIP3   OH2 5960   4.452   0.526   4.130
 2006TIP3    H1 5961   4.432   0.618   4.146
 2006TIP3    H2 5962   4.435   0.513   4.037
 2007TIP3   OH2 5963   0.023   5.616   6.023
 2007TIP3    H1 5964  -0.002   5.689   6.080
 2007TIP3    H2 5965   0.095   5.651   5.971
 2008TIP3   OH2 5966   6.926   7.143   2.821
 2008TIP3    H1 5967   6.935   7.156   2.916
 2008TIP3    H2 5968   6.928   7.048   2.810
 2009TIP3   OH2 5969   1.521   2.820   1.675
 2009TIP3    H1 5970   1.566   2.775   1.747
 2009TIP3    H2 5971   1.591   2.862   1.625
 2010TIP3   OH2 5972   7.846   3.460   5.142
 2010TIP3    H1 5973   7.785   3.396   5.179
 2010TIP3    H2 5974   7.791   3.536   5.122
 2011TIP3   OH2 5975   1.409   6.225   5.383
 2011TIP3    H1 5976   1.374   6.178   5.307
 2011TIP3    H2 5977   1.458   6.298   5.345
 2012TIP3   OH2 5978   2.680   5.371   5.197
 2012TIP3    H1 5979   2.703   5.462   5.180
 2012TIP3    H2 5980   2.662   5.367   5.291
 2013TIP3   OH2 5981   5.879   4.964   1.529
 2013TIP3    H1 5982   5.966   4.974   1.489
 2013TIP3    H2 5983   5.865   5.046   1.576
 2014TIP3   OH2 5984   6.302   0.479   3.186
 2014TIP3    H1 5985   6.374   0.538   3.210
 2014TIP3    H2 5986   6.259   0.522   3.113
 2015TIP3   OH2 5987   1.345   2.319   3.059
 2015TIP3    H1 5988   1.292   2.240   3.065
 2015TIP3    H2 5989   1.338   2.345   2.967
 2016TIP3   OH2 5990   3.879   1.030   0.636
 2016TIP3    H1 5991   3.848   0.947   0.673
 2016TIP3    H2 5992   3.876   1.016   0.541
 2017TIP3   OH2 5993   4.276   5.604   3.462
 2017TIP3    H1 5994   4.239   5.657   3.392
 2017TIP3    H2 5995   4.339   5.662   3.505
 2018TIP3   OH2 5996   5.110   0.061   4.099
 2018TIP3    H1 5997   5.100  -0.002   4.171
 2018TIP3    H2 5998   5.021   0.074   4.066
 2019TIP3   OH2 5999   1.302   7.440   4.754
 2019TIP3    H1 6000   1.245   7.424   4.829
 2019TIP3    H2 6001   1.366   7.369   4.757
 2020TIP3   OH2 6002   0.013   7.612   5.908
 2020TIP3    H1 6003   0.099   7.619   5.867
 2020TIP3    H2 6004  -0.031   7.694   5.887
 2021TIP3   OH2 6005   7.434   6.064   3.541
 2021TIP3    H1 6006   7.449   6.051   3.448
 2021TIP3    H2 6007   7.398   5.981   3.572
 2022TIP3   OH2 6008   1.679   2.207   3.116
 2022TIP3    H1 6009   1.754   2.159   3.152
 2022TIP3    H2 6010   1.603   2.154   3.140
 2023TIP3   OH2 6011   5.069   5.884   6.364
 2023TIP3    H1 6012   5.006   5.924   6.424
 2023TIP3    H2 6013   5.146   5.866   6.417
 2024TIP3   OH2 6014   3.289   5.928   1.814
 2024TIP3    H1 6015   3.197   5.945   1.834
 2024TIP3    H2 6016   3.331   6.013   1.819
 2025TIP3   OH2 6017   4.588   2.916   2.050
 2025TIP3    H1 6018   4.664   2.890   1.998
 2025TIP3    H2 6019   4.606   3.007   2.075
 2026TIP3   OH2 6020   3.812   2.787   5.923
 2026TIP3    H1 6021   3.724   2.755   5.904
 2026TIP3    H2 6022   3.844   2.821   5.839
 2027TIP3   OH2 6023   2.085   6.752   2.005
 2027TIP3    H1 6024   2.017   6.701   2.049
 2027TIP3    H2 6025   2.150   6.769   2.073
 2028TIP3   OH2 6026   6.976   6.285   6.715
 2028TIP3    H1 6027   7.030   6.363   6.724
 2028TIP3    H2 6028   6.997   6.251   6.628
 2029TIP3   OH2 6029   1.715   1.210   3.749
 2029TIP3    H1 6030   1.754   1.133   3.791
 2029TIP3    H2 6031   1.635   1.227   3.800
 2030TIP3   OH2 6032   2.869   2.617   6.366
 2030TIP3    H1 6033   2.898   2.659   6.446
 2030TIP3    H2 6034   2.812   2.682   6.324
 2031TIP3   OH2 6035   6.656   2.200   4.981
 2031TIP3    H1 6036   6.633   2.132   4.918
 2031TIP3    H2 6037   6.652   2.282   4.932
 2032TIP3   OH2 6038   1.223   3.365   0.518
 2032TIP3    H1 6039   1.238   3.300   0.586
 2032TIP3    H2 6040   1.135   3.346   0.486
 2033TIP3   OH2 6041   6.084   5.977   2.782
 2033TIP3    H1 6042   6.049   6.017   2.703
 2033TIP3    H2 6043   6.179   5.984   2.773
 2034TIP3   OH2 6044   0.878   4.043   4.352
 2034TIP3    H1 6045   0.881   4.134   4.380
 2034TIP3    H2 6046   0.969   4.014   4.356
 2035TIP3   OH2 6047   1.419   2.859   4.372
 2035TIP3    H1 6048   1.402   2.926   4.306
 2035TIP3    H2 6049   1.418   2.777   4.323
 2036TIP3   OH2 6050   0.975   3.636   6.402
 2036TIP3    H1 6051   1.042   3.705   6.401
 2036TIP3    H2 6052   1.024   3.555   6.390
 2037TIP3   OH2 6053   3.921   3.482   2.929
 2037TIP3    H1 6054   3.873   3.535   2.866
 2037TIP3    H2 6055   3.983   3.542   2.970
 2038TIP3   OH2 6056   5.999   4.318   3.337
 2038TIP3    H1 6057   5.908   4.294   3.354
 2038TIP3    H2 6058   6.018   4.279   3.252
 2039TIP3   OH2 6059   2.487   3.412   4.925
 2039TIP3    H1 6060   2.407   3.430   4.876
 2039TIP3    H2 6061   2.494   3.483   4.988
 2040TIP3   OH2 6062   6.338   5.849   2.544
 2040TIP3    H1 6063   6.343   5.943   2.559
 2040TIP3    H2 6064   6.297   5.840   2.458
 2041TIP3   OH2 6065   0.147   0.838   6.217
 2041TIP3    H1 6066   0.130   0.832   6.311
 2041TIP3    H2 6067   0.240   0.820   6.208
 2042TIP3   OH2 6068   7.701   5.425   6.250
 2042TIP3    H1 6069   7.643   5.484   6.298
 2042TIP3    H2 6070   7.704   5.461   6.162
 2043TIP3   OH2 6071   4.482   6.076   1.251
 2043TIP3    H1 6072   4.560   6.034   1.213
 2043TIP3    H2 6073   4.411   6.013   1.235
 2044TIP3   OH2 6074   2.765   6.305   4.785
 2044TIP3    H1 6075   2.681   6.263   4.801
 2044TIP3    H2 6076   2.804   6.255   4.714
 2045TIP3   OH2 6077   3.747   3.025   5.209
 2045TIP3    H1 6078   3.842   3.034   5.208
 2045TIP3    H2 6079   3.732   2.931   5.198
 2046TIP3   OH2 6080   2.976   1.433   2.131
 2046TIP3    H1 6081   2.897   1.468   2.089
 2046TIP3    H2 6082   3.045   1.495   2.106
 2047TIP3   OH2 6083   6.744   4.825   0.490
 2047TIP3    H1 6084   6.711   4.885   0.557
 2047TIP3    H2 6085   6.697   4.848   0.410
 2048TIP3   OH2 6086   7.670   2.315   1.478
 2048TIP3    H1 6087   7.712   2.347   1.399
 2048TIP3    H2 6088   7.621   2.390   1.512
 2049TIP3   OH2 6089   5.126   6.236   0.945
 2049TIP3    H1 6090   5.107   6.300   0.877
 2049TIP3    H2 6091   5.115   6.151   0.902
 2050TIP3   OH2 6092   6.646   5.989   1.322
 2050TIP3    H1 6093   6.706   6.047   1.275
 2050TIP3    H2 6094   6.703   5.932   1.373
 2051TIP3   OH2 6095   2.536   0.469   4.565
 2051TIP3    H1 6096   2.450   0.483   4.527
 2051TIP3    H2 6097   2.524   0.399   4.628
 2052TIP3   OH2 6098   3.243   4.498   0.749
 2052TIP3    H1 6099   3.295   4.491   0.830
 2052TIP3    H2 6100   3.259   4.415   0.703
 2053TIP3   OH2 6101   6.475   5.759   5.331
 2053TIP3    H1 6102   6.431   5.817   5.394
 2053TIP3    H2 6103   6.506   5.685   5.383
 2054TIP3   OH2 6104   7.930   3.814   1.009
 2054TIP3    H1 6105   7.907   3.789   0.920
 2054TIP3    H2 6106   7.902   3.739   1.063
 2055TIP3   OH2 6107   7.265   1.526   2.438
 2055TIP3    H1 6108   7.284   1.517   2.344
 2055TIP3    H2 6109   7.304   1.449   2.478
 2056TIP3   OH2 6110   5.839   0.629   2.221
 2056TIP3    H1 6111   5.902   0.701   2.227
 2056TIP3    H2 6112   5.799   0.639   2.135
 2057TIP3   OH2 6113   4.992   1.216   3.726
 2057TIP3    H1 6114   5.044   1.218   3.646
 2057TIP3    H2 6115   4.902   1.201   3.696
 2058TIP3   OH2 6116   3.984   2.138   5.488
 2058TIP3    H1 6117   3.915   2.175   5.542
 2058TIP3    H2 6118   4.054   2.203   5.489
 2059TIP3   OH2 6119   2.726   4.857   6.395
 2059TIP3    H1 6120   2.649   4.903   6.429
 2059TIP3    H2 6121   2.800   4.910   6.424
 2060TIP3   OH2 6122   7.042   2.149   1.199
 2060TIP3    H1 6123   7.024   2.243   1.198
 2060TIP3    H2 6124   6.976   2.113   1.259
 2061TIP3   OH2 6125   2.824   7.147   6.212
 2061TIP3    H1 6126   2.894   7.176   6.270
 2061TIP3    H2 6127   2.779   7.078   6.261
 2062TIP3   OH2 6128   6.870   4.125   0.457
 2062TIP3    H1 6129   6.809   4.113   0.384
 2062TIP3    H2 6130   6.814   4.154   0.529
 2063TIP3   OH2 6131   6.948   7.811   0.198
 2063TIP3    H1 6132   6.947   7.738   0.135
 2063TIP3    H2 6133   6.918   7.771   0.280
 2064TIP3   OH2 6134   4.925   1.750   2.907
 2064TIP3    H1 6135   4.852   1.705   2.951
 2064TIP3    H2 6136   5.000   1.692   2.919
 2065TIP3   OH2 6137   7.861   3.882   2.512
 2065TIP3    H1 6138   7.897   3.935   2.583
 2065TIP3    H2 6139   7.915   3.803   2.510
 2066TIP3   OH2 6140   4.105   0.470   2.244
 2066TIP3    H1 6141   4.034   0.502   2.300
 2066TIP3    H2 6142   4.168   0.433   2.305
 2067TIP3   OH2 6143   2.688   2.407   2.468
 2067TIP3    H1 6144   2.619   2.458   2.426
 2067TIP3    H2 6145   2.643   2.357   2.536
 2068TIP3   OH2 6146   6.324   3.515   6.326
 2068TIP3    H1 6147   6.324   3.543   6.234
 2068TIP3    H2 6148   6.285   3.428   6.325
 2069TIP3   OH2 6149   0.416   7.295   5.159
 2069TIP3    H1 6150   0.327   7.284   5.124
 2069TIP3    H2 6151   0.435   7.388   5.148
 2070TIP3   OH2 6152   1.863   4.174   3.507
 2070TIP3    H1 6153   1.878   4.201   3.598
 2070TIP3    H2 6154   1.899   4.085   3.503
 2071TIP3   OH2 6155   3.951   1.743   2.468
 2071TIP3    H1 6156   4.028   1.775   2.422
 2071TIP3    H2 6157   3.883   1.809   2.449
 2072TIP3   OH2 6158   6.583   5.552   4.320
 2072TIP3    H1 6159   6.494   5.557   4.356
 2072TIP3    H2 6160   6.571   5.549   4.226
 2073TIP3   OH2 6161   4.514   6.818   4.203
 2073TIP3    H1 6162   4.508   6.766   4.123
 2073TIP3    H2 6163   4.604   6.805   4.234
 2074TIP3   OH2 6164   2.719   7.689   4.985
 2074TIP3    H1 6165   2.754   7.762   5.036
 2074TIP3    H2 6166   2.641   7.661   5.034
 2075TIP3   OH2 6167   0.705   3.035   1.517
 2075TIP3    H1 6168   0.644   3.105   1.493
 2075TIP3    H2 6169   0.762   3.075   1.584
 2076TIP3   OH2 6170   6.823   2.371   2.749
 2076TIP3    H1 6171   6.859   2.452   2.786
 2076TIP3    H2 6172   6.812   2.313   2.824
 2077TIP3   OH2 6173   4.945   5.478   1.847
 2077TIP3    H1 6174   4.889   5.546   1.810
 2077TIP3    H2 6175   4.989   5.440   1.771
 2078TIP3   OH2 6176   2.399   2.813   1.466
 2078TIP3    H1 6177   2.417   2.861   1.547
 2078TIP3    H2 6178   2.316   2.849   1.434
 2079TIP3   OH2 6179   6.510   5.809   6.280
 2079TIP3    H1 6180   6.572   5.865   6.327
 2079TIP3    H2 6181   6.428   5.818   6.328
 2080TIP3   OH2 6182   1.266   6.853   0.456
 2080TIP3    H1 6183   1.342   6.831   0.510
 2080TIP3    H2 6184   1.302   6.864   0.368
 2081TIP3   OH2 6185   2.365   0.734   3.072
 2081TIP3    H1 6186   2.345   0.711   3.163
 2081TIP3    H2 6187   2.457   0.762   3.074
 2082TIP3   OH2 6188   3.520   5.435   6.705
 2082TIP3    H1 6189   3.515   5.517   6.655
 2082TIP3    H2 6190   3.431   5.422   6.736
 2083TIP3   OH2 6191   7.285   4.578   0.334
 2083TIP3    H1 6192   7.226   4.650   0.313
 2083TIP3    H2 6193   7.307   4.540   0.249
 2084TIP3   OH2 6194   6.760   2.475   2.050
 2084TIP3    H1 6195   6.679   2.450   2.006
 2084TIP3    H2 6196   6.740   2.472   2.143
 2085TIP3   OH2 6197   5.533   5.514   1.655
 2085TIP3    H1 6198   5.572   5.536   1.740
 2085TIP3    H2 6199   5.469   5.583   1.639
 2086TIP3   OH2 6200   4.641   4.731   0.647
 2086TIP3    H1 6201   4.648   4.640   0.620
 2086TIP3    H2 6202   4.732   4.761   0.657
 2087TIP3   OH2 6203   5.845   7.553   4.328
 2087TIP3    H1 6204   5.903   7.614   4.283
 2087TIP3    H2 6205   5.859   7.469   4.283
 2088TIP3   OH2 6206   6.155   4.284   0.466
 2088TIP3    H1 6207   6.149   4.362   0.522
 2088TIP3    H2 6208   6.224   4.304   0.404
 2089TIP3   OH2 6209   7.842   7.113   4.368
 2089TIP3    H1 6210   7.883   7.027   4.365
 2089TIP3    H2 6211   7.834   7.133   4.461
 2090TIP3   OH2 6212   1.711   0.570   1.010
 2090TIP3    H1 6213   1.698   0.649   0.958
 2090TIP3    H2 6214   1.630   0.520   0.998
 2091TIP3   OH2 6215   0.613   1.358   6.261
 2091TIP3    H1 6216   0.579   1.447   6.266
 2091TIP3    H2 6217   0.687   1.364   6.200
 2092TIP3   OH2 6218   1.190   5.288   0.208
 2092TIP3    H1 6219   1.242   5.218   0.168
 2092TIP3    H2 6220   1.188   5.358   0.142
 2093TIP3   OH2 6221   5.751   4.131   6.638
 2093TIP3    H1 6222   5.706   4.074   6.576
 2093TIP3    H2 6223   5.791   4.198   6.584
 2094TIP3   OH2 6224   6.717   1.058   4.183
 2094TIP3    H1 6225   6.659   1.120   4.139
 2094TIP3    H2 6226   6.715   0.980   4.129
 2095TIP3   OH2 6227   3.267   4.426   6.183
 2095TIP3    H1 6228   3.223   4.446   6.100
 2095TIP3    H2 6229   3.197   4.390   6.238
 2096TIP3   OH2 6230   4.433   3.372   5.138
 2096TIP3    H1 6231   4.412   3.323   5.058
 2096TIP3    H2 6232   4.428   3.306   5.207
 2097TIP3   OH2 6233   2.640   6.141   3.988
 2097TIP3    H1 6234   2.607   6.063   4.033
 2097TIP3    H2 6235   2.614   6.214   4.044
 2098TIP3   OH2 6236   8.068   1.997   5.527
 2098TIP3    H1 6237   8.124   2.071   5.506
 2098TIP3    H2 6238   8.066   1.995   5.623
 2099TIP3   OH2 6239   1.747   6.832   1.715
 2099TIP3    H1 6240   1.776   6.819   1.625
 2099TIP3    H2 6241   1.812   6.891   1.753
 2100TIP3   OH2 6242   0.279   3.111   5.993
 2100TIP3    H1 6243   0.223   3.154   6.058
 2100TIP3    H2 6244   0.262   3.157   5.911
 2101TIP3   OH2 6245   8.242   0.799   5.372
 2101TIP3    H1 6246   8.211   0.709   5.363
 2101TIP3    H2 6247   8.239   0.835   5.284
 2102TIP3   OH2 6248   1.896   0.008   1.694
 2102TIP3    H1 6249   1.965   0.071   1.673
 2102TIP3    H2 6250   1.942  -0.066   1.733
 2103TIP3   OH2 6251   5.720   4.584   6.689
 2103TIP3    H1 6252   5.665   4.601   6.613
 2103TIP3    H2 6253   5.809   4.603   6.659
 2104TIP3   OH2 6254   5.459   7.599   6.524
 2104TIP3    H1 6255   5.383   7.629   6.474
 2104TIP3    H2 6256   5.515   7.556   6.459
 2105TIP3   OH2 6257   1.141   4.171   6.504
 2105TIP3    H1 6258   1.133   4.196   6.412
 2105TIP3    H2 6259   1.221   4.215   6.534
 2106TIP3   OH2 6260   8.167   0.591   0.707
 2106TIP3    H1 6261   8.127   0.506   0.690
 2106TIP3    H2 6262   8.149   0.608   0.800
 2107TIP3   OH2 6263   4.437   1.824   3.338
 2107TIP3    H1 6264   4.410   1.849   3.250
 2107TIP3    H2 6265   4.415   1.731   3.344
 2108TIP3   OH2 6266   3.050   2.358   4.938
 2108TIP3    H1 6267   3.088   2.386   5.021
 2108TIP3    H2 6268   2.958   2.386   4.942
 2109TIP3   OH2 6269   3.034   7.016   0.377
 2109TIP3    H1 6270   2.950   7.048   0.408
 2109TIP3    H2 6271   3.088   7.094   0.368
 2110TIP3   OH2 6272   3.597   3.975   3.909
 2110TIP3    H1 6273   3.573   3.941   3.995
 2110TIP3    H2 6274   3.642   4.057   3.928
 2111TIP3   OH2 6275   0.107   0.227   1.602
 2111TIP3    H1 6276   0.054   0.174   1.543
 2111TIP3    H2 6277   0.197   0.216   1.571
 2112TIP3   OH2 6278   7.185   5.702   0.827
 2112TIP3    H1 6279   7.171   5.708   0.733
 2112TIP3    H2 6280   7.143   5.620   0.853
 2113TIP3   OH2 6281   4.403   6.275   6.151
 2113TIP3    H1 6282   4.444   6.336   6.090
 2113TIP3    H2 6283   4.342   6.329   6.201
 2114TIP3   OH2 6284   5.090   5.646   0.194
 2114TIP3    H1 6285   5.124   5.569   0.240
 2114TIP3    H2 6286   4.997   5.646   0.216
 2115TIP3   OH2 6287   7.933   6.103   2.849
 2115TIP3    H1 6288   7.854   6.143   2.811
 2115TIP3    H2 6289   7.919   6.009   2.842
 2116TIP3   OH2 6290   5.515   4.615   3.197
 2116TIP3    H1 6291   5.521   4.610   3.101
 2116TIP3    H2 6292   5.461   4.540   3.222
 2117TIP3   OH2 6293   3.895   6.287   3.548
 2117TIP3    H1 6294   3.857   6.279   3.636
 2117TIP3    H2 6295   3.845   6.358   3.507
 2118TIP3   OH2 6296   5.735   4.861   6.622
 2118TIP3    H1 6297   5.663   4.917   6.653
 2118TIP3    H2 6298   5.812   4.917   6.623
 2119TIP3   OH2 6299   3.056   6.060   4.586
 2119TIP3    H1 6300   2.962   6.068   4.573
 2119TIP3    H2 6301   3.085   6.149   4.608
 2120TIP3   OH2 6302   3.690   7.378   4.256
 2120TIP3    H1 6303   3.738   7.361   4.175
 2120TIP3    H2 6304   3.753   7.359   4.326
 2121TIP3   OH2 6305   7.190   3.411   5.553
 2121TIP3    H1 6306   7.201   3.316   5.551
 2121TIP3    H2 6307   7.119   3.426   5.615
 2122TIP3   OH2 6308   0.131   6.587   4.723
 2122TIP3    H1 6309   0.052   6.614   4.676
 2122TIP3    H2 6310   0.101   6.519   4.783
 2123TIP3   OH2 6311   0.224   7.268   4.213
 2123TIP3    H1 6312   0.208   7.317   4.294
 2123TIP3    H2 6313   0.137   7.248   4.179
 2124TIP3   OH2 6314   0.995   4.467   2.880
 2124TIP3    H1 6315   0.936   4.537   2.906
 2124TIP3    H2 6316   1.001   4.410   2.956
 2125TIP3   OH2 6317   4.453   7.595   6.698
 2125TIP3    H1 6318   4.375   7.552   6.733
 2125TIP3    H2 6319   4.513   7.600   6.773
 2126TIP3   OH2 6320   2.524   1.450   0.361
 2126TIP3    H1 6321   2.523   1.424   0.453
 2126TIP3    H2 6322   2.507   1.369   0.313
 2127TIP3   OH2 6323   6.819   0.543   6.694
 2127TIP3    H1 6324   6.758   0.476   6.665
 2127TIP3    H2 6325   6.906   0.506   6.677
 2128TIP3   OH2 6326   4.923   1.569   3.187
 2128TIP3    H1 6327   4.834   1.580   3.152
 2128TIP3    H2 6328   4.941   1.652   3.232
 2129TIP3   OH2 6329   7.240   6.771   3.453
 2129TIP3    H1 6330   7.280   6.820   3.525
 2129TIP3    H2 6331   7.150   6.756   3.481
 2130TIP3   OH2 6332   1.891   6.396   3.972
 2130TIP3    H1 6333   1.921   6.342   4.045
 2130TIP3    H2 6334   1.940   6.363   3.896
 2131TIP3   OH2 6335   2.918   6.614   1.512
 2131TIP3    H1 6336   2.957   6.629   1.598
 2131TIP3    H2 6337   2.950   6.528   1.486
 2132TIP3   OH2 6338   6.273   3.452   1.043
 2132TIP3    H1 6339   6.239   3.377   1.091
 2132TIP3    H2 6340   6.343   3.487   1.099
 2133TIP3   OH2 6341   1.144   7.130   3.502
 2133TIP3    H1 6342   1.066   7.141   3.449
 2133TIP3    H2 6343   1.113   7.140   3.592
 2134TIP3   OH2 6344   5.643   2.791   1.015
 2134TIP3    H1 6345   5.721   2.780   0.961
 2134TIP3    H2 6346   5.571   2.796   0.952
 2135TIP3   OH2 6347   5.803   5.154   3.112
 2135TIP3    H1 6348   5.747   5.078   3.098
 2135TIP3    H2 6349   5.784   5.182   3.201
 2136TIP3   OH2 6350   6.472   7.537   1.117
 2136TIP3    H1 6351   6.519   7.604   1.167
 2136TIP3    H2 6352   6.396   7.583   1.080
 2137TIP3   OH2 6353   6.961   4.027   6.510
 2137TIP3    H1 6354   6.866   4.036   6.525
 2137TIP3    H2 6355   6.970   3.939   6.473
 2138TIP3   OH2 6356   0.666   3.871   0.265
 2138TIP3    H1 6357   0.640   3.949   0.314
 2138TIP3    H2 6358   0.758   3.886   0.245
 2139TIP3   OH2 6359   2.594   0.742   6.576
 2139TIP3    H1 6360   2.563   0.832   6.569
 2139TIP3    H2 6361   2.636   0.723   6.492
 2140TIP3   OH2 6362   0.762   4.323   4.687
 2140TIP3    H1 6363   0.807   4.402   4.717
 2140TIP3    H2 6364   0.765   4.264   4.762
 2141TIP3   OH2 6365   6.892   4.303   2.167
 2141TIP3    H1 6366   6.833   4.228   2.179
 2141TIP3    H2 6367   6.954   4.296   2.240
 2142TIP3   OH2 6368   0.475   4.404   6.593
 2142TIP3    H1 6369   0.503   4.436   6.507
 2142TIP3    H2 6370   0.508   4.315   6.597
 2143TIP3   OH2 6371   4.232   6.634   5.458
 2143TIP3    H1 6372   4.286   6.604   5.531
 2143TIP3    H2 6373   4.294   6.644   5.385
 2144TIP3   OH2 6374   6.192   3.288   6.259
 2144TIP3    H1 6375   6.113   3.341   6.270
 2144TIP3    H2 6376   6.191   3.262   6.167
 2145TIP3   OH2 6377   4.864   4.179   2.071
 2145TIP3    H1 6378   4.899   4.213   2.153
 2145TIP3    H2 6379   4.939   4.178   2.011
 2146TIP3   OH2 6380   3.913   7.117   0.738
 2146TIP3    H1 6381   3.867   7.033   0.731
 2146TIP3    H2 6382   3.966   7.108   0.817
 2147TIP3   OH2 6383   5.271   6.531   5.238
 2147TIP3    H1 6384   5.348   6.581   5.267
 2147TIP3    H2 6385   5.307   6.468   5.175
 2148TIP3   OH2 6386   6.495   5.539   1.352
 2148TIP3    H1 6387   6.466   5.536   1.261
 2148TIP3    H2 6388   6.590   5.534   1.347
 2149TIP3   OH2 6389   2.710   4.313   6.647
 2149TIP3    H1 6390   2.681   4.378   6.584
 2149TIP3    H2 6391   2.705   4.357   6.732
 2150TIP3   OH2 6392   2.379   7.017   1.800
 2150TIP3    H1 6393   2.425   6.996   1.881
 2150TIP3    H2 6394   2.407   6.950   1.738
 2151TIP3   OH2 6395   5.385   0.522   3.147
 2151TIP3    H1 6396   5.387   0.607   3.191
 2151TIP3    H2 6397   5.291   0.502   3.139
 2152TIP3   OH2 6398   0.432   1.029   2.662
 2152TIP3    H1 6399   0.392   1.083   2.593
 2152TIP3    H2 6400   0.412   1.077   2.743
 2153TIP3   OH2 6401   3.153   6.971   5.600
 2153TIP3    H1 6402   3.141   6.906   5.531
 2153TIP3    H2 6403   3.074   7.024   5.596
 2154TIP3   OH2 6404   0.404   0.150   1.129
 2154TIP3    H1 6405   0.470   0.086   1.103
 2154TIP3    H2 6406   0.382   0.127   1.220
 2155TIP3   OH2 6407   2.046   7.757   4.580
 2155TIP3    H1 6408   2.011   7.768   4.491
 2155TIP3    H2 6409   1.969   7.741   4.634
 2156TIP3   OH2 6410   5.057   7.312   0.829
 2156TIP3    H1 6411   4.984   7.331   0.769
 2156TIP3    H2 6412   5.107   7.394   0.833
 2157TIP3   OH2 6413   3.182   7.280   0.067
 2157TIP3    H1 6414   3.092   7.248   0.076
 2157TIP3    H2 6415   3.221   7.264   0.153
 2158TIP3   OH2 6416   5.066   5.652   2.852
 2158TIP3    H1 6417   4.979   5.639   2.890
 2158TIP3    H2 6418   5.049   5.681   2.763
 2159TIP3   OH2 6419   7.402   7.795   1.390
 2159TIP3    H1 6420   7.407   7.759   1.479
 2159TIP3    H2 6421   7.312   7.778   1.362
 2160TIP3   OH2 6422   5.984   0.162   1.787
 2160TIP3    H1 6423   5.910   0.116   1.826
 2160TIP3    H2 6424   6.061   0.124   1.831
 2161TIP3   OH2 6425   0.553   6.828   4.973
 2161TIP3    H1 6426   0.497   6.906   4.972
 2161TIP3    H2 6427   0.605   6.835   4.893
 2162TIP3   OH2 6428   0.719   1.291   5.202
 2162TIP3    H1 6429   0.715   1.284   5.106
 2162TIP3    H2 6430   0.809   1.317   5.220
 2163TIP3   OH2 6431   7.394   4.059   5.330
 2163TIP3    H1 6432   7.445   3.999   5.276
 2163TIP3    H2 6433   7.388   4.015   5.415
 2164TIP3   OH2 6434   6.849   4.665   0.910
 2164TIP3    H1 6435   6.884   4.735   0.855
 2164TIP3    H2 6436   6.923   4.635   0.962
 2165TIP3   OH2 6437   0.032   4.078   2.930
 2165TIP3    H1 6438   0.081   4.140   2.876
 2165TIP3    H2 6439   0.083   4.071   3.010
 2166TIP3   OH2 6440   4.072   5.903   2.428
 2166TIP3    H1 6441   4.007   5.967   2.400
 2166TIP3    H2 6442   4.058   5.893   2.522
 2167TIP3   OH2 6443   1.213   0.490   0.811
 2167TIP3    H1 6444   1.124   0.456   0.801
 2167TIP3    H2 6445   1.252   0.480   0.724
 2168TIP3   OH2 6446   4.573   7.530   3.194
 2168TIP3    H1 6447   4.601   7.457   3.139
 2168TIP3    H2 6448   4.525   7.489   3.266
 2169TIP3   OH2 6449   4.479   4.943   0.520
 2169TIP3    H1 6450   4.532   5.021   0.500
 2169TIP3    H2 6451   4.541   4.882   0.560
 2170TIP3   OH2 6452   1.626   2.157   0.071
 2170TIP3    H1 6453   1.546   2.188   0.114
 2170TIP3    H2 6454   1.695   2.171   0.136
 2171TIP3   OH2 6455   2.998   1.489   5.833
 2171TIP3    H1 6456   3.034   1.553   5.772
 2171TIP3    H2 6457   3.006   1.405   5.788
 2172TIP3   OH2 6458   2.870   4.135   2.517
 2172TIP3    H1 6459   2.880   4.168   2.428
 2172TIP3    H2 6460   2.956   4.099   2.539
 2173TIP3   OH2 6461   3.511   3.722   0.476
 2173TIP3    H1 6462   3.466   3.648   0.435
 2173TIP3    H2 6463   3.460   3.798   0.451
 2174TIP3   OH2 6464   0.213   2.496   5.050
 2174TIP3    H1 6465   0.118   2.494   5.037
 2174TIP3    H2 6466   0.227   2.440   5.127
 2175TIP3   OH2 6467   2.508   5.217   5.688
 2175TIP3    H1 6468   2.511   5.202   5.594
 2175TIP3    H2 6469   2.426   5.175   5.716
 2176TIP3   OH2 6470   1.136   3.876   0.293
 2176TIP3    H1 6471   1.055   3.923   0.273
 2176TIP3    H2 6472   1.205   3.941   0.279
 2177TIP3   OH2 6473   6.587   0.768   0.643
 2177TIP3    H1 6474   6.619   0.822   0.572
 2177TIP3    H2 6475   6.664   0.720   0.674
 2178TIP3   OH2 6476   4.980   6.182   6.393
 2178TIP3    H1 6477   5.001   6.166   6.301
 2178TIP3    H2 6478   4.920   6.112   6.417
 2179TIP3   OH2 6479   4.583   2.276   2.530
 2179TIP3    H1 6480   4.644   2.287   2.602
 2179TIP3    H2 6481   4.634   2.233   2.461
 2180TIP3   OH2 6482   2.278   7.236   5.561
 2180TIP3    H1 6483   2.221   7.283   5.622
 2180TIP3    H2 6484   2.226   7.160   5.534
 2181TIP3   OH2 6485   0.209   3.141   2.530
 2181TIP3    H1 6486   0.298   3.111   2.516
 2181TIP3    H2 6487   0.155   3.063   2.515
 2182TIP3   OH2 6488   4.258   4.400   4.555
 2182TIP3    H1 6489   4.339   4.375   4.599
 2182TIP3    H2 6490   4.209   4.319   4.546
 2183TIP3   OH2 6491   4.248   0.859   2.666
 2183TIP3    H1 6492   4.249   0.866   2.761
 2183TIP3    H2 6493   4.156   0.857   2.642
 2184TIP3   OH2 6494   1.332   6.164   0.330
 2184TIP3    H1 6495   1.387   6.134   0.402
 2184TIP3    H2 6496   1.255   6.201   0.373
 2185TIP3   OH2 6497   0.794   3.575   4.090
 2185TIP3    H1 6498   0.822   3.527   4.012
 2185TIP3    H2 6499   0.701   3.553   4.100
 2186TIP3   OH2 6500   6.579   4.868   4.466
 2186TIP3    H1 6501   6.497   4.902   4.431
 2186TIP3    H2 6502   6.562   4.776   4.484
 2187TIP3   OH2 6503   5.204   2.201   5.759
 2187TIP3    H1 6504   5.209   2.291   5.727
 2187TIP3    H2 6505   5.144   2.158   5.699
 2188TIP3   OH2 6506   1.177   0.987   3.009
 2188TIP3    H1 6507   1.111   0.925   3.040
 2188TIP3    H2 6508   1.250   0.931   2.982
 2189TIP3   OH2 6509   7.471   2.515   0.006
 2189TIP3    H1 6510   7.493   2.443  -0.053
 2189TIP3    H2 6511   7.402   2.563  -0.039
 2190TIP3   OH2 6512   4.799   2.046   6.410
 2190TIP3    H1 6513   4.775   1.998   6.489
 2190TIP3    H2 6514   4.893   2.064   6.420
 2191TIP3   OH2 6515   2.038   0.856   0.840
 2191TIP3    H1 6516   2.077   0.901   0.914
 2191TIP3    H2 6517   2.058   0.764   0.854
 2192TIP3   OH2 6518   0.967   4.852   1.748
 2192TIP3    H1 6519   0.920   4.920   1.797
 2192TIP3    H2 6520   1.051   4.892   1.725
 2193TIP3   OH2 6521   4.531   7.793   2.915
 2193TIP3    H1 6522   4.442   7.826   2.903
 2193TIP3    H2 6523   4.548   7.740   2.837
 2194TIP3   OH2 6524   0.116   4.936   3.113
 2194TIP3    H1 6525   0.063   5.016   3.116
 2194TIP3    H2 6526   0.080   4.880   3.181
 2195TIP3   OH2 6527   3.935   6.793   4.499
 2195TIP3    H1 6528   3.892   6.797   4.414
 2195TIP3    H2 6529   3.881   6.848   4.556
 2196TIP3   OH2 6530   7.349   6.456   1.701
 2196TIP3    H1 6531   7.423   6.452   1.763
 2196TIP3    H2 6532   7.304   6.537   1.723
 2197TIP3   OH2 6533   7.007   1.062   5.904
 2197TIP3    H1 6534   7.048   1.039   5.987
 2197TIP3    H2 6535   7.077   1.104   5.854
 2198TIP3   OH2 6536   1.923   2.004   2.319
 2198TIP3    H1 6537   1.871   2.072   2.277
 2198TIP3    H2 6538   1.868   1.926   2.315
 2199TIP3   OH2 6539   1.341   2.984   1.818
 2199TIP3    H1 6540   1.384   2.920   1.761
 2199TIP3    H2 6541   1.263   2.939   1.851
 2200TIP3   OH2 6542   6.623   6.006   1.914
 2200TIP3    H1 6543   6.679   5.951   1.969
 2200TIP3    H2 6544   6.649   5.985   1.824
 2201TIP3   OH2 6545   2.281   1.071   6.188
 2201TIP3    H1 6546   2.294   1.086   6.095
 2201TIP3    H2 6547   2.199   1.116   6.209
 2202TIP3   OH2 6548   6.493   6.862   3.239
 2202TIP3    H1 6549   6.474   6.833   3.328
 2202TIP3    H2 6550   6.437   6.940   3.227
 2203TIP3   OH2 6551   5.549   5.807   1.053
 2203TIP3    H1 6552   5.551   5.889   1.103
 2203TIP3    H2 6553   5.605   5.747   1.102
 2204TIP3   OH2 6554   7.521   7.514   2.624
 2204TIP3    H1 6555   7.473   7.571   2.564
 2204TIP3    H2 6556   7.453   7.460   2.664
 2205TIP3   OH2 6557   0.795   0.887   6.393
 2205TIP3    H1 6558   0.797   0.860   6.301
 2205TIP3    H2 6559   0.797   0.982   6.390
 2206TIP3   OH2 6560   1.072   5.942   1.414
 2206TIP3    H1 6561   1.064   5.979   1.326
 2206TIP3    H2 6562   0.992   5.890   1.425
 2207TIP3   OH2 6563   1.591   6.053   5.519
 2207TIP3    H1 6564   1.583   6.091   5.607
 2207TIP3    H2 6565   1.534   6.107   5.465
 2208TIP3   OH2 6566   5.881   3.694   3.837
 2208TIP3    H1 6567   5.848   3.616   3.793
 2208TIP3    H2 6568   5.941   3.661   3.903
 2209TIP3   OH2 6569   6.102   1.031   4.334
 2209TIP3    H1 6570   6.073   1.085   4.408
 2209TIP3    H2 6571   6.167   0.973   4.372
 2210TIP3   OH2 6572   5.439   4.600   4.152
 2210TIP3    H1 6573   5.365   4.635   4.202
 2210TIP3    H2 6574   5.442   4.653   4.073
 2211TIP3   OH2 6575   7.637   3.844   0.188
 2211TIP3    H1 6576   7.581   3.860   0.112
 2211TIP3    H2 6577   7.595   3.771   0.234
 2212TIP3   OH2 6578   4.538   7.615   1.895
 2212TIP3    H1 6579   4.502   7.526   1.898
 2212TIP3    H2 6580   4.493   7.661   1.965
 2213TIP3   OH2 6581   2.414   2.217   2.635
 2213TIP3    H1 6582   2.339   2.258   2.676
 2213TIP3    H2 6583   2.422   2.132   2.679
 2214TIP3   OH2 6584   0.205   1.375   6.168
 2214TIP3    H1 6585   0.115   1.405   6.153
 2214TIP3    H2 6586   0.257   1.421   6.102
 2215TIP3   OH2 6587   1.287   4.962   6.630
 2215TIP3    H1 6588   1.332   5.046   6.617
 2215TIP3    H2 6589   1.228   4.954   6.556
 2216TIP3   OH2 6590   0.897   5.770   0.113
 2216TIP3    H1 6591   0.872   5.752   0.203
 2216TIP3    H2 6592   0.934   5.859   0.115
 2217TIP3   OH2 6593   1.597   4.236   0.573
 2217TIP3    H1 6594   1.685   4.217   0.606
 2217TIP3    H2 6595   1.544   4.250   0.652
 2218TIP3   OH2 6596   1.772   3.038   0.461
 2218TIP3    H1 6597   1.773   2.990   0.378
 2218TIP3    H2 6598   1.848   3.005   0.509
 2219TIP3   OH2 6599   4.366   7.547   0.776
 2219TIP3    H1 6600   4.312   7.618   0.742
 2219TIP3    H2 6601   4.308   7.499   0.834
 2220TIP3   OH2 6602   3.373   2.197   5.404
 2220TIP3    H1 6603   3.344   2.215   5.315
 2220TIP3    H2 6604   3.467   2.214   5.402
 2221TIP3   OH2 6605   6.769   5.063   4.388
 2221TIP3    H1 6606   6.730   5.077   4.302
 2221TIP3    H2 6607   6.723   4.986   4.423
 2222TIP3   OH2 6608   6.612   1.364   6.141
 2222TIP3    H1 6609   6.521   1.372   6.113
 2222TIP3    H2 6610   6.621   1.272   6.167
 2223TIP3   OH2 6611   6.129   3.590   4.390
 2223TIP3    H1 6612   6.052   3.601   4.446
 2223TIP3    H2 6613   6.111   3.646   4.314
 2224TIP3   OH2 6614   6.644   2.189   3.693
 2224TIP3    H1 6615   6.549   2.195   3.696
 2224TIP3    H2 6616   6.667   2.226   3.608
 2225TIP3   OH2 6617   2.920   5.027   6.466
 2225TIP3    H1 6618   2.895   5.119   6.459
 2225TIP3    H2 6619   3.003   5.020   6.418
 2226TIP3   OH2 6620   4.868   1.482   2.055
 2226TIP3    H1 6621   4.785   1.434   2.048
 2226TIP3    H2 6622   4.920   1.449   1.982
 2227TIP3   OH2 6623   3.209   0.243   2.140
 2227TIP3    H1 6624   3.247   0.330   2.132
 2227TIP3    H2 6625   3.243   0.195   2.064
 2228TIP3   OH2 6626   0.787   0.289   6.731
 2228TIP3    H1 6627   0.803   0.380   6.756
 2228TIP3    H2 6628   0.728   0.295   6.656
 2229TIP3   OH2 6629   1.617   5.047   3.284
 2229TIP3    H1 6630   1.555   5.045   3.357
 2229TIP3    H2 6631   1.697   5.082   3.322
 2230TIP3   OH2 6632   5.726   1.098   3.595
 2230TIP3    H1 6633   5.646   1.059   3.630
 2230TIP3    H2 6634   5.718   1.087   3.500
 2231TIP3   OH2 6635   4.827   0.836   2.530
 2231TIP3    H1 6636   4.843   0.874   2.444
 2231TIP3    H2 6637   4.801   0.911   2.585
 2232TIP3   OH2 6638   2.332   1.955   4.718
 2232TIP3    H1 6639   2.311   1.879   4.773
 2232TIP3    H2 6640   2.350   1.918   4.632
 2233TIP3   OH2 6641   2.328   0.084   1.445
 2233TIP3    H1 6642   2.314   0.101   1.352
 2233TIP3    H2 6643   2.419   0.108   1.461
 2234TIP3   OH2 6644   6.043   3.821   2.064
 2234TIP3    H1 6645   6.138   3.825   2.065
 2234TIP3    H2 6646   6.020   3.775   2.145
 2235TIP3   OH2 6647   4.124   3.188   3.216
 2235TIP3    H1 6648   4.101   3.174   3.307
 2235TIP3    H2 6649   4.115   3.102   3.174
 2236TIP3   OH2 6650   7.033   2.435   2.074
 2236TIP3    H1 6651   6.948   2.436   2.031
 2236TIP3    H2 6652   7.093   2.396   2.010
 2237TIP3   OH2 6653   4.613   5.413   2.566
 2237TIP3    H1 6654   4.627   5.343   2.631
 2237TIP3    H2 6655   4.625   5.369   2.482
 2238TIP3   OH2 6656   0.510   4.368   4.456
 2238TIP3    H1 6657   0.558   4.434   4.507
 2238TIP3    H2 6658   0.443   4.335   4.516
 2239TIP3   OH2 6659   1.764   7.155   5.748
 2239TIP3    H1 6660   1.710   7.109   5.812
 2239TIP3    H2 6661   1.793   7.087   5.688
 2240TIP3   OH2 6662   2.742   1.197   6.434
 2240TIP3    H1 6663   2.793   1.245   6.498
 2240TIP3    H2 6664   2.752   1.247   6.353
 2241TIP3   OH2 6665   2.838   5.615   0.291
 2241TIP3    H1 6666   2.927   5.641   0.315
 2241TIP3    H2 6667   2.782   5.659   0.355
 2242TIP3   OH2 6668   2.198   0.168   2.324
 2242TIP3    H1 6669   2.115   0.211   2.305
 2242TIP3    H2 6670   2.247   0.173   2.241
 2243TIP3   OH2 6671   7.572   7.338   1.704
 2243TIP3    H1 6672   7.533   7.258   1.670
 2243TIP3    H2 6673   7.664   7.333   1.677
 2244TIP3   OH2 6674   4.971   7.310   6.239
 2244TIP3    H1 6675   4.945   7.267   6.157
 2244TIP3    H2 6676   4.900   7.372   6.257
 2245TIP3   OH2 6677   3.279   5.313   4.199
 2245TIP3    H1 6678   3.310   5.363   4.275
 2245TIP3    H2 6679   3.191   5.284   4.224
 2246TIP3   OH2 6680   7.813   4.054   0.452
 2246TIP3    H1 6681   7.794   3.974   0.500
 2246TIP3    H2 6682   7.865   4.107   0.512
 2247TIP3   OH2 6683   2.598   4.246   6.157
 2247TIP3    H1 6684   2.584   4.217   6.067
 2247TIP3    H2 6685   2.542   4.323   6.167
 2248TIP3   OH2 6686   5.498   7.200   4.554
 2248TIP3    H1 6687   5.449   7.119   4.542
 2248TIP3    H2 6688   5.431   7.268   4.557
 2249TIP3   OH2 6689   3.755   3.345   3.340
 2249TIP3    H1 6690   3.671   3.304   3.362
 2249TIP3    H2 6691   3.819   3.300   3.395
 2250TIP3   OH2 6692   1.272   1.453   2.957
 2250TIP3    H1 6693   1.215   1.400   3.013
 2250TIP3    H2 6694   1.326   1.389   2.911
 2251TIP3   OH2 6695   3.690   2.899   2.772
 2251TIP3    H1 6696   3.602   2.936   2.766
 2251TIP3    H2 6697   3.721   2.921   2.860
 2252TIP3   OH2 6698   2.382   0.845   6.055
 2252TIP3    H1 6699   2.407   0.922   6.003
 2252TIP3    H2 6700   2.316   0.878   6.115
 2253TIP3   OH2 6701   3.816   0.047   1.806
 2253TIP3    H1 6702   3.897   0.074   1.763
 2253TIP3    H2 6703   3.805   0.109   1.878
 2254TIP3   OH2 6704   5.987   2.401   1.881
 2254TIP3    H1 6705   5.915   2.377   1.822
 2254TIP3    H2 6706   6.049   2.448   1.825
 2255TIP3   OH2 6707   3.920   0.590   2.415
 2255TIP3    H1 6708   3.832   0.565   2.444
 2255TIP3    H2 6709   3.972   0.593   2.495
 2256TIP3   OH2 6710   2.622   2.694   5.716
 2256TIP3    H1 6711   2.591   2.703   5.807
 2256TIP3    H2 6712   2.546   2.659   5.669
 2257TIP3   OH2 6713   3.040   0.555   2.796
 2257TIP3    H1 6714   3.056   0.648   2.780
 2257TIP3    H2 6715   3.048   0.546   2.891
 2258TIP3   OH2 6716   1.073   6.262   2.067
 2258TIP3    H1 6717   1.105   6.316   2.139
 2258TIP3    H2 6718   1.000   6.212   2.105
 2259TIP3   OH2 6719   5.240   4.035   4.350
 2259TIP3    H1 6720   5.289   4.102   4.303
 2259TIP3    H2 6721   5.296   3.958   4.348
 2260TIP3   OH2 6722   0.301   1.943   4.008
 2260TIP3    H1 6723   0.212   1.958   4.041
 2260TIP3    H2 6724   0.288   1.913   3.918
 2261TIP3   OH2 6725   4.480   7.276   5.761
 2261TIP3    H1 6726   4.519   7.363   5.750
 2261TIP3    H2 6727   4.536   7.218   5.710
 2262TIP3   OH2 6728   5.197   7.781   1.162
 2262TIP3    H1 6729   5.234   7.820   1.083
 2262TIP3    H2 6730   5.119   7.832   1.180
 2263TIP3   OH2 6731   7.968   0.715   6.465
 2263TIP3    H1 6732   7.961   0.636   6.412
 2263TIP3    H2 6733   7.915   0.780   6.418
 2264TIP3   OH2 6734   3.023   4.852   6.183
 2264TIP3    H1 6735   3.077   4.861   6.262
 2264TIP3    H2 6736   3.018   4.757   6.168
 2265TIP3   OH2 6737   4.891   5.608   6.672
 2265TIP3    H1 6738   4.816   5.658   6.705
 2265TIP3    H2 6739   4.960   5.673   6.660
 2266TIP3   OH2 6740   1.857   6.553   4.462
 2266TIP3    H1 6741   1.937   6.510   4.433
 2266TIP3    H2 6742   1.886   6.615   4.529
 2267TIP3   OH2 6743   3.887   3.111   4.941
 2267TIP3    H1 6744   3.936   3.031   4.962
 2267TIP3    H2 6745   3.801   3.096   4.979
 2268TIP3   OH2 6746   5.365   1.028   3.307
 2268TIP3    H1 6747   5.279   1.047   3.270
 2268TIP3    H2 6748   5.427   1.074   3.250
 2269TIP3   OH2 6749   1.191   0.619   4.483
 2269TIP3    H1 6750   1.106   0.662   4.470
 2269TIP3    H2 6751   1.248   0.688   4.519
 2270TIP3   OH2 6752   8.244   6.666   5.932
 2270TIP3    H1 6753   8.173   6.725   5.908
 2270TIP3    H2 6754   8.275   6.631   5.848
 2271TIP3   OH2 6755   1.527   0.036   4.223
 2271TIP3    H1 6756   1.572   0.048   4.140
 2271TIP3    H2 6757   1.442   0.080   4.211
 2272TIP3   OH2 6758   2.685   7.738   1.271
 2272TIP3    H1 6759   2.616   7.679   1.298
 2272TIP3    H2 6760   2.651   7.780   1.192
 2273TIP3   OH2 6761   1.636   7.379   3.774
 2273TIP3    H1 6762   1.549   7.401   3.742
 2273TIP3    H2 6763   1.689   7.367   3.695
 2274TIP3   OH2 6764   1.078   5.921   2.789
 2274TIP3    H1 6765   1.130   5.988   2.745
 2274TIP3    H2 6766   0.988   5.938   2.762
 2275TIP3   OH2 6767   7.775   7.226   0.492
 2275TIP3    H1 6768   7.825   7.175   0.556
 2275TIP3    H2 6769   7.841   7.263   0.433
 2276TIP3   OH2 6770   6.815   0.076   3.850
 2276TIP3    H1 6771   6.882   0.076   3.781
 2276TIP3    H2 6772   6.732   0.076   3.802
 2277TIP3   OH2 6773   4.263   5.441   5.013
 2277TIP3    H1 6774   4.313   5.501   5.070
 2277TIP3    H2 6775   4.182   5.488   4.996
 2278TIP3   OH2 6776   6.325   4.521   1.107
 2278TIP3    H1 6777   6.317   4.493   1.198
 2278TIP3    H2 6778   6.350   4.613   1.113
 2279TIP3   OH2 6779   0.210   1.222   0.075
 2279TIP3    H1 6780   0.187   1.256   0.162
 2279TIP3    H2 6781   0.209   1.298   0.018
 2280TIP3   OH2 6782   4.801   3.038   5.393
 2280TIP3    H1 6783   4.826   3.019   5.303
 2280TIP3    H2 6784   4.744   2.966   5.419
 2281TIP3   OH2 6785   8.201   7.191   6.469
 2281TIP3    H1 6786   8.261   7.120   6.492
 2281TIP3    H2 6787   8.142   7.197   6.545
 2282TIP3   OH2 6788   5.146   1.273   0.706
 2282TIP3    H1 6789   5.061   1.309   0.731
 2282TIP3    H2 6790   5.205   1.303   0.775
 2283TIP3   OH2 6791   5.211   5.522   0.839
 2283TIP3    H1 6792   5.135   5.479   0.801
 2283TIP3    H2 6793   5.183   5.613   0.853
 2284TIP3   OH2 6794   5.198   0.299   3.377
 2284TIP3    H1 6795   5.165   0.388   3.387
 2284TIP3    H2 6796   5.291   0.305   3.398
 2285TIP3   OH2 6797   0.206   5.352   0.078
 2285TIP3    H1 6798   0.212   5.447   0.084
 2285TIP3    H2 6799   0.170   5.324   0.162
 2286TIP3   OH2 6800   7.750   7.757   0.396
 2286TIP3    H1 6801   7.674   7.708   0.428
 2286TIP3    H2 6802   7.716   7.844   0.376
 2287TIP3   OH2 6803   8.175   1.353   1.352
 2287TIP3    H1 6804   8.181   1.424   1.288
 2287TIP3    H2 6805   8.181   1.273   1.300
 2288TIP3   OH2 6806   6.699   4.229   4.439
 2288TIP3    H1 6807   6.661   4.292   4.377
 2288TIP3    H2 6808   6.677   4.265   4.525
 2289TIP3   OH2 6809   0.504   5.143   4.689
 2289TIP3    H1 6810   0.414   5.170   4.666
 2289TIP3    H2 6811   0.492   5.077   4.757
 2290TIP3   OH2 6812   8.132   6.918   3.760
 2290TIP3    H1 6813   8.094   6.830   3.757
 2290TIP3    H2 6814   8.149   6.940   3.668
 2291TIP3   OH2 6815   1.092   0.068   4.337
 2291TIP3    H1 6816   1.127   0.121   4.265
 2291TIP3    H2 6817   1.086  -0.021   4.301
 2292TIP3   OH2 6818   1.930   2.844   3.111
 2292TIP3    H1 6819   1.868   2.901   3.066
 2292TIP3    H2 6820   1.875   2.794   3.172
 2293TIP3   OH2 6821   6.015   3.332   3.030
 2293TIP3    H1 6822   5.973   3.389   3.096
 2293TIP3    H2 6823   6.107   3.330   3.056
 2294TIP3   OH2 6824   0.055   3.464   3.092
 2294TIP3    H1 6825   0.097   3.385   3.128
 2294TIP3    H2 6826   0.115   3.493   3.023
 2295TIP3   OH2 6827   5.533   0.531   6.618
 2295TIP3    H1 6828   5.615   0.505   6.662
 2295TIP3    H2 6829   5.542   0.625   6.604
 2296TIP3   OH2 6830   0.393   1.238   3.661
 2296TIP3    H1 6831   0.411   1.332   3.656
 2296TIP3    H2 6832   0.333   1.220   3.589
 2297TIP3   OH2 6833   5.963   4.045   1.976
 2297TIP3    H1 6834   5.999   4.060   1.889
 2297TIP3    H2 6835   6.006   3.965   2.006
 2298TIP3   OH2 6836   6.540   4.838   6.411
 2298TIP3    H1 6837   6.599   4.873   6.477
 2298TIP3    H2 6838   6.532   4.745   6.434
 2299TIP3   OH2 6839   0.083   6.267   2.524
 2299TIP3    H1 6840   0.014   6.279   2.589
 2299TIP3    H2 6841   0.065   6.181   2.486
 2300TIP3   OH2 6842   0.689   4.023   5.032
 2300TIP3    H1 6843   0.612   4.080   5.020
 2300TIP3    H2 6844   0.756   4.062   4.976
 2301TIP3   OH2 6845   1.448   2.009   2.766
 2301TIP3    H1 6846   1.512   1.950   2.806
 2301TIP3    H2 6847   1.364   1.966   2.779
 2302TIP3   OH2 6848   5.109   0.627   0.468
 2302TIP3    H1 6849   5.092   0.674   0.386
 2302TIP3    H2 6850   5.042   0.659   0.528
 2303TIP3   OH2 6851   2.519   3.986   1.104
 2303TIP3    H1 6852   2.610   3.963   1.085
 2303TIP3    H2 6853   2.506   4.070   1.061
 2304TIP3   OH2 6854   5.594   1.287   5.393
 2304TIP3    H1 6855   5.681   1.256   5.417
 2304TIP3    H2 6856   5.593   1.286   5.297
 2305TIP3   OH2 6857   4.445   5.736   1.811
 2305TIP3    H1 6858   4.526   5.702   1.849
 2305TIP3    H2 6859   4.417   5.806   1.870
 2306TIP3   OH2 6860   7.430   0.560   1.689
 2306TIP3    H1 6861   7.507   0.502   1.692
 2306TIP3    H2 6862   7.442   0.611   1.609
 2307TIP3   OH2 6863   6.180   4.900   0.580
 2307TIP3    H1 6864   6.199   4.949   0.660
 2307TIP3    H2 6865   6.256   4.844   0.567
 2308TIP3   OH2 6866   3.169   3.799   5.285
 2308TIP3    H1 6867   3.206   3.767   5.202
 2308TIP3    H2 6868   3.125   3.723   5.323
 2309TIP3   OH2 6869   1.202   0.380   1.876
 2309TIP3    H1 6870   1.246   0.362   1.960
 2309TIP3    H2 6871   1.175   0.472   1.883
 2310TIP3   OH2 6872   0.100   6.309   4.794
 2310TIP3    H1 6873   0.039   6.250   4.749
 2310TIP3    H2 6874   0.080   6.297   4.887
 2311TIP3   OH2 6875   4.592   4.994   3.162
 2311TIP3    H1 6876   4.620   5.072   3.114
 2311TIP3    H2 6877   4.560   5.028   3.246
 2312TIP3   OH2 6878   6.344   6.365   0.836
 2312TIP3    H1 6879   6.427   6.327   0.865
 2312TIP3    H2 6880   6.277   6.321   0.889
 2313TIP3   OH2 6881   3.736   2.301   4.347
 2313TIP3    H1 6882   3.788   2.224   4.325
 2313TIP3    H2 6883   3.659   2.295   4.290
 2314TIP3   OH2 6884   2.272   4.326   5.908
 2314TIP3    H1 6885   2.315   4.241   5.919
 2314TIP3    H2 6886   2.303   4.378   5.982
 2315TIP3   OH2 6887   0.807   6.468   6.633
 2315TIP3    H1 6888   0.856   6.523   6.693
 2315TIP3    H2 6889   0.873   6.411   6.594
 2316TIP3   OH2 6890   5.038   4.388   1.509
 2316TIP3    H1 6891   4.982   4.328   1.460
 2316TIP3    H2 6892   4.997   4.393   1.595
 2317TIP3   OH2 6893   5.426   3.435   6.011
 2317TIP3    H1 6894   5.452   3.471   6.096
 2317TIP3    H2 6895   5.481   3.358   6.000
 2318TIP3   OH2 6896   3.348   6.662   1.632
 2318TIP3    H1 6897   3.266   6.660   1.682
 2318TIP3    H2 6898   3.391   6.742   1.659
 2319TIP3   OH2 6899   5.276   7.468   2.843
 2319TIP3    H1 6900   5.311   7.457   2.932
 2319TIP3    H2 6901   5.218   7.544   2.849
 2320TIP3   OH2 6902   6.478   5.120   4.842
 2320TIP3    H1 6903   6.413   5.155   4.903
 2320TIP3    H2 6904   6.470   5.175   4.764
 2321TIP3   OH2 6905   5.895   7.608   3.730
 2321TIP3    H1 6906   5.897   7.651   3.816
 2321TIP3    H2 6907   5.892   7.681   3.668
 2322TIP3   OH2 6908   6.174   0.035   4.699
 2322TIP3    H1 6909   6.268   0.033   4.684
 2322TIP3    H2 6910   6.137   0.064   4.615
 2323TIP3   OH2 6911   6.771   5.256   0.012
 2323TIP3    H1 6912   6.851   5.288  -0.030
 2323TIP3    H2 6913   6.702   5.272  -0.052
 2324TIP3   OH2 6914   3.228   4.763   0.967
 2324TIP3    H1 6915   3.225   4.798   1.056
 2324TIP3    H2 6916   3.285   4.686   0.973
 2325TIP3   OH2 6917   0.400   7.605   4.344
 2325TIP3    H1 6918   0.385   7.516   4.375
 2325TIP3    H2 6919   0.316   7.649   4.356
 2326TIP3   OH2 6920   1.291   0.614   2.787
 2326TIP3    H1 6921   1.348   0.584   2.857
 2326TIP3    H2 6922   1.339   0.687   2.747
 2327TIP3   OH2 6923   5.498   2.135   1.014
 2327TIP3    H1 6924   5.420   2.080   1.013
 2327TIP3    H2 6925   5.473   2.214   0.966
 2328TIP3   OH2 6926   0.861   2.552   3.670
 2328TIP3    H1 6927   0.809   2.527   3.747
 2328TIP3    H2 6928   0.951   2.549   3.701
 2329TIP3   OH2 6929   3.731  -0.005   0.981
 2329TIP3    H1 6930   3.661   0.060   0.973
 2329TIP3    H2 6931   3.795   0.021   0.915
 2330TIP3   OH2 6932   7.810   1.715   0.149
 2330TIP3    H1 6933   7.848   1.748   0.068
 2330TIP3    H2 6934   7.732   1.668   0.121
 2331TIP3   OH2 6935   7.048   3.635   5.020
 2331TIP3    H1 6936   7.019   3.548   5.045
 2331TIP3    H2 6937   7.021   3.691   5.093
 2332TIP3   OH2 6938   0.604   4.166   1.929
 2332TIP3    H1 6939   0.518   4.167   1.971
 2332TIP3    H2 6940   0.609   4.080   1.887
 2333TIP3   OH2 6941   2.973   3.495   2.295
 2333TIP3    H1 6942   2.994   3.413   2.250
 2333TIP3    H2 6943   3.012   3.485   2.382
 2334TIP3   OH2 6944   5.776   3.623   5.865
 2334TIP3    H1 6945   5.813   3.671   5.940
 2334TIP3    H2 6946   5.829   3.543   5.860
 2335TIP3   OH2 6947   3.185   6.101   3.293
 2335TIP3    H1 6948   3.204   6.181   3.342
 2335TIP3    H2 6949   3.252   6.039   3.321
 2336TIP3   OH2 6950   7.257   5.082   2.385
 2336TIP3    H1 6951   7.216   4.996   2.388
 2336TIP3    H2 6952   7.219   5.125   2.308
 2337TIP3   OH2 6953   2.093   6.617   6.279
 2337TIP3    H1 6954   2.077   6.658   6.193
 2337TIP3    H2 6955   2.162   6.670   6.318
 2338TIP3   OH2 6956   1.623   4.836   4.016
 2338TIP3    H1 6957   1.626   4.748   3.977
 2338TIP3    H2 6958   1.594   4.893   3.944
 2339TIP3   OH2 6959   3.440   7.175   4.506
 2339TIP3    H1 6960   3.418   7.081   4.511
 2339TIP3    H2 6961   3.460   7.199   4.596
 2340TIP3   OH2 6962   0.083   4.887   2.158
 2340TIP3    H1 6963   0.047   4.810   2.203
 2340TIP3    H2 6964   0.008   4.928   2.115
 2341TIP3   OH2 6965   6.399   0.456   6.278
 2341TIP3    H1 6966   6.325   0.425   6.224
 2341TIP3    H2 6967   6.434   0.531   6.230
 2342TIP3   OH2 6968   1.095   3.946   3.368
 2342TIP3    H1 6969   1.147   3.963   3.289
 2342TIP3    H2 6970   1.160   3.926   3.435
 2343TIP3   OH2 6971   7.629   3.129   3.056
 2343TIP3    H1 6972   7.592   3.098   2.974
 2343TIP3    H2 6973   7.675   3.210   3.033
 2344TIP3   OH2 6974   3.535   1.647   1.663
 2344TIP3    H1 6975   3.609   1.706   1.649
 2344TIP3    H2 6976   3.558   1.597   1.741
 2345TIP3   OH2 6977   3.416   3.105   2.524
 2345TIP3    H1 6978   3.468   3.176   2.488
 2345TIP3    H2 6979   3.435   3.029   2.468
 2346TIP3   OH2 6980   8.234   5.210   4.499
 2346TIP3    H1 6981   8.219   5.165   4.582
 2346TIP3    H2 6982   8.328   5.202   4.484
 2347TIP3   OH2 6983   2.919   7.089   5.560
 2347TIP3    H1 6984   2.849   7.075   5.497
 2347TIP3    H2 6985   2.950   7.178   5.543
 2348TIP3   OH2 6986   5.262   7.773   2.577
 2348TIP3    H1 6987   5.292   7.858   2.609
 2348TIP3    H2 6988   5.316   7.755   2.500
 2349TIP3   OH2 6989   4.195   1.412   0.161
 2349TIP3    H1 6990   4.101   1.429   0.163
 2349TIP3    H2 6991   4.203   1.317   0.175
 2350TIP3   OH2 6992   1.938   0.234   2.280
 2350TIP3    H1 6993   1.883   0.156   2.273
 2350TIP3    H2 6994   1.907   0.291   2.210
 2351TIP3   OH2 6995   2.625   6.636   0.903
 2351TIP3    H1 6996   2.650   6.556   0.949
 2351TIP3    H2 6997   2.603   6.697   0.974
 2352TIP3   OH2 6998   0.616   3.739   0.851
 2352TIP3    H1 6999   0.534   3.707   0.889
 2352TIP3    H2 7000   0.596   3.827   0.820
 2353TIP3   OH2 7001   6.125   5.797   3.286
 2353TIP3    H1 7002   6.210   5.764   3.260
 2353TIP3    H2 7003   6.079   5.814   3.203
 2354TIP3   OH2 7004   0.922   6.881   6.669
 2354TIP3    H1 7005   0.949   6.972   6.680
 2354TIP3    H2 7006   0.921   6.866   6.575
 2355TIP3   OH2 7007   7.757   1.254   0.812
 2355TIP3    H1 7008   7.670   1.263   0.774
 2355TIP3    H2 7009   7.793   1.175   0.772
 2356TIP3   OH2 7010   8.212   1.593   2.283
 2356TIP3    H1 7011   8.188   1.524   2.345
 2356TIP3    H2 7012   8.287   1.636   2.323
 2357TIP3   OH2 7013   5.390   3.548   4.951
 2357TIP3    H1 7014   5.358   3.461   4.977
 2357TIP3    H2 7015   5.484   3.546   4.970
 2358TIP3   OH2 7016   5.555   5.854   4.752
 2358TIP3    H1 7017   5.548   5.946   4.776
 2358TIP3    H2 7018   5.511   5.807   4.823
 2359TIP3   OH2 7019   5.532   1.103   3.105
 2359TIP3    H1 7020   5.544   1.098   3.010
 2359TIP3    H2 7021   5.595   1.041   3.140
 2360TIP3   OH2 7022   1.704   7.596   0.703
 2360TIP3    H1 7023   1.649   7.613   0.626
 2360TIP3    H2 7024   1.792   7.582   0.668
 2361TIP3   OH2 7025   2.016   7.799   3.763
 2361TIP3    H1 7026   2.037   7.778   3.854
 2361TIP3    H2 7027   1.932   7.756   3.748
 2362TIP3   OH2 7028   2.777   1.684   6.194
 2362TIP3    H1 7029   2.839   1.756   6.197
 2362TIP3    H2 7030   2.729   1.690   6.277
 2363TIP3   OH2 7031   0.593   1.530   2.457
 2363TIP3    H1 7032   0.640   1.485   2.387
 2363TIP3    H2 7033   0.641   1.507   2.537
 2364TIP3   OH2 7034   3.402   6.339   5.019
 2364TIP3    H1 7035   3.472   6.338   4.954
 2364TIP3    H2 7036   3.421   6.415   5.074
 2365TIP3   OH2 7037   7.798   3.057   1.489
 2365TIP3    H1 7038   7.839   3.072   1.404
 2365TIP3    H2 7039   7.704   3.065   1.473
 2366TIP3   OH2 7040   4.486   3.725   2.357
 2366TIP3    H1 7041   4.403   3.758   2.323
 2366TIP3    H2 7042   4.492   3.762   2.446
 2367TIP3   OH2 7043   2.626   6.416   1.792
 2367TIP3    H1 7044   2.660   6.386   1.876
 2367TIP3    H2 7045   2.686   6.486   1.765
 2368TIP3   OH2 7046   5.565   3.071   1.069
 2368TIP3    H1 7047   5.625   3.004   1.035
 2368TIP3    H2 7048   5.621   3.145   1.089
 2369TIP3   OH2 7049   1.254   4.556   4.436
 2369TIP3    H1 7050   1.233   4.606   4.357
 2369TIP3    H2 7051   1.339   4.590   4.465
 2370TIP3   OH2 7052   3.700   3.385   4.354
 2370TIP3    H1 7053   3.614   3.347   4.335
 2370TIP3    H2 7054   3.750   3.312   4.391
 2371TIP3   OH2 7055   2.247   5.648   1.504
 2371TIP3    H1 7056   2.236   5.593   1.581
 2371TIP3    H2 7057   2.260   5.585   1.432
 2372TIP3   OH2 7058   6.931   2.305   4.558
 2372TIP3    H1 7059   7.026   2.310   4.546
 2372TIP3    H2 7060   6.897   2.379   4.509
 2373TIP3   OH2 7061   7.573   5.269   3.845
 2373TIP3    H1 7062   7.477   5.272   3.844
 2373TIP3    H2 7063   7.600   5.359   3.827
 2374TIP3   OH2 7064   6.675   4.426   5.932
 2374TIP3    H1 7065   6.656   4.448   6.023
 2374TIP3    H2 7066   6.612   4.477   5.881
 2375TIP3   OH2 7067   2.851   3.835   3.451
 2375TIP3    H1 7068   2.896   3.857   3.533
 2375TIP3    H2 7069   2.853   3.740   3.447
 2376TIP3   OH2 7070   5.712   5.497   6.712
 2376TIP3    H1 7071   5.712   5.544   6.795
 2376TIP3    H2 7072   5.797   5.516   6.673
 2377TIP3   OH2 7073   3.887   3.674   1.002
 2377TIP3    H1 7074   3.876   3.590   1.045
 2377TIP3    H2 7075   3.879   3.738   1.072
 2378TIP3   OH2 7076   5.212   7.053   4.735
 2378TIP3    H1 7077   5.221   7.111   4.658
 2378TIP3    H2 7078   5.221   7.112   4.810
 2379TIP3   OH2 7079   2.731   2.319   2.198
 2379TIP3    H1 7080   2.818   2.328   2.237
 2379TIP3    H2 7081   2.694   2.241   2.239
 2380TIP3   OH2 7082   6.005   1.796   1.509
 2380TIP3    H1 7083   5.923   1.747   1.499
 2380TIP3    H2 7084   6.018   1.837   1.424
 2381TIP3   OH2 7085   4.785   2.487   2.881
 2381TIP3    H1 7086   4.781   2.532   2.966
 2381TIP3    H2 7087   4.698   2.496   2.844
 2382TIP3   OH2 7088   6.205   6.147   5.970
 2382TIP3    H1 7089   6.155   6.087   5.915
 2382TIP3    H2 7090   6.254   6.089   6.029
 2383TIP3   OH2 7091   0.635   6.398   5.941
 2383TIP3    H1 7092   0.683   6.316   5.947
 2383TIP3    H2 7093   0.570   6.394   6.011
 2384TIP3   OH2 7094   6.695   3.315   4.776
 2384TIP3    H1 7095   6.790   3.307   4.781
 2384TIP3    H2 7096   6.675   3.310   4.682
 2385TIP3   OH2 7097   4.010   6.738   1.969
 2385TIP3    H1 7098   3.933   6.746   1.913
 2385TIP3    H2 7099   4.083   6.729   1.908
 2386TIP3   OH2 7100   1.362   0.366   0.586
 2386TIP3    H1 7101   1.335   0.422   0.513
 2386TIP3    H2 7102   1.301   0.293   0.583
 2387TIP3   OH2 7103   8.273   7.072   0.609
 2387TIP3    H1 7104   8.361   7.059   0.644
 2387TIP3    H2 7105   8.215   7.036   0.676
 2388TIP3   OH2 7106   5.573   4.106   1.765
 2388TIP3    H1 7107   5.624   4.084   1.843
 2388TIP3    H2 7108   5.638   4.113   1.696
 2389TIP3   OH2 7109   1.371   6.508   0.538
 2389TIP3    H1 7110   1.370   6.580   0.475
 2389TIP3    H2 7111   1.285   6.511   0.580
 2390TIP3   OH2 7112   8.032   4.810   2.390
 2390TIP3    H1 7113   8.035   4.905   2.380
 2390TIP3    H2 7114   8.073   4.776   2.311
 2391TIP3   OH2 7115   8.103   6.077   2.435
 2391TIP3    H1 7116   8.106   5.981   2.428
 2391TIP3    H2 7117   8.070   6.106   2.351
 2392TIP3   OH2 7118   6.055   3.104   5.541
 2392TIP3    H1 7119   6.117   3.135   5.475
 2392TIP3    H2 7120   5.969   3.119   5.501
 2393TIP3   OH2 7121   7.280   2.541   3.185
 2393TIP3    H1 7122   7.305   2.556   3.094
 2393TIP3    H2 7123   7.191   2.506   3.180
 2394TIP3   OH2 7124   4.984   5.028   0.855
 2394TIP3    H1 7125   4.996   5.106   0.910
 2394TIP3    H2 7126   5.035   4.960   0.898
 2395TIP3   OH2 7127   0.974   5.933   3.920
 2395TIP3    H1 7128   0.964   5.868   3.989
 2395TIP3    H2 7129   1.040   5.896   3.861
 2396TIP3   OH2 7130   5.653   4.896   1.381
 2396TIP3    H1 7131   5.742   4.886   1.415
 2396TIP3    H2 7132   5.626   4.983   1.410
 2397TIP3   OH2 7133   3.811   4.676   0.958
 2397TIP3    H1 7134   3.859   4.744   1.006
 2397TIP3    H2 7135   3.775   4.722   0.881
 2398TIP3   OH2 7136   0.708   6.014   3.387
 2398TIP3    H1 7137   0.740   6.102   3.367
 2398TIP3    H2 7138   0.767   5.955   3.340
 2399TIP3   OH2 7139   7.280   4.302   3.476
 2399TIP3    H1 7140   7.375   4.305   3.477
 2399TIP3    H2 7141   7.255   4.272   3.564
 2400TIP3   OH2 7142   1.543   6.641   6.098
 2400TIP3    H1 7143   1.542   6.550   6.125
 2400TIP3    H2 7144   1.625   6.676   6.134
 2401TIP3   OH2 7145   6.468   5.823   0.278
 2401TIP3    H1 7146   6.480   5.767   0.202
 2401TIP3    H2 7147   6.551   5.870   0.288
 2402TIP3   OH2 7148   4.170   6.209   0.637
 2402TIP3    H1 7149   4.101   6.149   0.608
 2402TIP3    H2 7150   4.177   6.273   0.566
 2403TIP3   OH2 7151   6.744   2.621   6.421
 2403TIP3    H1 7152   6.708   2.647   6.506
 2403TIP3    H2 7153   6.798   2.545   6.440
 2404TIP3   OH2 7154   7.638   3.389   5.938
 2404TIP3    H1 7155   7.560   3.428   5.979
 2404TIP3    H2 7156   7.610   3.301   5.914
 2405TIP3   OH2 7157   6.945   3.375   1.409
 2405TIP3    H1 7158   6.911   3.458   1.440
 2405TIP3    H2 7159   7.040   3.383   1.418
 2406TIP3   OH2 7160   0.884   2.116   2.005
 2406TIP3    H1 7161   0.863   2.208   1.987
 2406TIP3    H2 7162   0.801   2.070   1.999
 2407TIP3   OH2 7163   1.487   7.485   1.170
 2407TIP3    H1 7164   1.402   7.527   1.165
 2407TIP3    H2 7165   1.488   7.442   1.256
 2408TIP3   OH2 7166   5.915   6.619   3.271
 2408TIP3    H1 7167   5.906   6.658   3.358
 2408TIP3    H2 7168   5.959   6.686   3.219
 2409TIP3   OH2 7169   3.329   2.420   0.100
 2409TIP3    H1 7170   3.397   2.478   0.133
 2409TIP3    H2 7171   3.345   2.415   0.006
 2410TIP3   OH2 7172   0.043   6.092   0.744
 2410TIP3    H1 7173   0.098   6.014   0.736
 2410TIP3    H2 7174   0.022   6.098   0.837
 2411TIP3   OH2 7175   4.924   7.643   2.302
 2411TIP3    H1 7176   4.967   7.625   2.386
 2411TIP3    H2 7177   4.977   7.595   2.238
 2412TIP3   OH2 7178   5.205   5.299   6.398
 2412TIP3    H1 7179   5.125   5.333   6.439
 2412TIP3    H2 7180   5.268   5.371   6.403
 2413TIP3   OH2 7181   4.909   4.684   0.742
 2413TIP3    H1 7182   4.845   4.656   0.807
 2413TIP3    H2 7183   4.967   4.744   0.790
 2414TIP3   OH2 7184   2.697   5.212   4.186
 2414TIP3    H1 7185   2.635   5.160   4.136
 2414TIP3    H2 7186   2.769   5.230   4.125
 2415TIP3   OH2 7187   5.373   5.137   2.652
 2415TIP3    H1 7188   5.418   5.072   2.706
 2415TIP3    H2 7189   5.432   5.213   2.651
 2416TIP3   OH2 7190   0.297   3.711   4.016
 2416TIP3    H1 7191   0.358   3.697   4.089
 2416TIP3    H2 7192   0.210   3.709   4.056
 2417TIP3   OH2 7193   4.277   4.858   5.985
 2417TIP3    H1 7194   4.193   4.866   6.030
 2417TIP3    H2 7195   4.341   4.891   6.048
 2418TIP3   OH2 7196   2.953   2.246   1.213
 2418TIP3    H1 7197   2.909   2.164   1.188
 2418TIP3    H2 7198   2.949   2.300   1.134
 2419TIP3   OH2 7199   7.961   1.126   3.367
 2419TIP3    H1 7200   7.889   1.181   3.396
 2419TIP3    H2 7201   8.037   1.157   3.416
 2420TIP3   OH2 7202   5.317   6.078   3.273
 2420TIP3    H1 7203   5.379   6.009   3.250
 2420TIP3    H2 7204   5.346   6.108   3.359
 2421TIP3   OH2 7205   6.473   4.507   2.624
 2421TIP3    H1 7206   6.437   4.562   2.694
 2421TIP3    H2 7207   6.434   4.541   2.544
 2422TIP3   OH2 7208   5.025   5.909   0.868
 2422TIP3    H1 7209   4.967   5.902   0.792
 2422TIP3    H2 7210   5.108   5.871   0.839
 2423TIP3   OH2 7211   6.580   4.637   3.458
 2423TIP3    H1 7212   6.490   4.607   3.447
 2423TIP3    H2 7213   6.573   4.715   3.513
 2424TIP3   OH2 7214   0.018   1.649   1.919
 2424TIP3    H1 7215  -0.069   1.632   1.883
 2424TIP3    H2 7216   0.016   1.742   1.942
 2425TIP3   OH2 7217   3.069   4.321   6.370
 2425TIP3    H1 7218   2.985   4.274   6.377
 2425TIP3    H2 7219   3.059   4.396   6.427
 2426TIP3   OH2 7220   7.362   5.187   6.710
 2426TIP3    H1 7221   7.368   5.283   6.711
 2426TIP3    H2 7222   7.321   5.167   6.626
 2427TIP3   OH2 7223   3.026   7.813   1.948
 2427TIP3    H1 7224   2.957   7.790   2.011
 2427TIP3    H2 7225   3.105   7.823   2.001
 2428TIP3   OH2 7226   3.424   5.009   1.655
 2428TIP3    H1 7227   3.514   4.981   1.669
 2428TIP3    H2 7228   3.426   5.105   1.664
 2429TIP3   OH2 7229   8.225   2.779   0.375
 2429TIP3    H1 7230   8.175   2.857   0.351
 2429TIP3    H2 7231   8.286   2.767   0.302
 2430TIP3   OH2 7232   0.377   0.906   5.992
 2430TIP3    H1 7233   0.347   0.996   6.008
 2430TIP3    H2 7234   0.451   0.894   6.052
 2431TIP3   OH2 7235   6.750   5.886   4.073
 2431TIP3    H1 7236   6.738   5.974   4.039
 2431TIP3    H2 7237   6.747   5.896   4.168
 2432TIP3   OH2 7238   6.373   3.358   5.787
 2432TIP3    H1 7239   6.351   3.343   5.696
 2432TIP3    H2 7240   6.356   3.452   5.801
 2433TIP3   OH2 7241   8.030   5.418   1.320
 2433TIP3    H1 7242   8.070   5.388   1.238
 2433TIP3    H2 7243   8.104   5.424   1.381
 2434TIP3   OH2 7244   1.480   2.403   2.434
 2434TIP3    H1 7245   1.424   2.452   2.494
 2434TIP3    H2 7246   1.486   2.459   2.356
 2435TIP3   OH2 7247   7.775   7.488   0.584
 2435TIP3    H1 7248   7.758   7.400   0.550
 2435TIP3    H2 7249   7.802   7.473   0.675
 2436TIP3   OH2 7250   1.303   7.193   4.167
 2436TIP3    H1 7251   1.386   7.227   4.134
 2436TIP3    H2 7252   1.309   7.203   4.262
 2437TIP3   OH2 7253   7.978   7.236   1.283
 2437TIP3    H1 7254   7.996   7.292   1.359
 2437TIP3    H2 7255   8.015   7.284   1.209
 2438TIP3   OH2 7256   6.380   1.453   5.152
 2438TIP3    H1 7257   6.409   1.362   5.151
 2438TIP3    H2 7258   6.453   1.501   5.190
 2439TIP3   OH2 7259   5.103   2.272   2.052
 2439TIP3    H1 7260   5.175   2.336   2.061
 2439TIP3    H2 7261   5.025   2.321   2.077
 2440TIP3   OH2 7262   0.710   6.787   3.294
 2440TIP3    H1 7263   0.704   6.865   3.239
 2440TIP3    H2 7264   0.682   6.715   3.237
 2441TIP3   OH2 7265   6.064   4.085   4.220
 2441TIP3    H1 7266   6.115   4.150   4.172
 2441TIP3    H2 7267   5.986   4.133   4.249
 2442TIP3   OH2 7268   1.740   0.671   0.358
 2442TIP3    H1 7269   1.656   0.700   0.392
 2442TIP3    H2 7270   1.782   0.626   0.431
 2443TIP3   OH2 7271   6.610   3.817   0.918
 2443TIP3    H1 7272   6.556   3.861   0.852
 2443TIP3    H2 7273   6.693   3.801   0.874
 2444TIP3   OH2 7274   1.702   5.359   2.861
 2444TIP3    H1 7275   1.730   5.371   2.951
 2444TIP3    H2 7276   1.752   5.423   2.811
 2445TIP3   OH2 7277   1.873   1.808   4.113
 2445TIP3    H1 7278   1.854   1.873   4.045
 2445TIP3    H2 7279   1.886   1.726   4.064
 2446TIP3   OH2 7280   6.556   3.754   3.315
 2446TIP3    H1 7281   6.569   3.809   3.237
 2446TIP3    H2 7282   6.470   3.780   3.348
 2447TIP3   OH2 7283   4.508   5.016   3.626
 2447TIP3    H1 7284   4.493   4.954   3.554
 2447TIP3    H2 7285   4.481   5.101   3.590
 2448TIP3   OH2 7286   5.611   7.042   6.013
 2448TIP3    H1 7287   5.675   7.114   6.015
 2448TIP3    H2 7288   5.530   7.081   6.046
 2449TIP3   OH2 7289   1.933   0.363   2.760
 2449TIP3    H1 7290   1.852   0.311   2.755
 2449TIP3    H2 7291   1.965   0.366   2.670
 2450TIP3   OH2 7292   4.243   2.993   4.496
 2450TIP3    H1 7293   4.198   2.909   4.484
 2450TIP3    H2 7294   4.336   2.972   4.483
 2451TIP3   OH2 7295   5.702   4.063   2.000
 2451TIP3    H1 7296   5.797   4.056   1.993
 2451TIP3    H2 7297   5.688   4.137   2.059
 2452TIP3   OH2 7298   6.713   0.468   2.371
 2452TIP3    H1 7299   6.737   0.397   2.312
 2452TIP3    H2 7300   6.662   0.426   2.440
 2453TIP3   OH2 7301   2.293   5.416   5.802
 2453TIP3    H1 7302   2.354   5.368   5.858
 2453TIP3    H2 7303   2.347   5.454   5.733
 2454TIP3   OH2 7304   2.438   2.274   3.589
 2454TIP3    H1 7305   2.521   2.322   3.590
 2454TIP3    H2 7306   2.440   2.220   3.668
 2455TIP3   OH2 7307   7.961   7.518   3.103
 2455TIP3    H1 7308   8.010   7.568   3.038
 2455TIP3    H2 7309   7.900   7.465   3.052
 2456TIP3   OH2 7310   7.251   0.084   0.401
 2456TIP3    H1 7311   7.173   0.136   0.383
 2456TIP3    H2 7312   7.218   0.004   0.441
 2457TIP3   OH2 7313   4.982   5.091   4.540
 2457TIP3    H1 7314   4.973   5.003   4.578
 2457TIP3    H2 7315   5.048   5.134   4.595
 2458TIP3   OH2 7316   2.633   7.240   3.988
 2458TIP3    H1 7317   2.678   7.167   3.946
 2458TIP3    H2 7318   2.613   7.300   3.916
 2459TIP3   OH2 7319   0.280   5.520   4.595
 2459TIP3    H1 7320   0.279   5.426   4.612
 2459TIP3    H2 7321   0.293   5.527   4.500
 2460TIP3   OH2 7322   2.390   6.547   1.251
 2460TIP3    H1 7323   2.341   6.516   1.327
 2460TIP3    H2 7324   2.478   6.510   1.263
 2461TIP3   OH2 7325   2.962   1.826   2.035
 2461TIP3    H1 7326   2.874   1.815   1.998
 2461TIP3    H2 7327   2.947   1.863   2.122
 2462TIP3   OH2 7328   4.384   6.493   1.014
 2462TIP3    H1 7329   4.335   6.416   0.986
 2462TIP3    H2 7330   4.397   6.543   0.934
 2463TIP3   OH2 7331   5.418   5.688   4.057
 2463TIP3    H1 7332   5.366   5.617   4.019
 2463TIP3    H2 7333   5.426   5.666   4.150
 2464TIP3   OH2 7334   4.722   6.321   3.284
 2464TIP3    H1 7335   4.634   6.358   3.282
 2464TIP3    H2 7336   4.725   6.269   3.364
 2465TIP3   OH2 7337   6.636   7.636   2.150
 2465TIP3    H1 7338   6.698   7.621   2.078
 2465TIP3    H2 7339   6.633   7.731   2.159
 2466TIP3   OH2 7340   5.861   3.536   0.035
 2466TIP3    H1 7341   5.842   3.466   0.097
 2466TIP3    H2 7342   5.951   3.519   0.006
 2467TIP3   OH2 7343   1.779   0.697   3.340
 2467TIP3    H1 7344   1.803   0.790   3.344
 2467TIP3    H2 7345   1.693   0.696   3.299
 2468TIP3   OH2 7346   5.798   2.798   2.709
 2468TIP3    H1 7347   5.722   2.810   2.766
 2468TIP3    H2 7348   5.844   2.722   2.745
 2469TIP3   OH2 7349   0.671   1.659   3.248
 2469TIP3    H1 7350   0.707   1.573   3.271
 2469TIP3    H2 7351   0.577   1.651   3.264
 2470TIP3   OH2 7352   1.800   6.184   3.092
 2470TIP3    H1 7353   1.763   6.228   3.169
 2470TIP3    H2 7354   1.835   6.255   3.039
 2471TIP3   OH2 7355   0.652   1.987   5.976
 2471TIP3    H1 7356   0.558   1.980   5.960
 2471TIP3    H2 7357   0.659   2.010   6.068
 2472TIP3   OH2 7358   8.005   3.917   4.195
 2472TIP3    H1 7359   8.017   3.943   4.103
 2472TIP3    H2 7360   8.036   3.827   4.199
 2473TIP3   OH2 7361   1.793   0.561   5.935
 2473TIP3    H1 7362   1.824   0.600   6.017
 2473TIP3    H2 7363   1.842   0.479   5.928
 2474TIP3   OH2 7364   7.197   6.302   2.002
 2474TIP3    H1 7365   7.123   6.362   1.998
 2474TIP3    H2 7366   7.188   6.246   1.925
 2475TIP3   OH2 7367   1.994   6.704   1.202
 2475TIP3    H1 7368   2.057   6.657   1.149
 2475TIP3    H2 7369   1.909   6.670   1.174
 2476TIP3   OH2 7370   5.457   6.484   2.475
 2476TIP3    H1 7371   5.369   6.507   2.446
 2476TIP3    H2 7372   5.457   6.498   2.569
 2477TIP3   OH2 7373   7.011   0.590   5.390
 2477TIP3    H1 7374   7.068   0.516   5.370
 2477TIP3    H2 7375   6.955   0.559   5.461
 2478TIP3   OH2 7376   7.308   2.542   6.006
 2478TIP3    H1 7377   7.382   2.482   6.010
 2478TIP3    H2 7378   7.303   2.580   6.094
 2479TIP3   OH2 7379   7.206   4.565   3.639
 2479TIP3    H1 7380   7.224   4.596   3.550
 2479TIP3    H2 7381   7.287   4.523   3.667
 2480TIP3   OH2 7382   2.310   2.014   5.770
 2480TIP3    H1 7383   2.227   2.045   5.804
 2480TIP3    H2 7384   2.375   2.075   5.805
 2481TIP3   OH2 7385   6.631   3.626   2.919
 2481TIP3    H1 7386   6.563   3.654   2.981
 2481TIP3    H2 7387   6.696   3.697   2.922
 2482TIP3   OH2 7388   3.821   4.494   5.673
 2482TIP3    H1 7389   3.763   4.565   5.648
 2482TIP3    H2 7390   3.895   4.537   5.717
 2483TIP3   OH2 7391   3.639   3.545   5.498
 2483TIP3    H1 7392   3.709   3.481   5.486
 2483TIP3    H2 7393   3.604   3.526   5.585
 2484TIP3   OH2 7394   0.628   0.512   2.621
 2484TIP3    H1 7395   0.640   0.605   2.603
 2484TIP3    H2 7396   0.702   0.470   2.579
 2485TIP3   OH2 7397   3.321   7.424   5.470
 2485TIP3    H1 7398   3.278   7.434   5.555
 2485TIP3    H2 7399   3.275   7.485   5.412
 2486TIP3   OH2 7400   5.726   6.356   3.934
 2486TIP3    H1 7401   5.780   6.426   3.971
 2486TIP3    H2 7402   5.770   6.332   3.853
 2487TIP3   OH2 7403   0.533   6.646   4.512
 2487TIP3    H1 7404   0.467   6.582   4.485
 2487TIP3    H2 7405   0.506   6.672   4.600
 2488TIP3   OH2 7406   6.948   6.872   4.263
 2488TIP3    H1 7407   6.919   6.785   4.236
 2488TIP3    H2 7408   7.023   6.890   4.208
 2489TIP3   OH2 7409   0.956   7.341   0.084
 2489TIP3    H1 7410   0.891   7.410   0.080
 2489TIP3    H2 7411   0.922   7.273   0.026
 2490TIP3   OH2 7412   6.016   2.985   2.606
 2490TIP3    H1 7413   5.930   2.951   2.630
 2490TIP3    H2 7414   6.062   2.910   2.567
 2491TIP3   OH2 7415   6.711   3.171   4.094
 2491TIP3    H1 7416   6.786   3.203   4.045
 2491TIP3    H2 7417   6.738   3.086   4.127
 2492TIP3   OH2 7418   4.869   3.723   6.066
 2492TIP3    H1 7419   4.838   3.735   5.976
 2492TIP3    H2 7420   4.814   3.654   6.101
 2493TIP3   OH2 7421   6.623   0.834   1.828
 2493TIP3    H1 7422   6.562   0.764   1.852
 2493TIP3    H2 7423   6.618   0.896   1.900
 2494TIP3   OH2 7424   3.420   5.109   5.984
 2494TIP3    H1 7425   3.472   5.076   6.058
 2494TIP3    H2 7426   3.441   5.050   5.912
 2495TIP3   OH2 7427   7.793   6.406   6.527
 2495TIP3    H1 7428   7.802   6.495   6.493
 2495TIP3    H2 7429   7.879   6.387   6.565
 2496TIP3   OH2 7430   3.015   4.698   4.064
 2496TIP3    H1 7431   2.960   4.682   4.141
 2496TIP3    H2 7432   2.962   4.756   4.009
 2497TIP3   OH2 7433   2.346   5.409   4.034
 2497TIP3    H1 7434   2.342   5.353   4.111
 2497TIP3    H2 7435   2.436   5.403   4.004
 2498TIP3   OH2 7436   0.834   3.847   3.694
 2498TIP3    H1 7437   0.776   3.911   3.654
 2498TIP3    H2 7438   0.862   3.887   3.776
 2499TIP3   OH2 7439   4.607   1.387   3.354
 2499TIP3    H1 7440   4.531   1.444   3.366
 2499TIP3    H2 7441   4.572   1.307   3.316
 2500TIP3   OH2 7442   5.411   5.546   3.259
 2500TIP3    H1 7443   5.389   5.495   3.338
 2500TIP3    H2 7444   5.345   5.615   3.257
 2501TIP3   OH2 7445   1.199   4.867   1.391
 2501TIP3    H1 7446   1.152   4.786   1.373
 2501TIP3    H2 7447   1.276   4.864   1.335
 2502TIP3   OH2 7448   6.565   3.762   1.979
 2502TIP3    H1 7449   6.568   3.667   1.988
 2502TIP3    H2 7450   6.633   3.782   1.914
 2503TIP3   OH2 7451   2.091   6.496   0.017
 2503TIP3    H1 7452   2.123   6.518  -0.070
 2503TIP3    H2 7453   2.130   6.561   0.075
 2504TIP3   OH2 7454   2.045   6.975   2.292
 2504TIP3    H1 7455   1.964   6.994   2.246
 2504TIP3    H2 7456   2.025   6.897   2.344
 2505TIP3   OH2 7457   6.737   2.924   2.064
 2505TIP3    H1 7458   6.788   2.847   2.090
 2505TIP3    H2 7459   6.730   2.976   2.144
 2506TIP3   OH2 7460   7.330   7.544   4.693
 2506TIP3    H1 7461   7.330   7.472   4.756
 2506TIP3    H2 7462   7.422   7.561   4.675
 2507TIP3   OH2 7463   1.272   2.799   2.869
 2507TIP3    H1 7464   1.199   2.747   2.902
 2507TIP3    H2 7465   1.257   2.887   2.904
 2508TIP3   OH2 7466   3.401   3.360   6.598
 2508TIP3    H1 7467   3.370   3.335   6.685
 2508TIP3    H2 7468   3.485   3.315   6.589
 2509TIP3   OH2 7469   0.319   7.749   2.394
 2509TIP3    H1 7470   0.406   7.757   2.353
 2509TIP3    H2 7471   0.259   7.781   2.327
 2510TIP3   OH2 7472   6.040   7.048   5.177
 2510TIP3    H1 7473   6.018   6.991   5.103
 2510TIP3    H2 7474   6.098   7.114   5.140
 2511TIP3   OH2 7475   6.052   5.797   5.279
 2511TIP3    H1 7476   5.966   5.770   5.246
 2511TIP3    H2 7477   6.114   5.761   5.216
 2512TIP3   OH2 7478   5.659   5.508   1.376
 2512TIP3    H1 7479   5.580   5.504   1.430
 2512TIP3    H2 7480   5.722   5.452   1.422
 2513TIP3   OH2 7481   1.025   3.658   3.657
 2513TIP3    H1 7482   0.972   3.734   3.634
 2513TIP3    H2 7483   1.101   3.695   3.703
 2514TIP3   OH2 7484   7.992   7.418   4.966
 2514TIP3    H1 7485   8.035   7.499   4.991
 2514TIP3    H2 7486   8.062   7.363   4.933
 2515TIP3   OH2 7487   5.446   2.197   6.494
 2515TIP3    H1 7488   5.458   2.229   6.404
 2515TIP3    H2 7489   5.467   2.104   6.489
 2516TIP3   OH2 7490   4.148   1.725   0.552
 2516TIP3    H1 7491   4.123   1.774   0.631
 2516TIP3    H2 7492   4.241   1.744   0.541
 2517TIP3   OH2 7493   0.522   1.345   4.489
 2517TIP3    H1 7494   0.454   1.360   4.555
 2517TIP3    H2 7495   0.552   1.255   4.505
 2518TIP3   OH2 7496   0.505   2.873   1.384
 2518TIP3    H1 7497   0.455   2.822   1.447
 2518TIP3    H2 7498   0.560   2.930   1.438
 2519TIP3   OH2 7499   7.234   4.090   5.720
 2519TIP3    H1 7500   7.227   4.020   5.654
 2519TIP3    H2 7501   7.212   4.170   5.672
 2520TIP3   OH2 7502   6.328   2.377   5.725
 2520TIP3    H1 7503   6.308   2.458   5.773
 2520TIP3    H2 7504   6.422   2.382   5.707
 2521TIP3   OH2 7505   7.880   3.801   0.264
 2521TIP3    H1 7506   7.789   3.829   0.257
 2521TIP3    H2 7507   7.896   3.752   0.183
 2522TIP3   OH2 7508   2.404   7.645   3.617
 2522TIP3    H1 7509   2.412   7.672   3.708
 2522TIP3    H2 7510   2.352   7.565   3.619
 2523TIP3   OH2 7511   6.748   3.851   1.762
 2523TIP3    H1 7512   6.691   3.874   1.689
 2523TIP3    H2 7513   6.785   3.766   1.738
 2524TIP3   OH2 7514   0.724   1.332   5.637
 2524TIP3    H1 7515   0.803   1.284   5.615
 2524TIP3    H2 7516   0.655   1.291   5.585
 2525TIP3   OH2 7517   2.415   1.962   2.853
 2525TIP3    H1 7518   2.333   2.011   2.852
 2525TIP3    H2 7519   2.389   1.873   2.877
 2526TIP3   OH2 7520   7.769   6.942   1.322
 2526TIP3    H1 7521   7.731   6.856   1.336
 2526TIP3    H2 7522   7.863   6.928   1.334
 2527TIP3   OH2 7523   5.924   1.771   4.359
 2527TIP3    H1 7524   5.839   1.727   4.367
 2527TIP3    H2 7525   5.987   1.700   4.345
 2528TIP3   OH2 7526   6.743   4.435   1.776
 2528TIP3    H1 7527   6.777   4.463   1.690
 2528TIP3    H2 7528   6.810   4.463   1.838
 2529TIP3   OH2 7529   4.519   1.580   2.154
 2529TIP3    H1 7530   4.531   1.669   2.121
 2529TIP3    H2 7531   4.568   1.525   2.094
 2530TIP3   OH2 7532   7.702   0.076   3.716
 2530TIP3    H1 7533   7.725   0.025   3.638
 2530TIP3    H2 7534   7.670   0.012   3.779
 2531TIP3   OH2 7535   8.100   4.141   5.631
 2531TIP3    H1 7536   8.181   4.097   5.607
 2531TIP3    H2 7537   8.060   4.084   5.697
 2532TIP3   OH2 7538   2.600   0.752   4.151
 2532TIP3    H1 7539   2.578   0.692   4.079
 2532TIP3    H2 7540   2.635   0.695   4.220
 2533TIP3   OH2 7541   3.385   2.352   2.633
 2533TIP3    H1 7542   3.403   2.401   2.553
 2533TIP3    H2 7543   3.312   2.294   2.610
 2534TIP3   OH2 7544   0.905   4.735   1.087
 2534TIP3    H1 7545   0.828   4.705   1.135
 2534TIP3    H2 7546   0.876   4.741   0.996
 2535TIP3   OH2 7547   5.042   0.450   6.523
 2535TIP3    H1 7548   5.008   0.361   6.523
 2535TIP3    H2 7549   5.020   0.484   6.436
 2536TIP3   OH2 7550   7.946   2.274   0.656
 2536TIP3    H1 7551   7.875   2.284   0.592
 2536TIP3    H2 7552   7.981   2.362   0.666
 2537TIP3   OH2 7553   5.249   5.959   2.171
 2537TIP3    H1 7554   5.299   6.039   2.154
 2537TIP3    H2 7555   5.314   5.897   2.204
 2538TIP3   OH2 7556   4.315   4.774   2.520
 2538TIP3    H1 7557   4.346   4.842   2.580
 2538TIP3    H2 7558   4.391   4.718   2.504
 2539TIP3   OH2 7559   3.420   7.159   5.387
 2539TIP3    H1 7560   3.351   7.222   5.367
 2539TIP3    H2 7561   3.430   7.165   5.482
 2540TIP3   OH2 7562   0.694   2.211   5.316
 2540TIP3    H1 7563   0.664   2.177   5.232
 2540TIP3    H2 7564   0.778   2.253   5.297
 2541TIP3   OH2 7565   1.523   2.902   3.767
 2541TIP3    H1 7566   1.493   2.841   3.699
 2541TIP3    H2 7567   1.603   2.862   3.801
 2542TIP3   OH2 7568   6.640   2.150   0.950
 2542TIP3    H1 7569   6.629   2.055   0.962
 2542TIP3    H2 7570   6.735   2.162   0.944
 2543TIP3   OH2 7571   2.977   5.020   1.850
 2543TIP3    H1 7572   2.950   4.964   1.922
 2543TIP3    H2 7573   3.066   5.046   1.872
 2544TIP3   OH2 7574   5.450   6.451   1.099
 2544TIP3    H1 7575   5.395   6.373   1.090
 2544TIP3    H2 7576   5.427   6.486   1.185
 2545TIP3   OH2 7577   1.442   6.910   0.962
 2545TIP3    H1 7578   1.462   7.004   0.961
 2545TIP3    H2 7579   1.525   6.868   0.982
 2546TIP3   OH2 7580   0.034   4.188   2.452
 2546TIP3    H1 7581   0.095   4.255   2.481
 2546TIP3    H2 7582   0.038   4.120   2.519
 2547TIP3   OH2 7583   3.573   5.303   1.370
 2547TIP3    H1 7584   3.500   5.272   1.424
 2547TIP3    H2 7585   3.610   5.223   1.333
 2548TIP3   OH2 7586   6.503   2.867   3.227
 2548TIP3    H1 7587   6.430   2.847   3.168
 2548TIP3    H2 7588   6.462   2.913   3.301
 2549TIP3   OH2 7589   4.997   6.095   4.075
 2549TIP3    H1 7590   5.001   6.130   3.986
 2549TIP3    H2 7591   5.043   6.011   4.070
 2550TIP3   OH2 7592   1.061   0.168   1.376
 2550TIP3    H1 7593   0.968   0.193   1.373
 2550TIP3    H2 7594   1.092   0.203   1.459
 2551TIP3   OH2 7595   7.085   7.506   3.195
 2551TIP3    H1 7596   7.143   7.430   3.181
 2551TIP3    H2 7597   7.082   7.550   3.111
 2552TIP3   OH2 7598   4.439   6.310   4.356
 2552TIP3    H1 7599   4.411   6.221   4.377
 2552TIP3    H2 7600   4.401   6.364   4.426
 2553TIP3   OH2 7601   5.707   5.541   5.831
 2553TIP3    H1 7602   5.786   5.501   5.797
 2553TIP3    H2 7603   5.690   5.615   5.773
 2554TIP3   OH2 7604   6.809   2.766   5.742
 2554TIP3    H1 7605   6.718   2.748   5.766
 2554TIP3    H2 7606   6.817   2.861   5.749
 2555TIP3   OH2 7607   6.819   1.862   4.121
 2555TIP3    H1 7608   6.727   1.876   4.142
 2555TIP3    H2 7609   6.829   1.894   4.031
 2556TIP3   OH2 7610   7.056   0.743   4.792
 2556TIP3    H1 7611   6.992   0.690   4.746
 2556TIP3    H2 7612   7.043   0.721   4.884
 2557TIP3   OH2 7613   1.835   7.761   0.098
 2557TIP3    H1 7614   1.744   7.778   0.075
 2557TIP3    H2 7615   1.883   7.772   0.016
 2558TIP3   OH2 7616   7.181   0.979   6.134
 2558TIP3    H1 7617   7.210   1.050   6.191
 2558TIP3    H2 7618   7.106   0.941   6.179
 2559TIP3   OH2 7619   0.191   1.208   3.456
 2559TIP3    H1 7620   0.112   1.154   3.448
 2559TIP3    H2 7621   0.216   1.229   3.366
 2560TIP3   OH2 7622   3.693   3.979   5.559
 2560TIP3    H1 7623   3.680   4.051   5.621
 2560TIP3    H2 7624   3.660   4.013   5.475
 2561TIP3   OH2 7625   5.660   6.869   5.016
 2561TIP3    H1 7626   5.603   6.943   5.036
 2561TIP3    H2 7627   5.628   6.836   4.932
 2562TIP3   OH2 7628   8.110   1.568   5.055
 2562TIP3    H1 7629   8.118   1.641   5.115
 2562TIP3    H2 7630   8.039   1.514   5.092
 2563TIP3   OH2 7631   7.194   6.415   2.650
 2563TIP3    H1 7632   7.257   6.357   2.608
 2563TIP3    H2 7633   7.112   6.401   2.602
 2564TIP3   OH2 7634   8.180   4.324   5.244
 2564TIP3    H1 7635   8.105   4.344   5.188
 2564TIP3    H2 7636   8.231   4.405   5.247
 2565TIP3   OH2 7637   3.607   6.041   2.223
 2565TIP3    H1 7638   3.702   6.038   2.211
 2565TIP3    H2 7639   3.596   6.048   2.318
 2566TIP3   OH2 7640   3.981   5.886   4.287
 2566TIP3    H1 7641   4.059   5.848   4.328
 2566TIP3    H2 7642   3.950   5.819   4.226
 2567TIP3   OH2 7643   2.959   2.227   3.081
 2567TIP3    H1 7644   2.923   2.142   3.055
 2567TIP3    H2 7645   2.962   2.223   3.177
 2568TIP3   OH2 7646   6.127   7.679   5.616
 2568TIP3    H1 7647   6.200   7.644   5.564
 2568TIP3    H2 7648   6.161   7.682   5.705
 2569TIP3   OH2 7649   5.402   2.835   1.617
 2569TIP3    H1 7650   5.361   2.777   1.682
 2569TIP3    H2 7651   5.340   2.907   1.606
 2570TIP3   OH2 7652   5.597   3.726   2.284
 2570TIP3    H1 7653   5.572   3.795   2.345
 2570TIP3    H2 7654   5.636   3.658   2.339
 2571TIP3   OH2 7655   5.333   5.670   2.264
 2571TIP3    H1 7656   5.285   5.602   2.215
 2571TIP3    H2 7657   5.300   5.663   2.353
 2572TIP3   OH2 7658   1.099   1.306   0.769
 2572TIP3    H1 7659   1.122   1.393   0.737
 2572TIP3    H2 7660   1.004   1.300   0.759
 2573TIP3   OH2 7661   5.315   3.970   0.660
 2573TIP3    H1 7662   5.325   3.876   0.645
 2573TIP3    H2 7663   5.221   3.981   0.677
 2574TIP3   OH2 7664   4.931   1.388   1.812
 2574TIP3    H1 7665   4.990   1.386   1.736
 2574TIP3    H2 7666   4.851   1.346   1.781
 2575TIP3   OH2 7667   7.958   5.773   6.493
 2575TIP3    H1 7668   8.005   5.716   6.554
 2575TIP3    H2 7669   7.949   5.721   6.413
 2576TIP3   OH2 7670   5.946   0.600   4.778
 2576TIP3    H1 7671   5.961   0.661   4.706
 2576TIP3    H2 7672   6.028   0.603   4.828
 2577TIP3   OH2 7673   4.165   0.387   3.182
 2577TIP3    H1 7674   4.187   0.401   3.090
 2577TIP3    H2 7675   4.080   0.429   3.193
 2578TIP3   OH2 7676   1.415   7.502   3.697
 2578TIP3    H1 7677   1.397   7.560   3.622
 2578TIP3    H2 7678   1.329   7.465   3.719
 2579TIP3   OH2 7679   2.199   3.556   5.123
 2579TIP3    H1 7680   2.150   3.559   5.041
 2579TIP3    H2 7681   2.164   3.628   5.175
 2580TIP3   OH2 7682   2.379   5.052   0.172
 2580TIP3    H1 7683   2.306   5.109   0.149
 2580TIP3    H2 7684   2.421   5.096   0.246
 2581TIP3   OH2 7685   1.837   2.262   5.881
 2581TIP3    H1 7686   1.872   2.351   5.880
 2581TIP3    H2 7687   1.769   2.263   5.814
 2582TIP3   OH2 7688   1.357   6.468   6.331
 2582TIP3    H1 7689   1.309   6.551   6.328
 2582TIP3    H2 7690   1.450   6.494   6.329
 2583TIP3   OH2 7691   7.618   6.463   0.685
 2583TIP3    H1 7692   7.550   6.524   0.712
 2583TIP3    H2 7693   7.572   6.392   0.640
 2584TIP3   OH2 7694   6.782   0.981   3.461
 2584TIP3    H1 7695   6.708   1.041   3.456
 2584TIP3    H2 7696   6.743   0.897   3.482
 2585TIP3   OH2 7697   7.301   3.264   2.744
 2585TIP3    H1 7698   7.277   3.291   2.655
 2585TIP3    H2 7699   7.233   3.200   2.768
 2586TIP3   OH2 7700   3.251   3.523   2.504
 2586TIP3    H1 7701   3.341   3.551   2.521
 2586TIP3    H2 7702   3.249   3.506   2.410
 2587TIP3   OH2 7703   1.349   7.039   0.234
 2587TIP3    H1 7704   1.357   7.096   0.158
 2587TIP3    H2 7705   1.407   7.078   0.300
 2588TIP3   OH2 7706   5.354   4.758   0.128
 2588TIP3    H1 7707   5.262   4.767   0.103
 2588TIP3    H2 7708   5.364   4.666   0.151
 2589TIP3   OH2 7709   7.911   1.697   4.930
 2589TIP3    H1 7710   7.978   1.658   4.986
 2589TIP3    H2 7711   7.845   1.628   4.920
 2590TIP3   OH2 7712   7.675   6.258   5.199
 2590TIP3    H1 7713   7.641   6.227   5.283
 2590TIP3    H2 7714   7.597   6.267   5.144
 2591TIP3   OH2 7715   7.010   4.147   0.215
 2591TIP3    H1 7716   7.035   4.232   0.180
 2591TIP3    H2 7717   6.914   4.151   0.220
 2592TIP3   OH2 7718   5.907   2.716   3.666
 2592TIP3    H1 7719   5.957   2.797   3.681
 2592TIP3    H2 7720   5.849   2.710   3.742
 2593TIP3   OH2 7721   7.793   3.712   3.573
 2593TIP3    H1 7722   7.760   3.703   3.484
 2593TIP3    H2 7723   7.868   3.653   3.577
 2594TIP3   OH2 7724   4.796   5.700   2.899
 2594TIP3    H1 7725   4.742   5.635   2.854
 2594TIP3    H2 7726   4.740   5.732   2.970
 2595TIP3   OH2 7727   0.963   0.454   1.673
 2595TIP3    H1 7728   0.872   0.430   1.654
 2595TIP3    H2 7729   0.963   0.549   1.672
 2596TIP3   OH2 7730   1.821   0.132   3.848
 2596TIP3    H1 7731   1.871   0.202   3.888
 2596TIP3    H2 7732   1.786   0.170   3.768
 2597TIP3   OH2 7733   2.580   7.402   3.786
 2597TIP3    H1 7734   2.489   7.390   3.813
 2597TIP3    H2 7735   2.574   7.425   3.694
 2598TIP3   OH2 7736   7.462   1.786   5.643
 2598TIP3    H1 7737   7.478   1.847   5.715
 2598TIP3    H2 7738   7.533   1.722   5.649
 2599TIP3   OH2 7739   4.683   4.679   0.950
 2599TIP3    H1 7740   4.680   4.596   0.997
 2599TIP3    H2 7741   4.592   4.710   0.950
 2600TIP3   OH2 7742   7.725   1.925   4.018
 2600TIP3    H1 7743   7.684   2.007   4.045
 2600TIP3    H2 7744   7.653   1.871   3.987
 2601TIP3   OH2 7745   2.378   4.370   5.380
 2601TIP3    H1 7746   2.429   4.445   5.411
 2601TIP3    H2 7747   2.415   4.348   5.295
 2602TIP3   OH2 7748   0.815   3.188   5.738
 2602TIP3    H1 7749   0.773   3.133   5.803
 2602TIP3    H2 7750   0.905   3.156   5.734
 2603TIP3   OH2 7751   1.355   1.460   3.423
 2603TIP3    H1 7752   1.397   1.400   3.485
 2603TIP3    H2 7753   1.371   1.420   3.337
 2604TIP3   OH2 7754   6.824   1.588   1.539
 2604TIP3    H1 7755   6.802   1.643   1.614
 2604TIP3    H2 7756   6.794   1.501   1.564
 2605TIP3   OH2 7757   2.688   0.972   3.257
 2605TIP3    H1 7758   2.628   0.951   3.330
 2605TIP3    H2 7759   2.636   1.025   3.197
 2606TIP3   OH2 7760   7.220   7.136   4.412
 2606TIP3    H1 7761   7.130   7.166   4.418
 2606TIP3    H2 7762   7.226   7.094   4.326
 2607TIP3   OH2 7763   6.064   2.663   0.045
 2607TIP3    H1 7764   6.031   2.573   0.052
 2607TIP3    H2 7765   6.125   2.661  -0.028
 2608TIP3   OH2 7766   4.968   5.158   3.005
 2608TIP3    H1 7767   4.924   5.111   3.076
 2608TIP3    H2 7768   5.021   5.092   2.962
 2609TIP3   OH2 7769   2.687   3.940   0.741
 2609TIP3    H1 7770   2.645   4.024   0.724
 2609TIP3    H2 7771   2.761   3.962   0.798
 2610TIP3   OH2 7772   7.590   5.944   4.230
 2610TIP3    H1 7773   7.517   5.976   4.281
 2610TIP3    H2 7774   7.570   5.969   4.140
 2611TIP3   OH2 7775   8.102   1.509   4.422
 2611TIP3    H1 7776   8.161   1.488   4.350
 2611TIP3    H2 7777   8.138   1.590   4.459
 2612TIP3   OH2 7778   2.392   2.968   1.723
 2612TIP3    H1 7779   2.411   3.042   1.781
 2612TIP3    H2 7780   2.416   2.891   1.774
 2613TIP3   OH2 7781   0.592   5.430   4.153
 2613TIP3    H1 7782   0.634   5.516   4.145
 2613TIP3    H2 7783   0.499   5.447   4.138
 2614TIP3   OH2 7784   8.218   6.394   0.979
 2614TIP3    H1 7785   8.214   6.375   1.072
 2614TIP3    H2 7786   8.128   6.383   0.948
 2615TIP3   OH2 7787   3.805   0.095   2.862
 2615TIP3    H1 7788   3.843   0.029   2.920
 2615TIP3    H2 7789   3.878   0.126   2.809
 2616TIP3   OH2 7790   7.818   3.801   3.817
 2616TIP3    H1 7791   7.791   3.774   3.729
 2616TIP3    H2 7792   7.825   3.719   3.866
 2617TIP3   OH2 7793   3.634   7.282   2.261
 2617TIP3    H1 7794   3.665   7.362   2.303
 2617TIP3    H2 7795   3.643   7.299   2.167
 2618TIP3   OH2 7796   2.732   7.482   1.853
 2618TIP3    H1 7797   2.700   7.544   1.787
 2618TIP3    H2 7798   2.700   7.397   1.824
 2619TIP3   OH2 7799   2.964   1.085   3.283
 2619TIP3    H1 7800   2.978   1.095   3.377
 2619TIP3    H2 7801   2.875   1.052   3.275
 2620TIP3   OH2 7802   7.725   5.575   5.175
 2620TIP3    H1 7803   7.643   5.533   5.147
 2620TIP3    H2 7804   7.719   5.574   5.271
 2621TIP3   OH2 7805   1.577   1.737   3.104
 2621TIP3    H1 7806   1.622   1.694   3.177
 2621TIP3    H2 7807   1.484   1.725   3.123
 2622TIP3   OH2 7808   7.701   2.601   3.942
 2622TIP3    H1 7809   7.650   2.673   3.905
 2622TIP3    H2 7810   7.741   2.638   4.021
 2623TIP3   OH2 7811   4.145   7.277   2.405
 2623TIP3    H1 7812   4.213   7.210   2.409
 2623TIP3    H2 7813   4.137   7.308   2.495
 2624TIP3   OH2 7814   3.498   2.623   0.255
 2624TIP3    H1 7815   3.489   2.715   0.229
 2624TIP3    H2 7816   3.560   2.625   0.327
 2625TIP3   OH2 7817   4.635   6.016   2.251
 2625TIP3    H1 7818   4.643   5.944   2.188
 2625TIP3    H2 7819   4.563   5.990   2.308
 2626TIP3   OH2 7820   2.494   5.051   6.442
 2626TIP3    H1 7821   2.502   5.123   6.505
 2626TIP3    H2 7822   2.414   5.006   6.468
 2627TIP3   OH2 7823   4.112   6.606   2.537
 2627TIP3    H1 7824   4.087   6.642   2.622
 2627TIP3    H2 7825   4.082   6.671   2.473
 2628TIP3   OH2 7826   4.597   2.665   3.732
 2628TIP3    H1 7827   4.645   2.656   3.650
 2628TIP3    H2 7828   4.636   2.599   3.790
 2629TIP3   OH2 7829   1.989   1.742   6.609
 2629TIP3    H1 7830   1.987   1.754   6.704
 2629TIP3    H2 7831   2.052   1.806   6.578
 2630TIP3   OH2 7832   0.719   0.411   3.544
 2630TIP3    H1 7833   0.811   0.400   3.521
 2630TIP3    H2 7834   0.674   0.421   3.459
 2631TIP3   OH2 7835   2.252   5.432   1.667
 2631TIP3    H1 7836   2.280   5.352   1.623
 2631TIP3    H2 7837   2.244   5.407   1.759
 2632TIP3   OH2 7838   2.223   0.608   5.984
 2632TIP3    H1 7839   2.272   0.677   6.028
 2632TIP3    H2 7840   2.274   0.590   5.905
 2633TIP3   OH2 7841   1.572   2.900   2.991
 2633TIP3    H1 7842   1.616   2.977   3.025
 2633TIP3    H2 7843   1.638   2.830   2.997
 2634TIP3   OH2 7844   8.055   1.073   6.387
 2634TIP3    H1 7845   8.007   0.992   6.373
 2634TIP3    H2 7846   8.047   1.120   6.304
 2635TIP3   OH2 7847   6.205   0.108   0.433
 2635TIP3    H1 7848   6.182   0.167   0.361
 2635TIP3    H2 7849   6.223   0.024   0.391
 2636TIP3   OH2 7850   2.916   1.505   2.627
 2636TIP3    H1 7851   2.928   1.416   2.661
 2636TIP3    H2 7852   2.836   1.500   2.575
 2637TIP3   OH2 7853   0.688   4.055   5.926
 2637TIP3    H1 7854   0.633   4.081   5.851
 2637TIP3    H2 7855   0.684   3.960   5.926
 2638TIP3   OH2 7856   6.164   1.170   0.870
 2638TIP3    H1 7857   6.220   1.092   0.867
 2638TIP3    H2 7858   6.190   1.215   0.950
 2639TIP3   OH2 7859   6.778   1.823   6.030
 2639TIP3    H1 7860   6.716   1.877   5.981
 2639TIP3    H2 7861   6.770   1.736   5.991
 2640TIP3   OH2 7862   0.260   2.993   1.970
 2640TIP3    H1 7863   0.249   3.036   1.885
 2640TIP3    H2 7864   0.193   3.033   2.026
 2641TIP3   OH2 7865   5.397   5.963   4.495
 2641TIP3    H1 7866   5.483   5.939   4.531
 2641TIP3    H2 7867   5.365   6.032   4.553
 2642TIP3   OH2 7868   5.853   4.027   0.772
 2642TIP3    H1 7869   5.809   3.970   0.708
 2642TIP3    H2 7870   5.918   4.075   0.721
 2643TIP3   OH2 7871   4.843   6.745   2.508
 2643TIP3    H1 7872   4.774   6.774   2.568
 2643TIP3    H2 7873   4.911   6.710   2.564
 2644TIP3   OH2 7874   6.130   7.067   3.865
 2644TIP3    H1 7875   6.042   7.094   3.889
 2644TIP3    H2 7876   6.147   7.111   3.782
 2645TIP3   OH2 7877   4.712   1.480   6.763
 2645TIP3    H1 7878   4.802   1.446   6.762
 2645TIP3    H2 7879   4.662   1.415   6.714
 2646TIP3   OH2 7880   2.683   0.255   3.624
 2646TIP3    H1 7881   2.629   0.183   3.658
 2646TIP3    H2 7882   2.737   0.282   3.698
 2647TIP3   OH2 7883   3.186   0.574   3.727
 2647TIP3    H1 7884   3.092   0.593   3.717
 2647TIP3    H2 7885   3.197   0.488   3.686
 2648TIP3   OH2 7886   4.168   2.667   0.274
 2648TIP3    H1 7887   4.144   2.738   0.333
 2648TIP3    H2 7888   4.109   2.595   0.298
 2649TIP3   OH2 7889   0.183   5.877   5.328
 2649TIP3    H1 7890   0.267   5.918   5.348
 2649TIP3    H2 7891   0.185   5.794   5.376
 2650TIP3   OH2 7892   5.736   0.858   6.543
 2650TIP3    H1 7893   5.732   0.832   6.451
 2650TIP3    H2 7894   5.647   0.844   6.575
 2651TIP3   OH2 7895   7.402   4.941   0.998
 2651TIP3    H1 7896   7.358   5.011   0.950
 2651TIP3    H2 7897   7.338   4.913   1.063
 2652TIP3   OH2 7898   3.059   2.207   3.735
 2652TIP3    H1 7899   3.075   2.296   3.703
 2652TIP3    H2 7900   3.010   2.219   3.816
 2653TIP3   OH2 7901   6.323   2.419   3.520
 2653TIP3    H1 7902   6.385   2.388   3.585
 2653TIP3    H2 7903   6.248   2.450   3.571
 2654TIP3   OH2 7904   7.855   2.372   4.918
 2654TIP3    H1 7905   7.775   2.366   4.969
 2654TIP3    H2 7906   7.826   2.371   4.827
 2655TIP3   OH2 7907   2.503   0.092   0.382
 2655TIP3    H1 7908   2.447   0.015   0.391
 2655TIP3    H2 7909   2.590   0.063   0.410
 2656TIP3   OH2 7910   6.677   6.261   0.571
 2656TIP3    H1 7911   6.597   6.213   0.548
 2656TIP3    H2 7912   6.680   6.334   0.509
 2657TIP3   OH2 7913   4.336   2.805   4.854
 2657TIP3    H1 7914   4.364   2.758   4.776
 2657TIP3    H2 7915   4.272   2.747   4.895
 2658TIP3   OH2 7916   0.136   2.308   1.377
 2658TIP3    H1 7917   0.101   2.290   1.290
 2658TIP3    H2 7918   0.227   2.333   1.362
 2659TIP3   OH2 7919   4.056   4.242   6.631
 2659TIP3    H1 7920   4.009   4.161   6.612
 2659TIP3    H2 7921   4.134   4.214   6.678
 2660TIP3   OH2 7922   1.782   7.146   6.119
 2660TIP3    H1 7923   1.724   7.165   6.192
 2660TIP3    H2 7924   1.756   7.058   6.090
 2661TIP3   OH2 7925   7.672   4.572   2.541
 2661TIP3    H1 7926   7.602   4.632   2.566
 2661TIP3    H2 7927   7.728   4.566   2.619
 2662TIP3   OH2 7928   1.742   0.019   2.270
 2662TIP3    H1 7929   1.761  -0.003   2.179
 2662TIP3    H2 7930   1.646   0.024   2.274
 2663TIP3   OH2 7931   0.733   4.044   4.597
 2663TIP3    H1 7932   0.749   4.019   4.506
 2663TIP3    H2 7933   0.773   4.131   4.606
 2664TIP3   OH2 7934   4.705   7.084   4.584
 2664TIP3    H1 7935   4.700   7.082   4.680
 2664TIP3    H2 7936   4.730   7.174   4.564
 2665TIP3   OH2 7937   1.844   6.134   0.541
 2665TIP3    H1 7938   1.889   6.219   0.535
 2665TIP3    H2 7939   1.906   6.072   0.504
 2666TIP3   OH2 7940   8.165   1.631   4.691
 2666TIP3    H1 7941   8.108   1.557   4.711
 2666TIP3    H2 7942   8.106   1.707   4.695
 2667TIP3   OH2 7943   2.825   1.438   4.189
 2667TIP3    H1 7944   2.919   1.452   4.199
 2667TIP3    H2 7945   2.804   1.371   4.254
 2668TIP3   OH2 7946   5.298   6.632   0.675
 2668TIP3    H1 7947   5.359   6.696   0.712
 2668TIP3    H2 7948   5.351   6.554   0.658
 2669TIP3   OH2 7949   5.406   5.095   4.781
 2669TIP3    H1 7950   5.333   5.042   4.750
 2669TIP3    H2 7951   5.449   5.127   4.702
 2670TIP3   OH2 7952   8.073   4.701   1.001
 2670TIP3    H1 7953   8.085   4.672   0.910
 2670TIP3    H2 7954   8.145   4.661   1.049
 2671TIP3   OH2 7955   8.025   3.005   6.222
 2671TIP3    H1 7956   8.077   3.059   6.282
 2671TIP3    H2 7957   7.989   3.068   6.159
 2672TIP3   OH2 7958   3.980   0.465   2.691
 2672TIP3    H1 7959   4.007   0.379   2.659
 2672TIP3    H2 7960   3.888   0.472   2.667
 2673TIP3   OH2 7961   1.526   2.853   0.311
 2673TIP3    H1 7962   1.606   2.853   0.259
 2673TIP3    H2 7963   1.507   2.946   0.327
 2674TIP3   OH2 7964   2.207   2.419   2.668
 2674TIP3    H1 7965   2.147   2.367   2.614
 2674TIP3    H2 7966   2.265   2.461   2.604
 2675TIP3   OH2 7967   5.737   4.065   4.225
 2675TIP3    H1 7968   5.687   4.145   4.236
 2675TIP3    H2 7969   5.746   4.055   4.130
 2676TIP3   OH2 7970   1.308   2.299   6.647
 2676TIP3    H1 7971   1.242   2.280   6.581
 2676TIP3    H2 7972   1.283   2.245   6.722
 2677TIP3   OH2 7973   5.194   5.588   2.499
 2677TIP3    H1 7974   5.264   5.574   2.562
 2677TIP3    H2 7975   5.201   5.514   2.439
 2678TIP3   OH2 7976   4.437   1.182   3.270
 2678TIP3    H1 7977   4.356   1.233   3.262
 2678TIP3    H2 7978   4.411   1.101   3.312
 2679TIP3   OH2 7979   4.457   6.595   5.296
 2679TIP3    H1 7980   4.440   6.565   5.207
 2679TIP3    H2 7981   4.516   6.529   5.333
 2680TIP3   OH2 7982   6.119   1.120   5.664
 2680TIP3    H1 7983   6.041   1.138   5.717
 2680TIP3    H2 7984   6.085   1.080   5.584
 2681TIP3   OH2 7985   0.967   6.858   5.162
 2681TIP3    H1 7986   0.898   6.866   5.228
 2681TIP3    H2 7987   0.944   6.780   5.112
 2682TIP3   OH2 7988   4.107   3.937   3.804
 2682TIP3    H1 7989   4.129   3.850   3.835
 2682TIP3    H2 7990   4.162   3.996   3.856
 2683TIP3   OH2 7991   0.527   4.900   3.578
 2683TIP3    H1 7992   0.449   4.956   3.583
 2683TIP3    H2 7993   0.580   4.939   3.509
 2684TIP3   OH2 7994   4.189   3.207   4.708
 2684TIP3    H1 7995   4.172   3.114   4.693
 2684TIP3    H2 7996   4.122   3.253   4.656
 2685TIP3   OH2 7997   6.619   2.979   2.530
 2685TIP3    H1 7998   6.564   2.959   2.606
 2685TIP3    H2 7999   6.631   2.894   2.487
 2686TIP3   OH2 8000   5.198   1.999   3.232
 2686TIP3    H1 8001   5.249   2.074   3.201
 2686TIP3    H2 8002   5.114   2.007   3.187
 2687TIP3   OH2 8003   1.951   5.723   5.723
 2687TIP3    H1 8004   1.988   5.794   5.669
 2687TIP3    H2 8005   1.877   5.691   5.672
 2688TIP3   OH2 8006   4.025   6.157   4.703
 2688TIP3    H1 8007   3.975   6.143   4.623
 2688TIP3    H2 8008   4.111   6.188   4.673
 2689TIP3   OH2 8009   1.792   1.364   1.822
 2689TIP3    H1 8010   1.743   1.362   1.740
 2689TIP3    H2 8011   1.780   1.277   1.860
 2690TIP3   OH2 8012   4.365   1.550   3.360
 2690TIP3    H1 8013   4.368   1.566   3.454
 2690TIP3    H2 8014   4.277   1.515   3.344
 2691TIP3   OH2 8015   1.877   3.368   4.562
 2691TIP3    H1 8016   1.926   3.438   4.518
 2691TIP3    H2 8017   1.788   3.400   4.566
 2692TIP3   OH2 8018   2.391   4.849   3.419
 2692TIP3    H1 8019   2.338   4.785   3.468
 2692TIP3    H2 8020   2.354   4.849   3.331
 2693TIP3   OH2 8021   0.830   4.730   6.510
 2693TIP3    H1 8022   0.768   4.728   6.437
 2693TIP3    H2 8023   0.785   4.686   6.581
 2694TIP3   OH2 8024   4.714   3.876   2.041
 2694TIP3    H1 8025   4.620   3.857   2.034
 2694TIP3    H2 8026   4.757   3.800   2.004
 2695TIP3   OH2 8027   3.523   5.826   1.116
 2695TIP3    H1 8028   3.528   5.767   1.191
 2695TIP3    H2 8029   3.599   5.884   1.126
 2696TIP3   OH2 8030   1.983   7.260   6.235
 2696TIP3    H1 8031   1.947   7.312   6.307
 2696TIP3    H2 8032   1.906   7.226   6.190
 2697TIP3   OH2 8033   7.220   7.239   3.645
 2697TIP3    H1 8034   7.183   7.302   3.583
 2697TIP3    H2 8035   7.312   7.264   3.654
 2698TIP3   OH2 8036   4.755   2.526   5.149
 2698TIP3    H1 8037   4.843   2.514   5.112
 2698TIP3    H2 8038   4.740   2.620   5.146
 2699TIP3   OH2 8039   3.532   1.431   6.182
 2699TIP3    H1 8040   3.626   1.410   6.175
 2699TIP3    H2 8041   3.498   1.416   6.094
 2700TIP3   OH2 8042   0.024   1.381   1.031
 2700TIP3    H1 8043  -0.010   1.470   1.024
 2700TIP3    H2 8044  -0.054   1.325   1.022
 2701TIP3   OH2 8045   3.463   0.287   2.873
 2701TIP3    H1 8046   3.403   0.256   2.940
 2701TIP3    H2 8047   3.498   0.369   2.908
 2702TIP3   OH2 8048   2.101   6.239   2.650
 2702TIP3    H1 8049   2.081   6.318   2.701
 2702TIP3    H2 8050   2.191   6.218   2.674
 2703TIP3   OH2 8051   1.006   7.591   1.788
 2703TIP3    H1 8052   0.995   7.686   1.787
 2703TIP3    H2 8053   1.028   7.570   1.879
 2704TIP3   OH2 8054   4.992   3.156   6.520
 2704TIP3    H1 8055   5.031   3.071   6.498
 2704TIP3    H2 8056   4.961   3.145   6.611
 2705TIP3   OH2 8057   0.568   2.086   5.693
 2705TIP3    H1 8058   0.497   2.044   5.743
 2705TIP3    H2 8059   0.590   2.023   5.625
 2706TIP3   OH2 8060   5.896   0.658   5.554
 2706TIP3    H1 8061   5.917   0.576   5.597
 2706TIP3    H2 8062   5.900   0.637   5.460
 2707TIP3   OH2 8063   3.807   2.468   6.745
 2707TIP3    H1 8064   3.844   2.381   6.729
 2707TIP3    H2 8065   3.860   2.505   6.815
 2708TIP3   OH2 8066   5.537   0.327   4.620
 2708TIP3    H1 8067   5.558   0.373   4.701
 2708TIP3    H2 8068   5.621   0.319   4.575
 2709TIP3   OH2 8069   3.912   7.626   2.198
 2709TIP3    H1 8070   3.915   7.532   2.215
 2709TIP3    H2 8071   3.927   7.633   2.104
 2710TIP3   OH2 8072   6.741   4.484   2.703
 2710TIP3    H1 8073   6.659   4.506   2.660
 2710TIP3    H2 8074   6.788   4.430   2.638
 2711TIP3   OH2 8075   2.783   0.251   2.492
 2711TIP3    H1 8076   2.725   0.229   2.419
 2711TIP3    H2 8077   2.756   0.193   2.563
 2712TIP3   OH2 8078   6.601   7.646   4.235
 2712TIP3    H1 8079   6.661   7.639   4.160
 2712TIP3    H2 8080   6.517   7.614   4.201
 2713TIP3   OH2 8081   5.986   0.046   2.140
 2713TIP3    H1 8082   5.928   0.078   2.209
 2713TIP3    H2 8083   6.053   0.113   2.131
 2714TIP3   OH2 8084   7.028   6.731   1.173
 2714TIP3    H1 8085   6.965   6.662   1.151
 2714TIP3    H2 8086   7.111   6.700   1.138
 2715TIP3   OH2 8087   5.376   4.789   3.494
 2715TIP3    H1 8088   5.422   4.715   3.456
 2715TIP3    H2 8089   5.352   4.759   3.582
 2716TIP3   OH2 8090   4.205   6.895   5.503
 2716TIP3    H1 8091   4.113   6.914   5.521
 2716TIP3    H2 8092   4.206   6.801   5.481
 2717TIP3   OH2 8093   7.098   3.543   1.263
 2717TIP3    H1 8094   7.077   3.618   1.207
 2717TIP3    H2 8095   7.090   3.467   1.205
 2718TIP3   OH2 8096   2.338   5.490   6.497
 2718TIP3    H1 8097   2.322   5.518   6.407
 2718TIP3    H2 8098   2.345   5.572   6.546
 2719TIP3   OH2 8099   4.060   4.619   5.769
 2719TIP3    H1 8100   4.131   4.670   5.807
 2719TIP3    H2 8101   4.064   4.535   5.813
 2720TIP3   OH2 8102   7.200   6.058   1.044
 2720TIP3    H1 8103   7.177   5.980   1.094
 2720TIP3    H2 8104   7.198   6.030   0.953
 2721TIP3   OH2 8105   4.777   6.771   1.064
 2721TIP3    H1 8106   4.697   6.732   1.098
 2721TIP3    H2 8107   4.767   6.865   1.081
 2722TIP3   OH2 8108   4.022   1.131   5.631
 2722TIP3    H1 8109   4.011   1.037   5.650
 2722TIP3    H2 8110   4.111   1.151   5.658
 2723TIP3   OH2 8111   7.390   3.292   5.154
 2723TIP3    H1 8112   7.300   3.317   5.174
 2723TIP3    H2 8113   7.417   3.239   5.228
 2724TIP3   OH2 8114   6.497   1.105   3.976
 2724TIP3    H1 8115   6.416   1.077   4.020
 2724TIP3    H2 8116   6.491   1.200   3.973
 2725TIP3   OH2 8117   0.757   6.508   1.289
 2725TIP3    H1 8118   0.753   6.483   1.381
 2725TIP3    H2 8119   0.716   6.436   1.243
 2726TIP3   OH2 8120   2.938   6.949   3.346
 2726TIP3    H1 8121   2.933   7.019   3.281
 2726TIP3    H2 8122   3.022   6.964   3.389
 2727TIP3   OH2 8123   7.282   5.443   0.466
 2727TIP3    H1 8124   7.374   5.423   0.478
 2727TIP3    H2 8125   7.282   5.516   0.403
 2728TIP3   OH2 8126   6.731   7.631   3.998
 2728TIP3    H1 8127   6.816   7.588   3.995
 2728TIP3    H2 8128   6.727   7.683   3.917
 2729TIP3   OH2 8129   2.646   5.220   3.816
 2729TIP3    H1 8130   2.640   5.292   3.879
 2729TIP3    H2 8131   2.555   5.207   3.787
 2730TIP3   OH2 8132   3.561   2.536   5.563
 2730TIP3    H1 8133   3.583   2.458   5.512
 2730TIP3    H2 8134   3.466   2.545   5.553
 2731TIP3   OH2 8135   3.094   7.358   0.357
 2731TIP3    H1 8136   3.091   7.426   0.424
 2731TIP3    H2 8137   3.187   7.337   0.350
 2732TIP3   OH2 8138   7.202   1.322   3.613
 2732TIP3    H1 8139   7.292   1.336   3.641
 2732TIP3    H2 8140   7.209   1.257   3.543
 2733TIP3   OH2 8141   2.674   3.503   0.496
 2733TIP3    H1 8142   2.763   3.526   0.523
 2733TIP3    H2 8143   2.619   3.572   0.533
 2734TIP3   OH2 8144   7.782   6.011   2.197
 2734TIP3    H1 8145   7.698   6.058   2.191
 2734TIP3    H2 8146   7.758   5.919   2.188
 2735TIP3   OH2 8147   4.343   1.972   6.089
 2735TIP3    H1 8148   4.418   2.024   6.062
 2735TIP3    H2 8149   4.270   2.034   6.091
 2736TIP3   OH2 8150   7.260   2.174   5.638
 2736TIP3    H1 8151   7.262   2.105   5.573
 2736TIP3    H2 8152   7.231   2.252   5.590
 2737TIP3   OH2 8153   0.386   2.618   3.152
 2737TIP3    H1 8154   0.421   2.559   3.085
 2737TIP3    H2 8155   0.353   2.693   3.102
 2738TIP3   OH2 8156   4.800   5.304   3.617
 2738TIP3    H1 8157   4.809   5.236   3.550
 2738TIP3    H2 8158   4.869   5.368   3.595
 2739TIP3   OH2 8159   0.400   1.877   0.354
 2739TIP3    H1 8160   0.337   1.823   0.401
 2739TIP3    H2 8161   0.442   1.816   0.293
 2740TIP3   OH2 8162   2.511   2.799   4.678
 2740TIP3    H1 8163   2.579   2.867   4.675
 2740TIP3    H2 8164   2.559   2.718   4.661
 2741TIP3   OH2 8165   6.415   3.196   0.376
 2741TIP3    H1 8166   6.381   3.178   0.464
 2741TIP3    H2 8167   6.509   3.182   0.384
 2742TIP3   OH2 8168   0.373   4.701   2.221
 2742TIP3    H1 8169   0.296   4.679   2.168
 2742TIP3    H2 8170   0.336   4.725   2.306
 2743TIP3   OH2 8171   4.822   4.878   2.976
 2743TIP3    H1 8172   4.799   4.956   2.925
 2743TIP3    H2 8173   4.818   4.908   3.067
 2744TIP3   OH2 8174   6.129   2.257   5.321
 2744TIP3    H1 8175   6.212   2.235   5.279
 2744TIP3    H2 8176   6.146   2.244   5.415
 2745TIP3   OH2 8177   6.055   7.190   1.531
 2745TIP3    H1 8178   6.032   7.278   1.502
 2745TIP3    H2 8179   5.992   7.171   1.602
 2746TIP3   OH2 8180   7.824   4.020   1.170
 2746TIP3    H1 8181   7.848   3.945   1.116
 2746TIP3    H2 8182   7.788   4.084   1.108
 2747TIP3   OH2 8183   8.276   5.544   2.244
 2747TIP3    H1 8184   8.290   5.626   2.198
 2747TIP3    H2 8185   8.307   5.561   2.333
 2748TIP3   OH2 8186   5.486   3.895   2.466
 2748TIP3    H1 8187   5.531   3.979   2.475
 2748TIP3    H2 8188   5.403   3.917   2.424
 2749TIP3   OH2 8189   3.800   5.479   2.183
 2749TIP3    H1 8190   3.733   5.440   2.239
 2749TIP3    H2 8191   3.781   5.573   2.184
 2750TIP3   OH2 8192   7.359   4.218   2.443
 2750TIP3    H1 8193   7.407   4.176   2.514
 2750TIP3    H2 8194   7.411   4.200   2.365
 2751TIP3   OH2 8195   7.706   0.556   3.316
 2751TIP3    H1 8196   7.716   0.478   3.370
 2751TIP3    H2 8197   7.758   0.623   3.361
 2752TIP3   OH2 8198   3.075   5.816   5.676
 2752TIP3    H1 8199   3.068   5.798   5.582
 2752TIP3    H2 8200   3.161   5.857   5.686
 2753TIP3   OH2 8201   5.084   6.096   4.464
 2753TIP3    H1 8202   5.171   6.106   4.503
 2753TIP3    H2 8203   5.079   6.003   4.442
 2754TIP3   OH2 8204   0.340   5.375   2.768
 2754TIP3    H1 8205   0.298   5.461   2.757
 2754TIP3    H2 8206   0.284   5.330   2.832
 2755TIP3   OH2 8207   3.111   0.452   5.144
 2755TIP3    H1 8208   3.095   0.547   5.142
 2755TIP3    H2 8209   3.038   0.417   5.195
 2756TIP3   OH2 8210   3.520   4.180   0.761
 2756TIP3    H1 8211   3.532   4.250   0.825
 2756TIP3    H2 8212   3.592   4.119   0.780
 2757TIP3   OH2 8213   1.469   0.803   2.881
 2757TIP3    H1 8214   1.441   0.879   2.830
 2757TIP3    H2 8215   1.523   0.839   2.951
 2758TIP3   OH2 8216   5.574   6.036   6.013
 2758TIP3    H1 8217   5.541   6.124   5.997
 2758TIP3    H2 8218   5.495   5.980   6.013
 2759TIP3   OH2 8219   1.308   1.820   4.063
 2759TIP3    H1 8220   1.397   1.847   4.087
 2759TIP3    H2 8221   1.273   1.894   4.014
 2760TIP3   OH2 8222   7.781   1.975   1.954
 2760TIP3    H1 8223   7.733   1.903   1.995
 2760TIP3    H2 8224   7.726   2.002   1.881
 2761TIP3   OH2 8225   5.937   5.125   4.156
 2761TIP3    H1 8226   5.887   5.164   4.228
 2761TIP3    H2 8227   5.983   5.052   4.197
 2762TIP3   OH2 8228   5.122   2.702   3.701
 2762TIP3    H1 8229   5.062   2.641   3.744
 2762TIP3    H2 8230   5.203   2.653   3.691
 2763TIP3   OH2 8231   0.465   0.614   3.090
 2763TIP3    H1 8232   0.388   0.557   3.082
 2763TIP3    H2 8233   0.466   0.665   3.009
 2764TIP3   OH2 8234   3.733   4.817   2.043
 2764TIP3    H1 8235   3.724   4.906   2.010
 2764TIP3    H2 8236   3.825   4.811   2.072
 2765TIP3   OH2 8237   1.649   1.800   3.548
 2765TIP3    H1 8238   1.702   1.835   3.477
 2765TIP3    H2 8239   1.559   1.809   3.517
 2766TIP3   OH2 8240   1.644   6.552   6.396
 2766TIP3    H1 8241   1.597   6.633   6.416
 2766TIP3    H2 8242   1.711   6.578   6.332
 2767TIP3   OH2 8243   7.615   1.304   1.977
 2767TIP3    H1 8244   7.645   1.395   1.975
 2767TIP3    H2 8245   7.519   1.311   1.975
 2768TIP3   OH2 8246   5.649   6.646   3.175
 2768TIP3    H1 8247   5.613   6.558   3.185
 2768TIP3    H2 8248   5.729   6.645   3.227
 2769TIP3   OH2 8249   5.232   4.935   5.591
 2769TIP3    H1 8250   5.297   5.002   5.614
 2769TIP3    H2 8251   5.203   4.901   5.676
 2770TIP3   OH2 8252   7.461   1.406   0.997
 2770TIP3    H1 8253   7.556   1.397   0.999
 2770TIP3    H2 8254   7.443   1.492   1.035
 2771TIP3   OH2 8255   0.700   3.797   6.201
 2771TIP3    H1 8256   0.698   3.741   6.278
 2771TIP3    H2 8257   0.757   3.870   6.225
 2772TIP3   OH2 8258   0.706   3.583   6.385
 2772TIP3    H1 8259   0.706   3.566   6.479
 2772TIP3    H2 8260   0.795   3.612   6.365
 2773TIP3   OH2 8261   8.201   2.412   2.658
 2773TIP3    H1 8262   8.109   2.436   2.660
 2773TIP3    H2 8263   8.245   2.486   2.617
 2774TIP3   OH2 8264   6.744   3.763   5.506
 2774TIP3    H1 8265   6.680   3.698   5.534
 2774TIP3    H2 8266   6.718   3.843   5.552
 2775TIP3   OH2 8267   4.209   2.342   1.570
 2775TIP3    H1 8268   4.290   2.343   1.520
 2775TIP3    H2 8269   4.140   2.355   1.505
 2776TIP3   OH2 8270   7.025   2.863   0.019
 2776TIP3    H1 8271   6.935   2.895   0.025
 2776TIP3    H2 8272   7.025   2.807  -0.059
 2777TIP3   OH2 8273   6.132   6.921   1.691
 2777TIP3    H1 8274   6.038   6.939   1.703
 2777TIP3    H2 8275   6.137   6.875   1.608
 2778TIP3   OH2 8276   4.659   3.061   3.099
 2778TIP3    H1 8277   4.640   2.992   3.163
 2778TIP3    H2 8278   4.731   3.111   3.138
 2779TIP3   OH2 8279   4.663   5.799   3.126
 2779TIP3    H1 8280   4.570   5.801   3.147
 2779TIP3    H2 8281   4.697   5.881   3.162
 2780TIP3   OH2 8282   2.945   0.808   5.587
 2780TIP3    H1 8283   3.002   0.884   5.573
 2780TIP3    H2 8284   2.988   0.737   5.540
 2781TIP3   OH2 8285   0.534   2.299   2.470
 2781TIP3    H1 8286   0.588   2.318   2.548
 2781TIP3    H2 8287   0.473   2.231   2.500
 2782TIP3   OH2 8288   4.055   0.592   4.199
 2782TIP3    H1 8289   4.127   0.529   4.195
 2782TIP3    H2 8290   4.084   0.659   4.261
 2783TIP3   OH2 8291   2.300   4.847   1.849
 2783TIP3    H1 8292   2.245   4.873   1.775
 2783TIP3    H2 8293   2.278   4.756   1.865
 2784TIP3   OH2 8294   4.093   1.064   6.323
 2784TIP3    H1 8295   4.131   1.102   6.244
 2784TIP3    H2 8296   4.150   0.989   6.342
 2785TIP3   OH2 8297   1.882   3.021   0.012
 2785TIP3    H1 8298   1.977   3.034   0.005
 2785TIP3    H2 8299   1.844   3.101  -0.024
 2786TIP3   OH2 8300   0.109   3.567   5.487
 2786TIP3    H1 8301   0.167   3.595   5.417
 2786TIP3    H2 8302   0.021   3.578   5.450
 2787TIP3   OH2 8303   2.657   3.533   5.341
 2787TIP3    H1 8304   2.724   3.465   5.339
 2787TIP3    H2 8305   2.703   3.611   5.374
 2788TIP3   OH2 8306   8.072   2.982   5.003
 2788TIP3    H1 8307   8.097   3.074   5.011
 2788TIP3    H2 8308   7.989   2.983   4.955
 2789TIP3   OH2 8309   8.198   2.862   1.201
 2789TIP3    H1 8310   8.257   2.787   1.207
 2789TIP3    H2 8311   8.111   2.824   1.200
 2790TIP3   OH2 8312   1.077   3.787   6.156
 2790TIP3    H1 8313   1.030   3.870   6.147
 2790TIP3    H2 8314   1.122   3.794   6.241
 2791TIP3   OH2 8315   4.102   2.510   5.607
 2791TIP3    H1 8316   4.029   2.448   5.606
 2791TIP3    H2 8317   4.063   2.593   5.634
 2792TIP3   OH2 8318   3.036   2.328   0.459
 2792TIP3    H1 8319   3.089   2.339   0.538
 2792TIP3    H2 8320   3.001   2.239   0.466
 2793TIP3   OH2 8321   6.559   0.175   4.989
 2793TIP3    H1 8322   6.579   0.091   5.032
 2793TIP3    H2 8323   6.467   0.167   4.963
 2794TIP3   OH2 8324   0.079   4.085   6.207
 2794TIP3    H1 8325   0.101   4.081   6.300
 2794TIP3    H2 8326   0.144   4.029   6.164
 2795TIP3   OH2 8327   6.958   3.236   6.755
 2795TIP3    H1 8328   7.052   3.245   6.771
 2795TIP3    H2 8329   6.951   3.228   6.660
 2796TIP3   OH2 8330   7.421   0.155   5.291
 2796TIP3    H1 8331   7.413   0.202   5.374
 2796TIP3    H2 8332   7.493   0.093   5.305
 2797TIP3   OH2 8333   3.940   4.110   4.858
 2797TIP3    H1 8334   3.958   4.039   4.797
 2797TIP3    H2 8335   3.889   4.173   4.807
 2798TIP3   OH2 8336   1.350   4.567   3.869
 2798TIP3    H1 8337   1.352   4.662   3.871
 2798TIP3    H2 8338   1.293   4.543   3.942
 2799TIP3   OH2 8339   7.977   6.958   6.533
 2799TIP3    H1 8340   8.028   6.950   6.453
 2799TIP3    H2 8341   8.025   7.021   6.587
 2800TIP3   OH2 8342   5.098   1.233   2.495
 2800TIP3    H1 8343   5.076   1.171   2.565
 2800TIP3    H2 8344   5.114   1.316   2.540
 2801TIP3   OH2 8345   7.236   3.907   1.123
 2801TIP3    H1 8346   7.280   3.825   1.147
 2801TIP3    H2 8347   7.204   3.941   1.207
 2802TIP3   OH2 8348   6.278   0.738   1.079
 2802TIP3    H1 8349   6.352   0.796   1.094
 2802TIP3    H2 8350   6.211   0.795   1.040
 2803TIP3   OH2 8351   4.085   2.116   2.883
 2803TIP3    H1 8352   4.166   2.152   2.920
 2803TIP3    H2 8353   4.016   2.160   2.933
 2804TIP3   OH2 8354   5.978   4.367   3.899
 2804TIP3    H1 8355   6.053   4.311   3.878
 2804TIP3    H2 8356   5.981   4.375   3.995
 2805TIP3   OH2 8357   2.908   2.319   4.457
 2805TIP3    H1 8358   2.823   2.311   4.415
 2805TIP3    H2 8359   2.905   2.257   4.530
 2806TIP3   OH2 8360   2.783   2.391   5.562
 2806TIP3    H1 8361   2.762   2.409   5.470
 2806TIP3    H2 8362   2.698   2.389   5.606
 2807TIP3   OH2 8363   4.952   5.104   6.432
 2807TIP3    H1 8364   4.978   5.032   6.491
 2807TIP3    H2 8365   4.991   5.182   6.471
 2808TIP3   OH2 8366   1.082   7.007   2.312
 2808TIP3    H1 8367   1.037   6.989   2.230
 2808TIP3    H2 8368   1.119   7.095   2.300
 2809TIP3   OH2 8369   1.436   6.243   6.487
 2809TIP3    H1 8370   1.391   6.309   6.435
 2809TIP3    H2 8371   1.423   6.271   6.578
 2810TIP3   OH2 8372   2.506   3.883   2.894
 2810TIP3    H1 8373   2.530   3.966   2.854
 2810TIP3    H2 8374   2.532   3.816   2.830
 2811TIP3   OH2 8375   4.109   6.805   0.761
 2811TIP3    H1 8376   4.046   6.830   0.828
 2811TIP3    H2 8377   4.059   6.748   0.702
 2812TIP3   OH2 8378   2.111   5.986   0.273
 2812TIP3    H1 8379   2.111   6.080   0.253
 2812TIP3    H2 8380   2.203   5.959   0.261
 2813TIP3   OH2 8381   1.204   5.881   0.313
 2813TIP3    H1 8382   1.144   5.881   0.388
 2813TIP3    H2 8383   1.245   5.967   0.315
 2814TIP3   OH2 8384   6.851   7.091   1.922
 2814TIP3    H1 8385   6.762   7.056   1.923
 2814TIP3    H2 8386   6.857   7.139   1.839
 2815TIP3   OH2 8387   0.447   6.590   0.507
 2815TIP3    H1 8388   0.447   6.644   0.586
 2815TIP3    H2 8389   0.523   6.533   0.517
 2816TIP3   OH2 8390   5.902   4.194   6.246
 2816TIP3    H1 8391   5.849   4.267   6.278
 2816TIP3    H2 8392   5.859   4.167   6.165
 2817TIP3   OH2 8393   5.782   2.200   5.484
 2817TIP3    H1 8394   5.759   2.152   5.405
 2817TIP3    H2 8395   5.723   2.167   5.551
 2818TIP3   OH2 8396   5.917   0.360   0.975
 2818TIP3    H1 8397   5.977   0.325   0.909
 2818TIP3    H2 8398   5.973   0.383   1.049
 2819TIP3   OH2 8399   6.065   6.215   1.934
 2819TIP3    H1 8400   6.049   6.123   1.955
 2819TIP3    H2 8401   6.148   6.215   1.887
 2820TIP3   OH2 8402   8.242   0.479   1.950
 2820TIP3    H1 8403   8.161   0.463   1.997
 2820TIP3    H2 8404   8.268   0.392   1.918
 2821TIP3   OH2 8405   4.968   5.372   6.516
 2821TIP3    H1 8406   4.987   5.444   6.576
 2821TIP3    H2 8407   4.879   5.389   6.485
 2822TIP3   OH2 8408   1.800   0.574   6.753
 2822TIP3    H1 8409   1.780   0.484   6.777
 2822TIP3    H2 8410   1.822   0.570   6.660
 2823TIP3   OH2 8411   6.226   3.093   3.135
 2823TIP3    H1 8412   6.166   3.032   3.092
 2823TIP3    H2 8413   6.218   3.073   3.229
 2824TIP3   OH2 8414   5.980   4.981   5.471
 2824TIP3    H1 8415   5.946   5.061   5.432
 2824TIP3    H2 8416   5.908   4.948   5.525
 2825TIP3   OH2 8417   3.231   7.286   2.070
 2825TIP3    H1 8418   3.143   7.313   2.043
 2825TIP3    H2 8419   3.290   7.342   2.020
 2826TIP3   OH2 8420   3.835   0.070   4.714
 2826TIP3    H1 8421   3.782   0.043   4.639
 2826TIP3    H2 8422   3.886  -0.008   4.736
 2827TIP3   OH2 8423   0.056   5.494   4.200
 2827TIP3    H1 8424   0.035   5.505   4.107
 2827TIP3    H2 8425  -0.028   5.474   4.241
 2828TIP3   OH2 8426   1.322   0.890   1.431
 2828TIP3    H1 8427   1.297   0.798   1.428
 2828TIP3    H2 8428   1.328   0.917   1.339
 2829TIP3   OH2 8429   2.524   3.129   0.520
 2829TIP3    H1 8430   2.490   3.053   0.566
 2829TIP3    H2 8431   2.610   3.146   0.560
 2830TIP3   OH2 8432   6.904   2.579   5.347
 2830TIP3    H1 8433   6.881   2.489   5.370
 2830TIP3    H2 8434   6.988   2.593   5.390
 2831TIP3   OH2 8435   5.828   2.610   0.310
 2831TIP3    H1 8436   5.855   2.542   0.249
 2831TIP3    H2 8437   5.909   2.641   0.350
 2832TIP3   OH2 8438   4.180   3.862   4.715
 2832TIP3    H1 8439   4.272   3.843   4.697
 2832TIP3    H2 8440   4.143   3.887   4.631
 2833TIP3   OH2 8441   0.328   3.703   4.802
 2833TIP3    H1 8442   0.293   3.619   4.773
 2833TIP3    H2 8443   0.404   3.718   4.746
 2834TIP3   OH2 8444   4.718   5.243   3.911
 2834TIP3    H1 8445   4.736   5.273   3.822
 2834TIP3    H2 8446   4.629   5.208   3.907
 2835TIP3   OH2 8447   1.971   7.445   4.572
 2835TIP3    H1 8448   2.060   7.411   4.576
 2835TIP3    H2 8449   1.975   7.517   4.509
 2836TIP3   OH2 8450   2.593   3.683   0.733
 2836TIP3    H1 8451   2.517   3.659   0.787
 2836TIP3    H2 8452   2.638   3.750   0.783
 2837TIP3   OH2 8453   0.337   0.758   5.502
 2837TIP3    H1 8454   0.282   0.679   5.504
 2837TIP3    H2 8455   0.416   0.734   5.549
 2838TIP3   OH2 8456   0.235   4.326   4.561
 2838TIP3    H1 8457   0.246   4.421   4.571
 2838TIP3    H2 8458   0.171   4.302   4.628
 2839TIP3   OH2 8459   1.595   1.842   0.694
 2839TIP3    H1 8460   1.666   1.881   0.745
 2839TIP3    H2 8461   1.534   1.809   0.760
 2840TIP3   OH2 8462   3.849   0.447   3.799
 2840TIP3    H1 8463   3.894   0.521   3.840
 2840TIP3    H2 8464   3.917   0.381   3.787
 2841TIP3   OH2 8465   2.052   3.888   4.719
 2841TIP3    H1 8466   1.988   3.931   4.662
 2841TIP3    H2 8467   2.133   3.885   4.669
 2842TIP3   OH2 8468   7.282   3.744   5.818
 2842TIP3    H1 8469   7.335   3.693   5.757
 2842TIP3    H2 8470   7.197   3.701   5.818
 2843TIP3   OH2 8471   4.877   1.058   2.373
 2843TIP3    H1 8472   4.811   1.124   2.352
 2843TIP3    H2 8473   4.956   1.108   2.391
 2844TIP3   OH2 8474   4.349   3.290   4.415
 2844TIP3    H1 8475   4.324   3.283   4.323
 2844TIP3    H2 8476   4.304   3.218   4.459
 2845TIP3   OH2 8477   4.725   4.633   4.679
 2845TIP3    H1 8478   4.738   4.552   4.728
 2845TIP3    H2 8479   4.798   4.636   4.618
 2846TIP3   OH2 8480   7.372   5.398   4.832
 2846TIP3    H1 8481   7.458   5.418   4.870
 2846TIP3    H2 8482   7.311   5.405   4.906
 2847TIP3   OH2 8483   7.655   0.831   0.074
 2847TIP3    H1 8484   7.593   0.767   0.107
 2847TIP3    H2 8485   7.696   0.788  -0.001
 2848TIP3   OH2 8486   4.053   6.824   3.024
 2848TIP3    H1 8487   4.143   6.811   2.995
 2848TIP3    H2 8488   4.020   6.895   2.969
 2849TIP3   OH2 8489   2.999   0.497   5.555
 2849TIP3    H1 8490   2.987   0.500   5.650
 2849TIP3    H2 8491   3.089   0.467   5.542
 2850TIP3   OH2 8492   7.777   1.901   4.365
 2850TIP3    H1 8493   7.689   1.922   4.334
 2850TIP3    H2 8494   7.766   1.823   4.418
 2851TIP3   OH2 8495   1.094   7.286   6.097
 2851TIP3    H1 8496   1.082   7.381   6.086
 2851TIP3    H2 8497   1.144   7.259   6.020
 2852TIP3   OH2 8498   6.463   2.736   0.046
 2852TIP3    H1 8499   6.543   2.742   0.098
 2852TIP3    H2 8500   6.459   2.819  -0.002
 2853TIP3   OH2 8501   6.762   3.563   6.582
 2853TIP3    H1 8502   6.685   3.567   6.525
 2853TIP3    H2 8503   6.770   3.470   6.604
 2854TIP3   OH2 8504   4.699   3.043   4.102
 2854TIP3    H1 8505   4.734   3.077   4.020
 2854TIP3    H2 8506   4.768   3.060   4.166
 2855TIP3   OH2 8507   8.133   3.228   0.180
 2855TIP3    H1 8508   8.138   3.145   0.133
 2855TIP3    H2 8509   8.191   3.286   0.132
 2856TIP3   OH2 8510   4.156   6.410   0.042
 2856TIP3    H1 8511   4.231   6.434  -0.013
 2856TIP3    H2 8512   4.117   6.335  -0.003
 2857TIP3   OH2 8513   4.890   0.097   1.004
 2857TIP3    H1 8514   4.846   0.138   1.078
 2857TIP3    H2 8515   4.832   0.025   0.979
 2858TIP3   OH2 8516   0.937   0.343   0.823
 2858TIP3    H1 8517   0.944   0.253   0.855
 2858TIP3    H2 8518   0.984   0.343   0.740
 2859TIP3   OH2 8519   2.647   3.028   5.644
 2859TIP3    H1 8520   2.558   2.999   5.625
 2859TIP3    H2 8521   2.680   2.964   5.706
 2860TIP3   OH2 8522   6.080   5.121   6.099
 2860TIP3    H1 8523   6.057   5.055   6.034
 2860TIP3    H2 8524   6.136   5.183   6.051
 2861TIP3   OH2 8525   0.629   6.803   3.783
 2861TIP3    H1 8526   0.636   6.864   3.856
 2861TIP3    H2 8527   0.629   6.717   3.824
 2862TIP3   OH2 8528   8.108   6.500   0.132
 2862TIP3    H1 8529   8.200   6.477   0.142
 2862TIP3    H2 8530   8.091   6.561   0.204
 2863TIP3   OH2 8531   8.014   7.253   2.447
 2863TIP3    H1 8532   7.927   7.224   2.418
 2863TIP3    H2 8533   8.055   7.175   2.484
 2864TIP3   OH2 8534   1.873   4.381   4.355
 2864TIP3    H1 8535   1.950   4.380   4.298
 2864TIP3    H2 8536   1.804   4.421   4.303
 2865TIP3   OH2 8537   1.319   0.241   6.690
 2865TIP3    H1 8538   1.358   0.233   6.604
 2865TIP3    H2 8539   1.238   0.190   6.685
 2866TIP3   OH2 8540   7.031   7.408   4.893
 2866TIP3    H1 8541   7.100   7.344   4.907
 2866TIP3    H2 8542   7.041   7.435   4.801
 2867TIP3   OH2 8543   7.715   4.802   6.363
 2867TIP3    H1 8544   7.627   4.789   6.329
 2867TIP3    H2 8545   7.702   4.845   6.447
 2868TIP3   OH2 8546   3.904   6.048   2.234
 2868TIP3    H1 8547   3.931   6.023   2.146
 2868TIP3    H2 8548   3.968   6.113   2.263
 2869TIP3   OH2 8549   4.836   1.078   0.435
 2869TIP3    H1 8550   4.907   1.019   0.459
 2869TIP3    H2 8551   4.807   1.116   0.518
 2870TIP3   OH2 8552   6.285   3.007   2.822
 2870TIP3    H1 8553   6.244   3.043   2.743
 2870TIP3    H2 8554   6.218   2.951   2.861
 2871TIP3   OH2 8555   4.417   0.351   1.418
 2871TIP3    H1 8556   4.329   0.372   1.387
 2871TIP3    H2 8557   4.426   0.257   1.405
 2872TIP3   OH2 8558   4.283   6.872   4.351
 2872TIP3    H1 8559   4.360   6.869   4.293
 2872TIP3    H2 8560   4.250   6.783   4.351
 2873TIP3   OH2 8561   7.396   3.988   4.222
 2873TIP3    H1 8562   7.425   4.032   4.142
 2873TIP3    H2 8563   7.420   3.897   4.210
 2874TIP3   OH2 8564   7.743   0.269   1.502
 2874TIP3    H1 8565   7.741   0.216   1.422
 2874TIP3    H2 8566   7.777   0.354   1.475
 2875TIP3   OH2 8567   6.110   1.153   4.583
 2875TIP3    H1 8568   6.144   1.084   4.640
 2875TIP3    H2 8569   6.015   1.147   4.591
 2876TIP3   OH2 8570   1.233   4.380   2.741
 2876TIP3    H1 8571   1.162   4.416   2.795
 2876TIP3    H2 8572   1.197   4.376   2.653
 2877TIP3   OH2 8573   1.458   5.662   1.366
 2877TIP3    H1 8574   1.376   5.618   1.389
 2877TIP3    H2 8575   1.436   5.756   1.368
 2878TIP3   OH2 8576   0.893   2.792   2.119
 2878TIP3    H1 8577   0.815   2.737   2.114
 2878TIP3    H2 8578   0.904   2.810   2.213
 2879TIP3   OH2 8579   7.080   3.400   2.172
 2879TIP3    H1 8580   7.074   3.361   2.259
 2879TIP3    H2 8581   7.137   3.340   2.123
 2880TIP3   OH2 8582   3.248   5.381   5.394
 2880TIP3    H1 8583   3.309   5.357   5.463
 2880TIP3    H2 8584   3.274   5.328   5.319
 2881TIP3   OH2 8585   6.534   0.066   4.681
 2881TIP3    H1 8586   6.515   0.056   4.588
 2881TIP3    H2 8587   6.568   0.155   4.690
 2882TIP3   OH2 8588   1.539   5.317   0.217
 2882TIP3    H1 8589   1.498   5.397   0.185
 2882TIP3    H2 8590   1.616   5.347   0.265
 2883TIP3   OH2 8591   4.332   6.066   0.191
 2883TIP3    H1 8592   4.350   5.978   0.224
 2883TIP3    H2 8593   4.244   6.061   0.153
 2884TIP3   OH2 8594   6.831   7.247   4.989
 2884TIP3    H1 8595   6.832   7.320   5.050
 2884TIP3    H2 8596   6.888   7.275   4.917
 2885TIP3   OH2 8597   7.882   1.070   1.556
 2885TIP3    H1 8598   7.815   1.087   1.621
 2885TIP3    H2 8599   7.904   1.156   1.520
 2886TIP3   OH2 8600   3.366   1.584   3.770
 2886TIP3    H1 8601   3.425   1.516   3.738
 2886TIP3    H2 8602   3.397   1.665   3.729
 2887TIP3   OH2 8603   7.420   3.479   2.195
 2887TIP3    H1 8604   7.396   3.513   2.281
 2887TIP3    H2 8605   7.503   3.523   2.175
 2888TIP3   OH2 8606   1.486   2.597   4.903
 2888TIP3    H1 8607   1.472   2.663   4.834
 2888TIP3    H2 8608   1.402   2.589   4.946
 2889TIP3   OH2 8609   6.202   0.249   1.188
 2889TIP3    H1 8610   6.199   0.341   1.162
 2889TIP3    H2 8611   6.162   0.247   1.275
 2890TIP3   OH2 8612   2.149   4.403   0.338
 2890TIP3    H1 8613   2.197   4.468   0.286
 2890TIP3    H2 8614   2.206   4.326   0.340
 2891TIP3   OH2 8615   2.632   3.781   5.685
 2891TIP3    H1 8616   2.589   3.864   5.704
 2891TIP3    H2 8617   2.717   3.787   5.728
 2892TIP3   OH2 8618   1.165   2.675   3.356
 2892TIP3    H1 8619   1.220   2.597   3.347
 2892TIP3    H2 8620   1.075   2.641   3.352
 2893TIP3   OH2 8621   0.565   0.201   0.061
 2893TIP3    H1 8622   0.555   0.214  -0.033
 2893TIP3    H2 8623   0.494   0.251   0.100
 2894TIP3   OH2 8624   4.710   5.675   4.283
 2894TIP3    H1 8625   4.725   5.765   4.312
 2894TIP3    H2 8626   4.753   5.621   4.348
 2895TIP3   OH2 8627   8.132   2.062   3.315
 2895TIP3    H1 8628   8.104   2.061   3.406
 2895TIP3    H2 8629   8.177   2.146   3.304
 2896TIP3   OH2 8630   6.156   4.807   5.772
 2896TIP3    H1 8631   6.201   4.856   5.840
 2896TIP3    H2 8632   6.214   4.811   5.697
 2897TIP3   OH2 8633   2.984   4.735   2.063
 2897TIP3    H1 8634   2.995   4.720   2.157
 2897TIP3    H2 8635   2.901   4.782   2.056
 2898TIP3   OH2 8636   6.787   4.710   5.721
 2898TIP3    H1 8637   6.698   4.678   5.703
 2898TIP3    H2 8638   6.776   4.803   5.737
 2899TIP3   OH2 8639   0.389   3.532   2.425
 2899TIP3    H1 8640   0.443   3.596   2.379
 2899TIP3    H2 8641   0.430   3.447   2.405
 2900TIP3   OH2 8642   0.664   6.277   5.379
 2900TIP3    H1 8643   0.626   6.292   5.293
 2900TIP3    H2 8644   0.748   6.234   5.362
 2901TIP3   OH2 8645   5.421   6.035   5.007
 2901TIP3    H1 8646   5.335   6.066   4.977
 2901TIP3    H2 8647   5.482   6.062   4.939
 2902TIP3   OH2 8648   5.795   0.788   3.191
 2902TIP3    H1 8649   5.810   0.763   3.100
 2902TIP3    H2 8650   5.873   0.758   3.237
 2903TIP3   OH2 8651   5.778   5.849   3.522
 2903TIP3    H1 8652   5.799   5.760   3.551
 2903TIP3    H2 8653   5.683   5.847   3.506
 2904TIP3   OH2 8654   3.210   2.017   5.799
 2904TIP3    H1 8655   3.261   2.084   5.753
 2904TIP3    H2 8656   3.132   2.005   5.744
 2905TIP3   OH2 8657   2.560   5.920   2.989
 2905TIP3    H1 8658   2.651   5.947   2.999
 2905TIP3    H2 8659   2.524   5.925   3.078
 2906TIP3   OH2 8660   3.231   6.441   3.891
 2906TIP3    H1 8661   3.256   6.521   3.844
 2906TIP3    H2 8662   3.192   6.473   3.973
 2907TIP3   OH2 8663   8.250   5.776   6.293
 2907TIP3    H1 8664   8.308   5.850   6.275
 2907TIP3    H2 8665   8.254   5.765   6.388
 2908TIP3   OH2 8666   2.188   4.624   3.409
 2908TIP3    H1 8667   2.113   4.578   3.446
 2908TIP3    H2 8668   2.150   4.695   3.357
 2909TIP3   OH2 8669   7.622   4.769   1.029
 2909TIP3    H1 8670   7.602   4.675   1.034
 2909TIP3    H2 8671   7.538   4.812   1.043
 2910TIP3   OH2 8672   7.859   5.872   1.836
 2910TIP3    H1 8673   7.823   5.901   1.752
 2910TIP3    H2 8674   7.787   5.823   1.877
 2911TIP3   OH2 8675   7.684   7.491   3.608
 2911TIP3    H1 8676   7.746   7.506   3.536
 2911TIP3    H2 8677   7.626   7.567   3.605
 2912TIP3   OH2 8678   4.720   0.742   5.193
 2912TIP3    H1 8679   4.686   0.735   5.103
 2912TIP3    H2 8680   4.808   0.777   5.182
 2913TIP3   OH2 8681   6.230   5.766   2.274
 2913TIP3    H1 8682   6.145   5.810   2.268
 2913TIP3    H2 8683   6.264   5.767   2.185
 2914TIP3   OH2 8684   6.003   4.606   3.737
 2914TIP3    H1 8685   5.961   4.593   3.652
 2914TIP3    H2 8686   5.994   4.521   3.781
 2915TIP3   OH2 8687   2.524   4.721   1.545
 2915TIP3    H1 8688   2.589   4.698   1.479
 2915TIP3    H2 8689   2.577   4.750   1.620
 2916TIP3   OH2 8690   6.839   0.246   2.186
 2916TIP3    H1 8691   6.769   0.189   2.217
 2916TIP3    H2 8692   6.851   0.223   2.094
 2917TIP3   OH2 8693   3.663   3.328   5.687
 2917TIP3    H1 8694   3.626   3.367   5.766
 2917TIP3    H2 8695   3.696   3.243   5.714
 2918TIP3   OH2 8696   7.419   5.688   2.936
 2918TIP3    H1 8697   7.463   5.616   2.981
 2918TIP3    H2 8698   7.430   5.668   2.843
 2919TIP3   OH2 8699   1.840   3.674   0.145
 2919TIP3    H1 8700   1.816   3.626   0.225
 2919TIP3    H2 8701   1.910   3.733   0.174
 2920TIP3   OH2 8702   6.267   6.690   0.010
 2920TIP3    H1 8703   6.337   6.737  -0.036
 2920TIP3    H2 8704   6.191   6.700  -0.047
 2921TIP3   OH2 8705   6.171   2.550   4.899
 2921TIP3    H1 8706   6.219   2.517   4.823
 2921TIP3    H2 8707   6.197   2.492   4.971
 2922TIP3   OH2 8708   6.670   7.778   1.768
 2922TIP3    H1 8709   6.673   7.686   1.744
 2922TIP3    H2 8710   6.746   7.817   1.725
 2923TIP3   OH2 8711   1.573   6.291   1.034
 2923TIP3    H1 8712   1.622   6.292   0.952
 2923TIP3    H2 8713   1.637   6.265   1.100
 2924TIP3   OH2 8714   8.149   0.976   0.552
 2924TIP3    H1 8715   8.211   0.967   0.480
 2924TIP3    H2 8716   8.102   0.892   0.552
 2925TIP3   OH2 8717   3.775   5.068   6.597
 2925TIP3    H1 8718   3.756   5.144   6.542
 2925TIP3    H2 8719   3.736   5.089   6.682
 2926TIP3   OH2 8720   3.721   6.438   6.021
 2926TIP3    H1 8721   3.693   6.523   5.988
 2926TIP3    H2 8722   3.645   6.405   6.069
 2927TIP3   OH2 8723   1.030   1.458   0.359
 2927TIP3    H1 8724   1.068   1.544   0.373
 2927TIP3    H2 8725   0.968   1.471   0.287
 2928TIP3   OH2 8726   6.563   6.925   3.964
 2928TIP3    H1 8727   6.633   6.948   4.026
 2928TIP3    H2 8728   6.496   6.883   4.018
 2929TIP3   OH2 8729   4.640   1.161   4.041
 2929TIP3    H1 8730   4.715   1.105   4.060
 2929TIP3    H2 8731   4.660   1.200   3.956
 2930TIP3   OH2 8732   1.016   3.053   4.160
 2930TIP3    H1 8733   1.032   3.026   4.251
 2930TIP3    H2 8734   1.052   2.981   4.107
 2931TIP3   OH2 8735   6.336   2.294   1.792
 2931TIP3    H1 8736   6.387   2.233   1.845
 2931TIP3    H2 8737   6.267   2.241   1.754
 2932TIP3   OH2 8738   4.718   4.655   3.449
 2932TIP3    H1 8739   4.649   4.721   3.442
 2932TIP3    H2 8740   4.794   4.703   3.482
 2933TIP3   OH2 8741   0.738   2.617   5.762
 2933TIP3    H1 8742   0.675   2.545   5.762
 2933TIP3    H2 8743   0.809   2.586   5.706
 2934TIP3   OH2 8744   4.065   3.650   3.066
 2934TIP3    H1 8745   4.028   3.619   3.149
 2934TIP3    H2 8746   4.152   3.682   3.088
 2935TIP3   OH2 8747   3.537   4.924   0.805
 2935TIP3    H1 8748   3.451   4.962   0.822
 2935TIP3    H2 8749   3.599   4.993   0.829
 2936TIP3   OH2 8750   2.044   4.474   0.908
 2936TIP3    H1 8751   2.046   4.443   0.998
 2936TIP3    H2 8752   2.016   4.565   0.915
 2937TIP3   OH2 8753   2.793   5.731   2.259
 2937TIP3    H1 8754   2.845   5.667   2.211
 2937TIP3    H2 8755   2.827   5.729   2.348
 2938TIP3   OH2 8756   5.535   0.721   1.068
 2938TIP3    H1 8757   5.591   0.799   1.064
 2938TIP3    H2 8758   5.582   0.654   1.019
 2939TIP3   OH2 8759   8.046   2.775   0.606
 2939TIP3    H1 8760   8.114   2.770   0.539
 2939TIP3    H2 8761   8.031   2.683   0.631
 2940TIP3   OH2 8762   5.259   2.922   3.638
 2940TIP3    H1 8763   5.255   2.922   3.542
 2940TIP3    H2 8764   5.227   2.835   3.663
 2941TIP3   OH2 8765   7.289   3.888   2.833
 2941TIP3    H1 8766   7.212   3.894   2.776
 2941TIP3    H2 8767   7.257   3.839   2.909
 2942TIP3   OH2 8768   3.153   6.153   1.514
 2942TIP3    H1 8769   3.081   6.196   1.559
 2942TIP3    H2 8770   3.113   6.079   1.469
 2943TIP3   OH2 8771   1.671   4.653   0.849
 2943TIP3    H1 8772   1.755   4.699   0.855
 2943TIP3    H2 8773   1.693   4.565   0.820
 2944TIP3   OH2 8774   0.648   6.599   3.083
 2944TIP3    H1 8775   0.600   6.518   3.102
 2944TIP3    H2 8776   0.608   6.632   3.002
 2945TIP3   OH2 8777   6.036   0.200   0.647
 2945TIP3    H1 8778   5.947   0.215   0.616
 2945TIP3    H2 8779   6.083   0.164   0.571
 2946TIP3   OH2 8780   2.863   7.632   6.331
 2946TIP3    H1 8781   2.889   7.719   6.300
 2946TIP3    H2 8782   2.843   7.583   6.251
 2947TIP3   OH2 8783   5.884   2.293   3.721
 2947TIP3    H1 8784   5.890   2.197   3.724
 2947TIP3    H2 8785   5.847   2.317   3.806
 2948TIP3   OH2 8786   5.973   3.158   5.045
 2948TIP3    H1 8787   6.069   3.150   5.048
 2948TIP3    H2 8788   5.949   3.123   4.959
 2949TIP3   OH2 8789   7.880   2.138   0.880
 2949TIP3    H1 8790   7.903   2.212   0.825
 2949TIP3    H2 8791   7.789   2.118   0.856
 2950TIP3   OH2 8792   4.974   6.079   6.127
 2950TIP3    H1 8793   4.899   6.019   6.125
 2950TIP3    H2 8794   4.989   6.102   6.036
 2951TIP3   OH2 8795   2.060   2.491   0.780
 2951TIP3    H1 8796   1.990   2.448   0.829
 2951TIP3    H2 8797   2.017   2.564   0.736
 2952TIP3   OH2 8798   0.330   1.987   5.209
 2952TIP3    H1 8799   0.254   1.999   5.265
 2952TIP3    H2 8800   0.342   1.892   5.205
 2953TIP3   OH2 8801   0.626   7.687   5.146
 2953TIP3    H1 8802   0.589   7.730   5.069
 2953TIP3    H2 8803   0.656   7.759   5.201
 2954TIP3   OH2 8804   3.332   6.168   3.831
 2954TIP3    H1 8805   3.300   6.186   3.919
 2954TIP3    H2 8806   3.256   6.182   3.774
 2955TIP3   OH2 8807   0.036   4.097   5.247
 2955TIP3    H1 8808  -0.001   4.184   5.258
 2955TIP3    H2 8809  -0.025   4.039   5.292
 2956TIP3   OH2 8810   3.895   4.460   5.368
 2956TIP3    H1 8811   3.927   4.421   5.449
 2956TIP3    H2 8812   3.826   4.520   5.396
 2957TIP3   OH2 8813   5.067   1.441   4.713
 2957TIP3    H1 8814   5.026   1.527   4.724
 2957TIP3    H2 8815   5.051   1.417   4.622
 2958TIP3   OH2 8816   5.470   6.484   5.614
 2958TIP3    H1 8817   5.505   6.492   5.526
 2958TIP3    H2 8818   5.443   6.573   5.638
 2959TIP3   OH2 8819   3.424   3.387   5.881
 2959TIP3    H1 8820   3.459   3.476   5.882
 2959TIP3    H2 8821   3.375   3.382   5.798
 2960TIP3   OH2 8822   4.197   4.590   0.963
 2960TIP3    H1 8823   4.133   4.647   1.005
 2960TIP3    H2 8824   4.279   4.607   1.010
 2961TIP3   OH2 8825   2.220   3.685   3.036
 2961TIP3    H1 8826   2.202   3.620   2.968
 2961TIP3    H2 8827   2.278   3.640   3.097
 2962TIP3   OH2 8828   2.490   5.795   3.257
 2962TIP3    H1 8829   2.485   5.699   3.263
 2962TIP3    H2 8830   2.513   5.823   3.345
 2963TIP3   OH2 8831   0.795   6.462   1.560
 2963TIP3    H1 8832   0.863   6.527   1.540
 2963TIP3    H2 8833   0.842   6.382   1.580
 2964TIP3   OH2 8834   5.445   1.469   0.890
 2964TIP3    H1 8835   5.473   1.378   0.880
 2964TIP3    H2 8836   5.368   1.465   0.946
 2965TIP3   OH2 8837   3.419   4.138   1.850
 2965TIP3    H1 8838   3.468   4.148   1.932
 2965TIP3    H2 8839   3.349   4.077   1.871
 2966TIP3   OH2 8840   5.616   3.268   3.619
 2966TIP3    H1 8841   5.537   3.231   3.660
 2966TIP3    H2 8842   5.584   3.315   3.543
 2967TIP3   OH2 8843   3.272   7.444   2.784
 2967TIP3    H1 8844   3.260   7.349   2.782
 2967TIP3    H2 8845   3.309   7.464   2.698
 2968TIP3   OH2 8846   2.034   4.576   6.623
 2968TIP3    H1 8847   1.970   4.638   6.660
 2968TIP3    H2 8848   1.984   4.526   6.559
 2969TIP3   OH2 8849   5.209   2.836   6.679
 2969TIP3    H1 8850   5.293   2.843   6.632
 2969TIP3    H2 8851   5.149   2.799   6.614
 2970TIP3   OH2 8852   2.936   7.634   3.543
 2970TIP3    H1 8853   2.885   7.619   3.623
 2970TIP3    H2 8854   2.895   7.579   3.477
 2971TIP3   OH2 8855   8.081   7.275   5.307
 2971TIP3    H1 8856   8.156   7.216   5.314
 2971TIP3    H2 8857   8.119   7.359   5.281
 2972TIP3   OH2 8858   1.355   1.062   4.650
 2972TIP3    H1 8859   1.290   1.113   4.602
 2972TIP3    H2 8860   1.394   1.124   4.712
 2973TIP3   OH2 8861   1.686   3.720   1.272
 2973TIP3    H1 8862   1.658   3.779   1.202
 2973TIP3    H2 8863   1.763   3.762   1.310
 2974TIP3   OH2 8864   6.982   4.779   4.378
 2974TIP3    H1 8865   7.018   4.856   4.334
 2974TIP3    H2 8866   6.916   4.746   4.317
 2975TIP3   OH2 8867   3.115   4.067   5.881
 2975TIP3    H1 8868   3.210   4.071   5.872
 2975TIP3    H2 8869   3.100   3.998   5.945
 2976TIP3   OH2 8870   0.436   5.950   2.769
 2976TIP3    H1 8871   0.482   6.033   2.758
 2976TIP3    H2 8872   0.382   5.963   2.847
 2977TIP3   OH2 8873   6.569   1.182   2.234
 2977TIP3    H1 8874   6.629   1.216   2.167
 2977TIP3    H2 8875   6.572   1.246   2.304
 2978TIP3   OH2 8876   1.896   4.866   4.421
 2978TIP3    H1 8877   1.966   4.929   4.407
 2978TIP3    H2 8878   1.855   4.856   4.335
 2979TIP3   OH2 8879   2.816   6.670   1.773
 2979TIP3    H1 8880   2.795   6.717   1.854
 2979TIP3    H2 8881   2.898   6.709   1.743
 2980TIP3   OH2 8882   3.898   0.456   3.205
 2980TIP3    H1 8883   3.812   0.446   3.163
 2980TIP3    H2 8884   3.900   0.548   3.232
 2981TIP3   OH2 8885   3.268   6.483   2.319
 2981TIP3    H1 8886   3.184   6.460   2.360
 2981TIP3    H2 8887   3.286   6.572   2.350
 2982TIP3   OH2 8888   3.309   7.798   2.791
 2982TIP3    H1 8889   3.265   7.743   2.855
 2982TIP3    H2 8890   3.390   7.751   2.770
 2983TIP3   OH2 8891   0.236   6.663   4.144
 2983TIP3    H1 8892   0.146   6.668   4.112
 2983TIP3    H2 8893   0.271   6.752   4.130
 2984TIP3   OH2 8894   3.258   7.079   5.808
 2984TIP3    H1 8895   3.206   7.026   5.747
 2984TIP3    H2 8896   3.193   7.121   5.864
 2985TIP3   OH2 8897   0.136   6.517   0.897
 2985TIP3    H1 8898   0.161   6.467   0.819
 2985TIP3    H2 8899   0.046   6.488   0.915
 2986TIP3   OH2 8900   0.932   4.895   0.659
 2986TIP3    H1 8901   0.969   4.946   0.732
 2986TIP3    H2 8902   0.852   4.942   0.636
 2987TIP3   OH2 8903   4.702   6.454   0.971
 2987TIP3    H1 8904   4.760   6.519   0.929
 2987TIP3    H2 8905   4.626   6.505   0.999
 2988TIP3   OH2 8906   2.571   7.378   0.042
 2988TIP3    H1 8907   2.493   7.352  -0.007
 2988TIP3    H2 8908   2.536   7.421   0.121
 2989TIP3   OH2 8909   4.801   0.833   4.532
 2989TIP3    H1 8910   4.783   0.881   4.613
 2989TIP3    H2 8911   4.895   0.841   4.520
 2990TIP3   OH2 8912   5.231   5.724   0.497
 2990TIP3    H1 8913   5.186   5.722   0.412
 2990TIP3    H2 8914   5.286   5.803   0.494
 2991TIP3   OH2 8915   2.079   5.111   0.764
 2991TIP3    H1 8916   2.092   5.046   0.695
 2991TIP3    H2 8917   2.122   5.074   0.841
 2992TIP3   OH2 8918   2.111   3.524   0.959
 2992TIP3    H1 8919   2.019   3.549   0.950
 2992TIP3    H2 8920   2.114   3.474   1.041
 2993TIP3   OH2 8921   2.183   5.387   0.332
 2993TIP3    H1 8922   2.136   5.438   0.398
 2993TIP3    H2 8923   2.273   5.418   0.337
 2994TIP3   OH2 8924   7.876   7.807   3.243
 2994TIP3    H1 8925   7.945   7.803   3.176
 2994TIP3    H2 8926   7.881   7.897   3.275
 2995TIP3   OH2 8927   2.815   0.504   3.505
 2995TIP3    H1 8928   2.721   0.525   3.509
 2995TIP3    H2 8929   2.818   0.408   3.509
 2996TIP3   OH2 8930   5.923   1.943   3.422
 2996TIP3    H1 8931   5.981   1.878   3.460
 2996TIP3    H2 8932   5.842   1.895   3.403
 2997TIP3   OH2 8933   1.542   1.565   6.486
 2997TIP3    H1 8934   1.527   1.520   6.403
 2997TIP3    H2 8935   1.468   1.539   6.541
 2998TIP3   OH2 8936   4.379   0.532   6.065
 2998TIP3    H1 8937   4.438   0.506   5.994
 2998TIP3    H2 8938   4.297   0.487   6.046
 2999TIP3   OH2 8939   6.179   7.780   1.316
 2999TIP3    H1 8940   6.204   7.738   1.399
 2999TIP3    H2 8941   6.084   7.767   1.311
 3000TIP3   OH2 8942   4.923   7.506   2.966
 3000TIP3    H1 8943   4.958   7.513   3.055
 3000TIP3    H2 8944   4.902   7.596   2.941
 3001TIP3   OH2 8945   8.288   2.522   6.334
 3001TIP3    H1 8946   8.291   2.617   6.319
 3001TIP3    H2 8947   8.267   2.513   6.427
 3002TIP3   OH2 8948   2.785   4.924   2.097
 3002TIP3    H1 8949   2.804   4.977   2.174
 3002TIP3    H2 8950   2.702   4.881   2.117
 3003TIP3   OH2 8951   5.004   2.830   0.250
 3003TIP3    H1 8952   4.920   2.875   0.252
 3003TIP3    H2 8953   5.021   2.816   0.157
 3004TIP3   OH2 8954   6.128   5.901   0.890
 3004TIP3    H1 8955   6.144   5.821   0.838
 3004TIP3    H2 8956   6.034   5.900   0.908
 3005TIP3   OH2 8957   6.894   2.184   6.391
 3005TIP3    H1 8958   6.819   2.222   6.344
 3005TIP3    H2 8959   6.924   2.112   6.336
 3006TIP3   OH2 8960   2.795   4.824   3.296
 3006TIP3    H1 8961   2.814   4.916   3.312
 3006TIP3    H2 8962   2.817   4.810   3.203
 3007TIP3   OH2 8963   3.689   0.462   1.458
 3007TIP3    H1 8964   3.755   0.531   1.450
 3007TIP3    H2 8965   3.605   0.508   1.454
 3008TIP3   OH2 8966   7.166   1.818   1.363
 3008TIP3    H1 8967   7.123   1.869   1.432
 3008TIP3    H2 8968   7.095   1.790   1.306
 3009TIP3   OH2 8969   0.048   4.853   3.366
 3009TIP3    H1 8970   0.003   4.786   3.417
 3009TIP3    H2 8971   0.041   4.932   3.418
 3010TIP3   OH2 8972   5.169   6.288   2.494
 3010TIP3    H1 8973   5.128   6.214   2.539
 3010TIP3    H2 8974   5.219   6.333   2.562
 3011TIP3   OH2 8975   6.746   3.560   1.800
 3011TIP3    H1 8976   6.804   3.545   1.874
 3011TIP3    H2 8977   6.737   3.475   1.759
 3012TIP3   OH2 8978   2.054   1.150   2.038
 3012TIP3    H1 8979   1.959   1.156   2.043
 3012TIP3    H2 8980   2.082   1.238   2.015
 3013TIP3   OH2 8981   2.626   6.214   0.450
 3013TIP3    H1 8982   2.718   6.242   0.456
 3013TIP3    H2 8983   2.583   6.260   0.522
 3014TIP3   OH2 8984   2.481   1.423   2.050
 3014TIP3    H1 8985   2.393   1.422   2.012
 3014TIP3    H2 8986   2.538   1.397   1.978
 3015TIP3   OH2 8987   7.628   1.822   3.161
 3015TIP3    H1 8988   7.652   1.897   3.107
 3015TIP3    H2 8989   7.634   1.854   3.251
 3016TIP3   OH2 8990   1.821   3.597   6.064
 3016TIP3    H1 8991   1.904   3.644   6.064
 3016TIP3    H2 8992   1.793   3.599   6.156
 3017TIP3   OH2 8993   4.595   7.492   4.381
 3017TIP3    H1 8994   4.572   7.555   4.313
 3017TIP3    H2 8995   4.689   7.504   4.394
 3018TIP3   OH2 8996   1.030   3.076   1.727
 3018TIP3    H1 8997   0.948   3.125   1.724
 3018TIP3    H2 8998   1.036   3.044   1.817
 3019TIP3   OH2 8999   5.912   3.935   4.723
 3019TIP3    H1 9000   5.901   3.844   4.696
 3019TIP3    H2 9001   5.841   3.982   4.678
 3020TIP3   OH2 9002   0.854   5.539   5.939
 3020TIP3    H1 9003   0.917   5.610   5.928
 3020TIP3    H2 9004   0.873   5.479   5.868
 3021TIP3   OH2 9005   0.335   0.260   0.265
 3021TIP3    H1 9006   0.284   0.244   0.344
 3021TIP3    H2 9007   0.279   0.317   0.212
 3022TIP3   OH2 9008   7.595   3.003   1.975
 3022TIP3    H1 9009   7.644   3.082   1.999
 3022TIP3    H2 9010   7.582   2.957   2.058
 3023TIP3   OH2 9011   8.063   1.461   2.478
 3023TIP3    H1 9012   8.084   1.497   2.564
 3023TIP3    H2 9013   8.030   1.373   2.497
 3024TIP3   OH2 9014   0.317   4.914   0.357
 3024TIP3    H1 9015   0.364   4.922   0.274
 3024TIP3    H2 9016   0.278   5.000   0.372
 3025TIP3   OH2 9017   7.394   0.397   5.028
 3025TIP3    H1 9018   7.346   0.460   4.975
 3025TIP3    H2 9019   7.433   0.450   5.098
 3026TIP3   OH2 9020   0.484   5.985   2.243
 3026TIP3    H1 9021   0.555   6.044   2.218
 3026TIP3    H2 9022   0.478   5.923   2.170
 3027TIP3   OH2 9023   6.372   2.252   3.775
 3027TIP3    H1 9024   6.355   2.168   3.819
 3027TIP3    H2 9025   6.405   2.309   3.844
 3028TIP3   OH2 9026   1.777   2.676   2.446
 3028TIP3    H1 9027   1.842   2.689   2.377
 3028TIP3    H2 9028   1.801   2.592   2.486
 3029TIP3   OH2 9029   5.654   3.917   2.830
 3029TIP3    H1 9030   5.567   3.928   2.791
 3029TIP3    H2 9031   5.647   3.957   2.916
 3030TIP3   OH2 9032   0.520   7.649   2.900
 3030TIP3    H1 9033   0.513   7.734   2.857
 3030TIP3    H2 9034   0.563   7.593   2.836
 3031TIP3   OH2 9035   3.843   7.777   5.154
 3031TIP3    H1 9036   3.827   7.687   5.185
 3031TIP3    H2 9037   3.934   7.776   5.126
 3032TIP3   OH2 9038   7.108   0.653   5.931
 3032TIP3    H1 9039   7.045   0.703   5.879
 3032TIP3    H2 9040   7.193   0.688   5.907
 3033TIP3   OH2 9041   7.713   2.223   5.638
 3033TIP3    H1 9042   7.656   2.297   5.657
 3033TIP3    H2 9043   7.665   2.171   5.574
 3034TIP3   OH2 9044   2.177   3.889   2.842
 3034TIP3    H1 9045   2.220   3.971   2.867
 3034TIP3    H2 9046   2.219   3.822   2.896
 3035TIP3   OH2 9047   2.518   0.213   2.895
 3035TIP3    H1 9048   2.481   0.130   2.926
 3035TIP3    H2 9049   2.506   0.273   2.969
 3036TIP3   OH2 9050   5.085   3.493   3.994
 3036TIP3    H1 9051   5.149   3.546   4.042
 3036TIP3    H2 9052   5.050   3.552   3.927
 3037TIP3   OH2 9053   2.960   4.433   1.225
 3037TIP3    H1 9054   2.937   4.496   1.293
 3037TIP3    H2 9055   2.974   4.486   1.147
 3038TIP3   OH2 9056   1.082   3.293   3.721
 3038TIP3    H1 9057   1.100   3.199   3.721
 3038TIP3    H2 9058   1.145   3.329   3.784
 3039TIP3   OH2 9059   1.339   5.148   0.530
 3039TIP3    H1 9060   1.356   5.165   0.623
 3039TIP3    H2 9061   1.375   5.061   0.515
 3040TIP3   OH2 9062   2.902   2.230   2.612
 3040TIP3    H1 9063   2.943   2.150   2.646
 3040TIP3    H2 9064   2.934   2.237   2.523
 3041TIP3   OH2 9065   4.353   1.434   3.054
 3041TIP3    H1 9066   4.325   1.443   3.145
 3041TIP3    H2 9067   4.390   1.519   3.031
 3042TIP3   OH2 9068   0.470   7.063   0.840
 3042TIP3    H1 9069   0.468   7.042   0.934
 3042TIP3    H2 9070   0.559   7.042   0.813
 3043TIP3   OH2 9071   1.444   5.429   6.421
 3043TIP3    H1 9072   1.388   5.498   6.458
 3043TIP3    H2 9073   1.523   5.475   6.393
 3044TIP3   OH2 9074   5.683   0.397   3.121
 3044TIP3    H1 9075   5.673   0.492   3.109
 3044TIP3    H2 9076   5.756   0.389   3.183
 3045TIP3   OH2 9077   2.857   5.040   0.858
 3045TIP3    H1 9078   2.917   5.067   0.928
 3045TIP3    H2 9079   2.854   4.945   0.865
 3046TIP3   OH2 9080   8.247   1.412   6.491
 3046TIP3    H1 9081   8.168   1.406   6.545
 3046TIP3    H2 9082   8.219   1.385   6.404
 3047TIP3   OH2 9083   0.516   2.422   3.736
 3047TIP3    H1 9084   0.455   2.479   3.689
 3047TIP3    H2 9085   0.581   2.482   3.772
 3048TIP3   OH2 9086   0.736   4.023   0.969
 3048TIP3    H1 9087   0.674   4.062   0.907
 3048TIP3    H2 9088   0.684   3.958   1.017
 3049TIP3   OH2 9089   0.195   2.166   3.294
 3049TIP3    H1 9090   0.208   2.097   3.229
 3049TIP3    H2 9091   0.127   2.222   3.256
 3050TIP3   OH2 9092   6.266   7.541   1.456
 3050TIP3    H1 9093   6.255   7.498   1.372
 3050TIP3    H2 9094   6.361   7.546   1.468
 3051TIP3   OH2 9095   4.431   3.321   5.881
 3051TIP3    H1 9096   4.409   3.342   5.790
 3051TIP3    H2 9097   4.405   3.399   5.930
 3052TIP3   OH2 9098   6.873   5.611   3.435
 3052TIP3    H1 9099   6.782   5.582   3.431
 3052TIP3    H2 9100   6.873   5.694   3.387
 3053TIP3   OH2 9101   4.896   3.921   2.234
 3053TIP3    H1 9102   4.806   3.911   2.202
 3053TIP3    H2 9103   4.951   3.899   2.158
 3054TIP3   OH2 9104   6.984   6.962   0.985
 3054TIP3    H1 9105   6.963   6.931   0.897
 3054TIP3    H2 9106   6.996   6.882   1.036
 3055TIP3   OH2 9107   4.638   4.538   6.317
 3055TIP3    H1 9108   4.566   4.497   6.363
 3055TIP3    H2 9109   4.694   4.574   6.387
 3056TIP3   OH2 9110   3.640   0.769   2.281
 3056TIP3    H1 9111   3.714   0.784   2.221
 3056TIP3    H2 9112   3.564   0.805   2.235
 3057TIP3   OH2 9113   3.599   5.650   5.632
 3057TIP3    H1 9114   3.561   5.659   5.544
 3057TIP3    H2 9115   3.583   5.734   5.673
 3058TIP3   OH2 9116   4.408   7.285   5.229
 3058TIP3    H1 9117   4.380   7.232   5.304
 3058TIP3    H2 9118   4.337   7.349   5.217
 3059TIP3   OH2 9119   1.083   3.993   2.377
 3059TIP3    H1 9120   1.052   3.924   2.435
 3059TIP3    H2 9121   1.167   4.019   2.414
 3060TIP3   OH2 9122   2.634   4.366   4.036
 3060TIP3    H1 9123   2.578   4.419   4.092
 3060TIP3    H2 9124   2.578   4.341   3.962
 3061TIP3   OH2 9125   2.166   5.404   4.588
 3061TIP3    H1 9126   2.241   5.370   4.636
 3061TIP3    H2 9127   2.164   5.497   4.609
 3062TIP3   OH2 9128   2.207   1.636   1.540
 3062TIP3    H1 9129   2.238   1.726   1.540
 3062TIP3    H2 9130   2.157   1.627   1.621
 3063TIP3   OH2 9131   0.989   2.701   4.509
 3063TIP3    H1 9132   0.899   2.670   4.506
 3063TIP3    H2 9133   1.036   2.645   4.447
 3064TIP3   OH2 9134   4.720   2.286   4.175
 3064TIP3    H1 9135   4.636   2.331   4.187
 3064TIP3    H2 9136   4.710   2.239   4.092
 3065TIP3   OH2 9137   7.828   1.157   3.057
 3065TIP3    H1 9138   7.791   1.098   3.121
 3065TIP3    H2 9139   7.882   1.101   3.001
 3066TIP3   OH2 9140   1.479   0.984   5.135
 3066TIP3    H1 9141   1.547   1.004   5.070
 3066TIP3    H2 9142   1.400   1.023   5.099
 3067TIP3   OH2 9143   1.155   7.412   3.739
 3067TIP3    H1 9144   1.163   7.458   3.823
 3067TIP3    H2 9145   1.085   7.348   3.752
 3068TIP3   OH2 9146   7.373   4.409   2.704
 3068TIP3    H1 9147   7.397   4.352   2.631
 3068TIP3    H2 9148   7.312   4.358   2.756
 3069TIP3   OH2 9149   7.554   1.943   3.394
 3069TIP3    H1 9150   7.590   2.025   3.359
 3069TIP3    H2 9151   7.460   1.953   3.386
 3070TIP3   OH2 9152   2.041   6.522   4.695
 3070TIP3    H1 9153   1.974   6.586   4.719
 3070TIP3    H2 9154   2.105   6.571   4.645
 3071TIP3   OH2 9155   1.523   1.254   0.245
 3071TIP3    H1 9156   1.523   1.350   0.254
 3071TIP3    H2 9157   1.430   1.231   0.242
 3072TIP3   OH2 9158   4.138   3.719   6.015
 3072TIP3    H1 9159   4.124   3.738   5.922
 3072TIP3    H2 9160   4.078   3.647   6.034
 3073TIP3   OH2 9161   5.558   6.907   5.422
 3073TIP3    H1 9162   5.523   6.878   5.506
 3073TIP3    H2 9163   5.642   6.947   5.443
 3074TIP3   OH2 9164   1.863   7.083   3.620
 3074TIP3    H1 9165   1.818   7.002   3.596
 3074TIP3    H2 9166   1.901   7.114   3.538
 3075TIP3   OH2 9167   1.048   2.238   2.612
 3075TIP3    H1 9168   1.099   2.316   2.590
 3075TIP3    H2 9169   1.112   2.177   2.649
 3076TIP3   OH2 9170   6.737   7.715   5.926
 3076TIP3    H1 9171   6.756   7.806   5.947
 3076TIP3    H2 9172   6.651   7.717   5.884
 3077TIP3   OH2 9173   1.246   4.896   3.328
 3077TIP3    H1 9174   1.297   4.860   3.401
 3077TIP3    H2 9175   1.310   4.920   3.262
 3078TIP3   OH2 9176   6.494   1.294   4.310
 3078TIP3    H1 9177   6.447   1.344   4.243
 3078TIP3    H2 9178   6.438   1.300   4.388
 3079TIP3   OH2 9179   2.625   6.903   2.834
 3079TIP3    H1 9180   2.583   6.927   2.751
 3079TIP3    H2 9181   2.719   6.908   2.815
 3080TIP3   OH2 9182   4.310   4.376   5.758
 3080TIP3    H1 9183   4.264   4.368   5.841
 3080TIP3    H2 9184   4.383   4.435   5.776
 3081TIP3   OH2 9185   0.612   4.891   4.554
 3081TIP3    H1 9186   0.545   4.939   4.602
 3081TIP3    H2 9187   0.687   4.950   4.552
 3082TIP3   OH2 9188   5.152   4.208   3.026
 3082TIP3    H1 9189   5.149   4.255   2.943
 3082TIP3    H2 9190   5.079   4.243   3.076
 3083TIP3   OH2 9191   0.624   6.449   6.436
 3083TIP3    H1 9192   0.616   6.533   6.391
 3083TIP3    H2 9193   0.698   6.460   6.496
 3084TIP3   OH2 9194   2.396   3.760   0.071
 3084TIP3    H1 9195   2.412   3.820   0.143
 3084TIP3    H2 9196   2.328   3.804   0.019
 3085TIP3   OH2 9197   6.771   3.602   4.206
 3085TIP3    H1 9198   6.702   3.652   4.250
 3085TIP3    H2 9199   6.852   3.639   4.240
 3086TIP3   OH2 9200   7.302   5.994   5.452
 3086TIP3    H1 9201   7.390   6.032   5.452
 3086TIP3    H2 9202   7.286   5.969   5.361
 3087TIP3   OH2 9203   6.510   3.503   1.197
 3087TIP3    H1 9204   6.535   3.594   1.209
 3087TIP3    H2 9205   6.573   3.453   1.248
 3088TIP3   OH2 9206   0.557   7.054   6.082
 3088TIP3    H1 9207   0.543   7.106   6.003
 3088TIP3    H2 9208   0.482   7.074   6.138
 3089TIP3   OH2 9209   5.848   2.481   6.762
 3089TIP3    H1 9210   5.853   2.536   6.840
 3089TIP3    H2 9211   5.935   2.487   6.723
 3090TIP3   OH2 9212   4.144   5.824   4.572
 3090TIP3    H1 9213   4.148   5.748   4.630
 3090TIP3    H2 9214   4.119   5.897   4.629
 3091TIP3   OH2 9215   4.812   1.333   0.332
 3091TIP3    H1 9216   4.825   1.239   0.342
 3091TIP3    H2 9217   4.820   1.367   0.421
 3092TIP3   OH2 9218   7.527   2.857   5.411
 3092TIP3    H1 9219   7.529   2.763   5.394
 3092TIP3    H2 9220   7.493   2.865   5.500
 3093TIP3   OH2 9221   0.282   7.658   1.841
 3093TIP3    H1 9222   0.186   7.668   1.843
 3093TIP3    H2 9223   0.297   7.565   1.858
 3094TIP3   OH2 9224   7.064   0.750   0.177
 3094TIP3    H1 9225   7.123   0.824   0.157
 3094TIP3    H2 9226   6.988   0.791   0.219
 3095TIP3   OH2 9227   5.249   3.601   5.884
 3095TIP3    H1 9228   5.232   3.671   5.947
 3095TIP3    H2 9229   5.311   3.543   5.927
 3096TIP3   OH2 9230   4.806   4.917   1.033
 3096TIP3    H1 9231   4.759   4.838   1.007
 3096TIP3    H2 9232   4.855   4.944   0.955
 3097TIP3   OH2 9233   0.317   2.334   5.951
 3097TIP3    H1 9234   0.407   2.365   5.963
 3097TIP3    H2 9235   0.267   2.380   6.018
 3098TIP3   OH2 9236   4.141   4.017   5.178
 3098TIP3    H1 9237   4.113   3.926   5.176
 3098TIP3    H2 9238   4.189   4.026   5.260
 3099TIP3   OH2 9239   3.857   2.626   4.058
 3099TIP3    H1 9240   3.848   2.696   3.993
 3099TIP3    H2 9241   3.874   2.672   4.140
 3100TIP3   OH2 9242   7.430   6.752   1.766
 3100TIP3    H1 9243   7.383   6.781   1.688
 3100TIP3    H2 9244   7.362   6.736   1.831
 3101TIP3   OH2 9245   3.965   7.583   4.520
 3101TIP3    H1 9246   3.925   7.603   4.436
 3101TIP3    H2 9247   3.894   7.592   4.584
 3102TIP3   OH2 9248   1.014   2.269   1.731
 3102TIP3    H1 9249   0.965   2.248   1.652
 3102TIP3    H2 9250   0.950   2.310   1.789
 3103TIP3   OH2 9251   8.288   5.644   1.206
 3103TIP3    H1 9252   8.227   5.703   1.161
 3103TIP3    H2 9253   8.318   5.694   1.282
 3104TIP3   OH2 9254   4.553   4.586   2.587
 3104TIP3    H1 9255   4.591   4.631   2.663
 3104TIP3    H2 9256   4.483   4.532   2.623
 3105TIP3   OH2 9257   7.728   4.844   0.596
 3105TIP3    H1 9258   7.656   4.816   0.653
 3105TIP3    H2 9259   7.713   4.797   0.514
 3106TIP3   OH2 9260   5.120   6.786   5.107
 3106TIP3    H1 9261   5.158   6.867   5.072
 3106TIP3    H2 9262   5.188   6.750   5.164
 3107TIP3   OH2 9263   7.872   5.647   5.533
 3107TIP3    H1 9264   7.963   5.619   5.543
 3107TIP3    H2 9265   7.875   5.714   5.464
 3108TIP3   OH2 9266   0.979   0.504   1.352
 3108TIP3    H1 9267   1.047   0.461   1.300
 3108TIP3    H2 9268   1.023   0.580   1.391
 3109TIP3   OH2 9269   5.106   5.904   5.064
 3109TIP3    H1 9270   5.127   5.890   5.157
 3109TIP3    H2 9271   5.132   5.822   5.022
 3110TIP3   OH2 9272   3.708   3.304   1.964
 3110TIP3    H1 9273   3.750   3.347   2.038
 3110TIP3    H2 9274   3.779   3.290   1.901
 3111TIP3   OH2 9275   3.372   2.508   6.497
 3111TIP3    H1 9276   3.347   2.536   6.409
 3111TIP3    H2 9277   3.428   2.432   6.484
 3112TIP3   OH2 9278   6.493   1.198   5.057
 3112TIP3    H1 9279   6.524   1.144   5.130
 3112TIP3    H2 9280   6.407   1.163   5.035
 3113TIP3   OH2 9281   3.171   6.213   4.048
 3113TIP3    H1 9282   3.079   6.220   4.074
 3113TIP3    H2 9283   3.184   6.282   3.984
 3114TIP3   OH2 9284   7.995   3.700   1.837
 3114TIP3    H1 9285   8.056   3.681   1.908
 3114TIP3    H2 9286   8.050   3.733   1.765
 3115TIP3   OH2 9287   4.335   0.571   3.484
 3115TIP3    H1 9288   4.305   0.480   3.488
 3115TIP3    H2 9289   4.378   0.578   3.399
 3116TIP3   OH2 9290   5.483   7.464   1.217
 3116TIP3    H1 9291   5.556   7.426   1.168
 3116TIP3    H2 9292   5.408   7.410   1.193
 3117TIP3   OH2 9293   3.067   7.202   6.347
 3117TIP3    H1 9294   3.144   7.154   6.379
 3117TIP3    H2 9295   3.050   7.268   6.414
 3118TIP3   OH2 9296   2.564   6.937   1.339
 3118TIP3    H1 9297   2.474   6.916   1.364
 3118TIP3    H2 9298   2.609   6.852   1.341
 3119TIP3   OH2 9299   0.070   3.710   5.756
 3119TIP3    H1 9300   0.154   3.703   5.711
 3119TIP3    H2 9301   0.010   3.658   5.703
 3120TIP3   OH2 9302   5.852   4.222   4.628
 3120TIP3    H1 9303   5.931   4.201   4.578
 3120TIP3    H2 9304   5.784   4.232   4.562
 3121TIP3   OH2 9305   0.408   7.235   4.009
 3121TIP3    H1 9306   0.354   7.257   4.085
 3121TIP3    H2 9307   0.352   7.178   3.956
 3122TIP3   OH2 9308   6.779   5.315   5.451
 3122TIP3    H1 9309   6.842   5.267   5.397
 3122TIP3    H2 9310   6.831   5.380   5.498
 3123TIP3   OH2 9311   0.792   3.508   4.378
 3123TIP3    H1 9312   0.797   3.503   4.283
 3123TIP3    H2 9313   0.701   3.484   4.398
 3124TIP3   OH2 9314   4.706   1.214   2.257
 3124TIP3    H1 9315   4.619   1.204   2.294
 3124TIP3    H2 9316   4.701   1.170   2.172
 3125TIP3   OH2 9317   5.719   2.762   1.308
 3125TIP3    H1 9318   5.634   2.773   1.350
 3125TIP3    H2 9319   5.698   2.757   1.215
 3126TIP3   OH2 9320   1.627   3.206   4.780
 3126TIP3    H1 9321   1.585   3.246   4.704
 3126TIP3    H2 9322   1.616   3.112   4.767
 3127TIP3   OH2 9323   7.680   3.047   5.062
 3127TIP3    H1 9324   7.713   3.050   5.152
 3127TIP3    H2 9325   7.664   2.955   5.044
 3128TIP3   OH2 9326   5.807   4.906   4.794
 3128TIP3    H1 9327   5.806   4.881   4.886
 3128TIP3    H2 9328   5.880   4.967   4.785
 3129TIP3   OH2 9329   6.519   5.511   1.637
 3129TIP3    H1 9330   6.476   5.490   1.553
 3129TIP3    H2 9331   6.564   5.430   1.660
 3130TIP3   OH2 9332   7.671   4.756   0.286
 3130TIP3    H1 9333   7.584   4.772   0.323
 3130TIP3    H2 9334   7.669   4.665   0.258
 3131TIP3   OH2 9335   4.376   2.486   3.670
 3131TIP3    H1 9336   4.314   2.554   3.644
 3131TIP3    H2 9337   4.456   2.534   3.693
 3132TIP3   OH2 9338   3.354   4.863   2.100
 3132TIP3    H1 9339   3.296   4.826   2.166
 3132TIP3    H2 9340   3.388   4.788   2.051
 3133TIP3   OH2 9341   2.964   7.437   3.139
 3133TIP3    H1 9342   2.985   7.525   3.170
 3133TIP3    H2 9343   2.977   7.442   3.044
 3134TIP3   OH2 9344   1.947   0.643   1.165
 3134TIP3    H1 9345   1.935   0.738   1.171
 3134TIP3    H2 9346   1.873   0.613   1.111
 3135TIP3   OH2 9347   7.888   2.150   2.141
 3135TIP3    H1 9348   7.867   2.079   2.080
 3135TIP3    H2 9349   7.952   2.204   2.095
 3136TIP3   OH2 9350   3.369   4.064   4.438
 3136TIP3    H1 9351   3.417   4.145   4.422
 3136TIP3    H2 9352   3.325   4.045   4.355
 3137TIP3   OH2 9353   0.699   0.676   0.749
 3137TIP3    H1 9354   0.721   0.707   0.661
 3137TIP3    H2 9355   0.616   0.718   0.769
 3138TIP3   OH2 9356   5.700   6.371   0.524
 3138TIP3    H1 9357   5.726   6.389   0.434
 3138TIP3    H2 9358   5.764   6.418   0.578
 3139TIP3   OH2 9359   7.698   4.357   5.072
 3139TIP3    H1 9360   7.711   4.283   5.131
 3139TIP3    H2 9361   7.652   4.422   5.124
 3140TIP3   OH2 9362   8.123   3.582   1.032
 3140TIP3    H1 9363   8.063   3.587   1.107
 3140TIP3    H2 9364   8.071   3.543   0.962
 3141TIP3   OH2 9365   3.341   5.520   4.417
 3141TIP3    H1 9366   3.383   5.576   4.351
 3141TIP3    H2 9367   3.373   5.553   4.501
 3142TIP3   OH2 9368   0.005   7.737   0.771
 3142TIP3    H1 9369  -0.014   7.714   0.862
 3142TIP3    H2 9370   0.087   7.786   0.776
 3143TIP3   OH2 9371   0.881   6.319   2.597
 3143TIP3    H1 9372   0.874   6.395   2.655
 3143TIP3    H2 9373   0.965   6.331   2.552
 3144TIP3   OH2 9374   5.761   2.136   3.117
 3144TIP3    H1 9375   5.756   2.083   3.197
 3144TIP3    H2 9376   5.853   2.133   3.093
 3145TIP3   OH2 9377   6.638   2.098   2.782
 3145TIP3    H1 9378   6.552   2.057   2.792
 3145TIP3    H2 9379   6.658   2.132   2.869
 3146TIP3   OH2 9380   1.623   7.161   2.787
 3146TIP3    H1 9381   1.561   7.102   2.744
 3146TIP3    H2 9382   1.569   7.231   2.822
 3147TIP3   OH2 9383   7.951   2.692   2.448
 3147TIP3    H1 9384   7.863   2.709   2.415
 3147TIP3    H2 9385   7.937   2.643   2.530
 3148TIP3   OH2 9386   7.924   4.875   1.159
 3148TIP3    H1 9387   7.971   4.952   1.128
 3148TIP3    H2 9388   7.952   4.804   1.101
 3149TIP3   OH2 9389   6.991   2.650   1.274
 3149TIP3    H1 9390   7.066   2.705   1.295
 3149TIP3    H2 9391   6.919   2.686   1.326
 3150TIP3   OH2 9392   2.371   6.305   3.751
 3150TIP3    H1 9393   2.463   6.281   3.740
 3150TIP3    H2 9394   2.373   6.380   3.811
 3151TIP3   OH2 9395   7.971   5.134   0.196
 3151TIP3    H1 9396   7.961   5.144   0.291
 3151TIP3    H2 9397   7.941   5.045   0.178
 3152TIP3   OH2 9398   3.223   3.941   1.916
 3152TIP3    H1 9399   3.131   3.928   1.893
 3152TIP3    H2 9400   3.272   3.888   1.853
 3153TIP3   OH2 9401   4.814   7.565   3.590
 3153TIP3    H1 9402   4.812   7.618   3.511
 3153TIP3    H2 9403   4.744   7.600   3.645
 3154TIP3   OH2 9404   3.585   5.078   2.441
 3154TIP3    H1 9405   3.490   5.076   2.436
 3154TIP3    H2 9406   3.610   4.988   2.466
 3155TIP3   OH2 9407   7.278   0.473   0.051
 3155TIP3    H1 9408   7.291   0.381   0.075
 3155TIP3    H2 9409   7.309   0.479  -0.039
 3156TIP3   OH2 9410   7.032   5.655   1.494
 3156TIP3    H1 9411   7.070   5.708   1.564
 3156TIP3    H2 9412   7.038   5.565   1.526
 3157TIP3   OH2 9413   7.539   1.076   0.049
 3157TIP3    H1 9414   7.471   1.024   0.007
 3157TIP3    H2 9415   7.613   1.015   0.058
 3158TIP3   OH2 9416   0.267   4.365   5.371
 3158TIP3    H1 9417   0.321   4.287   5.364
 3158TIP3    H2 9418   0.329   4.437   5.383
 3159TIP3   OH2 9419   5.942   0.893   3.608
 3159TIP3    H1 9420   5.870   0.956   3.619
 3159TIP3    H2 9421   5.960   0.894   3.514
 3160TIP3   OH2 9422   7.592   2.452   5.993
 3160TIP3    H1 9423   7.634   2.511   5.931
 3160TIP3    H2 9424   7.642   2.463   6.074
 3161TIP3   OH2 9425   0.137   2.746   0.109
 3161TIP3    H1 9426   0.224   2.786   0.114
 3161TIP3    H2 9427   0.149   2.658   0.146
 3162TIP3   OH2 9428   0.243   1.081   4.176
 3162TIP3    H1 9429   0.234   1.101   4.083
 3162TIP3    H2 9430   0.337   1.089   4.193
 3163TIP3   OH2 9431   0.197   0.504   5.473
 3163TIP3    H1 9432   0.269   0.455   5.512
 3163TIP3    H2 9433   0.120   0.450   5.489
 3164TIP3   OH2 9434   6.203   2.136   0.695
 3164TIP3    H1 9435   6.131   2.080   0.667
 3164TIP3    H2 9436   6.163   2.222   0.709
 3165TIP3   OH2 9437   2.893   0.793   3.239
 3165TIP3    H1 9438   2.940   0.841   3.171
 3165TIP3    H2 9439   2.835   0.858   3.278
 3166TIP3   OH2 9440   2.379   1.616   5.627
 3166TIP3    H1 9441   2.424   1.657   5.554
 3166TIP3    H2 9442   2.445   1.612   5.697
 3167TIP3   OH2 9443   4.440   4.332   0.968
 3167TIP3    H1 9444   4.384   4.283   1.028
 3167TIP3    H2 9445   4.438   4.280   0.887
 3168TIP3   OH2 9446   4.807   5.369   4.946
 3168TIP3    H1 9447   4.825   5.433   5.015
 3168TIP3    H2 9448   4.851   5.289   4.975
 3169TIP3   OH2 9449   7.609   3.934   3.970
 3169TIP3    H1 9450   7.665   3.880   3.914
 3169TIP3    H2 9451   7.648   3.926   4.057
 3170TIP3   OH2 9452   2.758   4.844   1.558
 3170TIP3    H1 9453   2.749   4.934   1.525
 3170TIP3    H2 9454   2.822   4.803   1.499
 3171TIP3   OH2 9455   7.415   6.966   0.623
 3171TIP3    H1 9456   7.382   6.953   0.712
 3171TIP3    H2 9457   7.438   7.059   0.619
 3172TIP3   OH2 9458   8.129   3.135   2.208
 3172TIP3    H1 9459   8.042   3.124   2.169
 3172TIP3    H2 9460   8.141   3.058   2.264
 3173TIP3   OH2 9461   6.851   2.394   6.552
 3173TIP3    H1 9462   6.929   2.400   6.607
 3173TIP3    H2 9463   6.874   2.330   6.485
 3174TIP3   OH2 9464   5.015   2.332   6.760
 3174TIP3    H1 9465   5.105   2.298   6.756
 3174TIP3    H2 9466   4.965   2.262   6.802
 3175TIP3   OH2 9467   8.112   6.719   1.195
 3175TIP3    H1 9468   8.051   6.789   1.219
 3175TIP3    H2 9469   8.090   6.700   1.103
 3176TIP3   OH2 9470   3.744   0.906   2.754
 3176TIP3    H1 9471   3.758   0.990   2.797
 3176TIP3    H2 9472   3.650   0.890   2.763
 3177TIP3   OH2 9473   0.849   7.148   5.945
 3177TIP3    H1 9474   0.796   7.225   5.926
 3177TIP3    H2 9475   0.925   7.182   5.992
 3178TIP3   OH2 9476   4.964   7.298   5.424
 3178TIP3    H1 9477   5.043   7.335   5.384
 3178TIP3    H2 9478   4.966   7.205   5.399
 3179TIP3   OH2 9479   3.065   4.735   1.771
 3179TIP3    H1 9480   3.090   4.737   1.864
 3179TIP3    H2 9481   2.984   4.787   1.768
 3180TIP3   OH2 9482   5.203   4.757   4.317
 3180TIP3    H1 9483   5.112   4.784   4.306
 3180TIP3    H2 9484   5.251   4.838   4.331
 3181TIP3   OH2 9485   1.214   4.673   1.893
 3181TIP3    H1 9486   1.139   4.733   1.892
 3181TIP3    H2 9487   1.283   4.720   1.847
 3182TIP3   OH2 9488   7.246   1.970   4.895
 3182TIP3    H1 9489   7.158   1.942   4.916
 3182TIP3    H2 9490   7.235   2.058   4.857
 3183TIP3   OH2 9491   6.175   5.134   1.491
 3183TIP3    H1 9492   6.171   5.129   1.586
 3183TIP3    H2 9493   6.223   5.215   1.472
 3184TIP3   OH2 9494   1.540   3.586   5.165
 3184TIP3    H1 9495   1.470   3.635   5.209
 3184TIP3    H2 9496   1.617   3.598   5.220
 3185TIP3   OH2 9497   2.322   2.404   0.709
 3185TIP3    H1 9498   2.228   2.423   0.701
 3185TIP3    H2 9499   2.363   2.458   0.642
 3186TIP3   OH2 9500   6.750   6.752   5.892
 3186TIP3    H1 9501   6.672   6.730   5.944
 3186TIP3    H2 9502   6.740   6.699   5.812
 3187TIP3   OH2 9503   1.231   6.681   0.830
 3187TIP3    H1 9504   1.303   6.736   0.798
 3187TIP3    H2 9505   1.274   6.607   0.872
 3188TIP3   OH2 9506   5.650   1.805   2.105
 3188TIP3    H1 9507   5.723   1.762   2.151
 3188TIP3    H2 9508   5.690   1.840   2.025
 3189TIP3   OH2 9509   7.305   5.214   3.880
 3189TIP3    H1 9510   7.219   5.230   3.920
 3189TIP3    H2 9511   7.331   5.128   3.913
 3190TIP3   OH2 9512   3.808   4.353   1.568
 3190TIP3    H1 9513   3.811   4.260   1.549
 3190TIP3    H2 9514   3.789   4.394   1.484
 3191TIP3   OH2 9515   1.491   4.232   4.599
 3191TIP3    H1 9516   1.449   4.226   4.685
 3191TIP3    H2 9517   1.585   4.239   4.619
 3192TIP3   OH2 9518   7.630   4.604   3.251
 3192TIP3    H1 9519   7.662   4.691   3.226
 3192TIP3    H2 9520   7.674   4.544   3.193
 3193TIP3   OH2 9521   3.735   5.973   6.673
 3193TIP3    H1 9522   3.697   5.948   6.589
 3193TIP3    H2 9523   3.660   5.998   6.727
 3194TIP3   OH2 9524   7.238   1.961   0.855
 3194TIP3    H1 9525   7.145   1.951   0.834
 3194TIP3    H2 9526   7.282   1.958   0.770
 3195TIP3   OH2 9527   4.687   1.433   4.876
 3195TIP3    H1 9528   4.628   1.422   4.951
 3195TIP3    H2 9529   4.713   1.525   4.878
 3196TIP3   OH2 9530   6.815   1.538   4.507
 3196TIP3    H1 9531   6.891   1.575   4.553
 3196TIP3    H2 9532   6.756   1.510   4.577
 3197TIP3   OH2 9533   7.877   1.645   2.416
 3197TIP3    H1 9534   7.950   1.584   2.427
 3197TIP3    H2 9535   7.809   1.613   2.475
 3198TIP3   OH2 9536   3.558   3.376   0.254
 3198TIP3    H1 9537   3.597   3.301   0.208
 3198TIP3    H2 9538   3.560   3.351   0.346
 3199TIP3   OH2 9539   6.086   2.502   3.689
 3199TIP3    H1 9540   6.018   2.567   3.675
 3199TIP3    H2 9541   6.039   2.419   3.693
 3200TIP3   OH2 9542   2.050   6.007   1.875
 3200TIP3    H1 9543   2.055   6.068   1.802
 3200TIP3    H2 9544   2.095   6.051   1.947
 3201TIP3   OH2 9545   4.888   3.912   0.280
 3201TIP3    H1 9546   4.899   3.969   0.204
 3201TIP3    H2 9547   4.803   3.936   0.317
 3202TIP3   OH2 9548   1.539   4.828   4.260
 3202TIP3    H1 9549   1.571   4.912   4.293
 3202TIP3    H2 9550   1.547   4.835   4.164
 3203TIP3   OH2 9551   3.629   5.463   5.247
 3203TIP3    H1 9552   3.542   5.446   5.211
 3203TIP3    H2 9553   3.624   5.554   5.279
 3204TIP3   OH2 9554   6.526   2.391   1.622
 3204TIP3    H1 9555   6.464   2.373   1.693
 3204TIP3    H2 9556   6.473   2.426   1.552
 3205TIP3   OH2 9557   1.853   2.811   4.844
 3205TIP3    H1 9558   1.784   2.877   4.843
 3205TIP3    H2 9559   1.934   2.862   4.830
 3206TIP3   OH2 9560   6.266   4.354   2.078
 3206TIP3    H1 9561   6.299   4.349   2.168
 3206TIP3    H2 9562   6.325   4.298   2.027
 3207TIP3   OH2 9563   7.986   0.301   5.748
 3207TIP3    H1 9564   7.932   0.270   5.820
 3207TIP3    H2 9565   7.932   0.288   5.670
 3208TIP3   OH2 9566   2.669   4.929   4.165
 3208TIP3    H1 9567   2.699   4.850   4.121
 3208TIP3    H2 9568   2.599   4.900   4.223
 3209TIP3   OH2 9569   8.259   2.240   5.512
 3209TIP3    H1 9570   8.238   2.263   5.421
 3209TIP3    H2 9571   8.307   2.316   5.545
 3210TIP3   OH2 9572   0.134   0.177   0.508
 3210TIP3    H1 9573   0.163   0.268   0.499
 3210TIP3    H2 9574   0.175   0.147   0.589
 3211TIP3   OH2 9575   4.882   4.745   6.164
 3211TIP3    H1 9576   4.860   4.655   6.190
 3211TIP3    H2 9577   4.823   4.800   6.216
 3212TIP3   OH2 9578   4.790   1.859   5.548
 3212TIP3    H1 9579   4.791   1.766   5.523
 3212TIP3    H2 9580   4.727   1.863   5.620
 3213TIP3   OH2 9581   6.410   7.617   2.466
 3213TIP3    H1 9582   6.348   7.687   2.445
 3213TIP3    H2 9583   6.447   7.591   2.381
 3214TIP3   OH2 9584   6.692   5.714   2.492
 3214TIP3    H1 9585   6.602   5.684   2.506
 3214TIP3    H2 9586   6.698   5.727   2.398
 3215TIP3   OH2 9587   1.289   6.914   4.179
 3215TIP3    H1 9588   1.256   6.919   4.090
 3215TIP3    H2 9589   1.312   7.004   4.202
 3216TIP3   OH2 9590   2.569   0.464   5.876
 3216TIP3    H1 9591   2.543   0.533   5.938
 3216TIP3    H2 9592   2.529   0.385   5.911
 3217TIP3   OH2 9593   3.213   0.961   6.638
 3217TIP3    H1 9594   3.288   0.918   6.597
 3217TIP3    H2 9595   3.203   1.043   6.589
 3218TIP3   OH2 9596   7.646   4.787   4.559
 3218TIP3    H1 9597   7.594   4.761   4.634
 3218TIP3    H2 9598   7.606   4.742   4.485
 3219TIP3   OH2 9599   4.566   4.235   6.305
 3219TIP3    H1 9600   4.563   4.291   6.383
 3219TIP3    H2 9601   4.479   4.245   6.265
 3220TIP3   OH2 9602   5.318   2.239   1.743
 3220TIP3    H1 9603   5.402   2.212   1.706
 3220TIP3    H2 9604   5.286   2.162   1.790
 3221TIP3   OH2 9605   6.493   4.566   3.171
 3221TIP3    H1 9606   6.436   4.643   3.181
 3221TIP3    H2 9607   6.553   4.591   3.101
 3222TIP3   OH2 9608   6.264   1.423   3.733
 3222TIP3    H1 9609   6.348   1.453   3.698
 3222TIP3    H2 9610   6.254   1.334   3.698
 3223TIP3   OH2 9611   0.855   0.292   2.280
 3223TIP3    H1 9612   0.794   0.282   2.353
 3223TIP3    H2 9613   0.799   0.305   2.203
 3224TIP3   OH2 9614   1.587   4.046   4.416
 3224TIP3    H1 9615   1.564   4.103   4.342
 3224TIP3    H2 9616   1.559   4.094   4.493
 3225TIP3   OH2 9617   7.933   3.419   5.483
 3225TIP3    H1 9618   7.893   3.494   5.438
 3225TIP3    H2 9619   7.880   3.406   5.561
 3226TIP3   OH2 9620   7.070   6.317   1.736
 3226TIP3    H1 9621   7.151   6.357   1.703
 3226TIP3    H2 9622   7.016   6.391   1.762
 3227TIP3   OH2 9623   3.226   2.606   1.491
 3227TIP3    H1 9624   3.169   2.578   1.420
 3227TIP3    H2 9625   3.279   2.529   1.511
 3228TIP3   OH2 9626   2.190   6.258   0.375
 3228TIP3    H1 9627   2.234   6.174   0.390
 3228TIP3    H2 9628   2.192   6.269   0.280
 3229TIP3   OH2 9629   5.249   3.043   5.753
 3229TIP3    H1 9630   5.267   3.134   5.729
 3229TIP3    H2 9631   5.175   3.018   5.696
 3230TIP3   OH2 9632   5.765   4.224   4.885
 3230TIP3    H1 9633   5.697   4.290   4.867
 3230TIP3    H2 9634   5.777   4.180   4.801
 3231TIP3   OH2 9635   0.419   5.450   5.282
 3231TIP3    H1 9636   0.451   5.418   5.197
 3231TIP3    H2 9637   0.484   5.514   5.310
 3232TIP3   OH2 9638   0.526   3.919   1.135
 3232TIP3    H1 9639   0.444   3.895   1.092
 3232TIP3    H2 9640   0.512   4.009   1.164
 3233TIP3   OH2 9641   3.879   5.093   2.534
 3233TIP3    H1 9642   3.943   5.128   2.595
 3233TIP3    H2 9643   3.814   5.162   2.523
 3234TIP3   OH2 9644   1.165   1.044   2.030
 3234TIP3    H1 9645   1.193   1.049   2.121
 3234TIP3    H2 9646   1.111   0.966   2.025
 3235TIP3   OH2 9647   2.708   2.707   4.305
 3235TIP3    H1 9648   2.653   2.777   4.270
 3235TIP3    H2 9649   2.793   2.748   4.321
 3236TIP3   OH2 9650   7.874   6.714   3.838
 3236TIP3    H1 9651   7.854   6.800   3.801
 3236TIP3    H2 9652   7.936   6.675   3.777
 3237TIP3   OH2 9653   4.644   1.780   3.781
 3237TIP3    H1 9654   4.696   1.703   3.760
 3237TIP3    H2 9655   4.559   1.763   3.740
 3238TIP3   OH2 9656   1.704   4.592   1.835
 3238TIP3    H1 9657   1.751   4.612   1.754
 3238TIP3    H2 9658   1.743   4.511   1.866
 3239TIP3   OH2 9659   0.167   5.308   6.070
 3239TIP3    H1 9660   0.248   5.347   6.037
 3239TIP3    H2 9661   0.130   5.374   6.128
 3240TIP3   OH2 9662   0.166   4.424   3.567
 3240TIP3    H1 9663   0.245   4.444   3.518
 3240TIP3    H2 9664   0.184   4.339   3.608
 3241TIP3   OH2 9665   6.330   6.567   1.431
 3241TIP3    H1 9666   6.404   6.535   1.483
 3241TIP3    H2 9667   6.282   6.488   1.406
 3242TIP3   OH2 9668   1.306   5.009   4.439
 3242TIP3    H1 9669   1.393   4.991   4.403
 3242TIP3    H2 9670   1.315   4.992   4.533
 3243TIP3   OH2 9671   1.338   0.838   2.585
 3243TIP3    H1 9672   1.412   0.831   2.525
 3243TIP3    H2 9673   1.361   0.909   2.644
 3244TIP3   OH2 9674   0.777   6.853   2.343
 3244TIP3    H1 9675   0.850   6.792   2.342
 3244TIP3    H2 9676   0.797   6.915   2.273
 3245TIP3   OH2 9677   4.310   7.216   2.792
 3245TIP3    H1 9678   4.392   7.198   2.745
 3245TIP3    H2 9679   4.256   7.265   2.729
 3246TIP3   OH2 9680   6.511   5.472   2.598
 3246TIP3    H1 9681   6.545   5.400   2.546
 3246TIP3    H2 9682   6.417   5.456   2.603
 3247TIP3   OH2 9683   1.105   1.780   3.457
 3247TIP3    H1 9684   1.199   1.795   3.447
 3247TIP3    H2 9685   1.076   1.851   3.515
 3248TIP3   OH2 9686   7.024   7.148   0.571
 3248TIP3    H1 9687   7.054   7.084   0.505
 3248TIP3    H2 9688   7.012   7.229   0.521
 3249TIP3   OH2 9689   8.211   7.185   3.310
 3249TIP3    H1 9690   8.253   7.169   3.225
 3249TIP3    H2 9691   8.126   7.224   3.287
 3250TIP3   OH2 9692   5.099   1.176   1.494
 3250TIP3    H1 9693   5.166   1.166   1.426
 3250TIP3    H2 9694   5.104   1.095   1.544
 3251TIP3   OH2 9695   2.871   4.170   5.839
 3251TIP3    H1 9696   2.818   4.095   5.865
 3251TIP3    H2 9697   2.962   4.142   5.855
 3252TIP3   OH2 9698   7.892   3.267   4.757
 3252TIP3    H1 9699   7.810   3.315   4.767
 3252TIP3    H2 9700   7.958   3.334   4.737
 3253TIP3   OH2 9701   5.957   0.536   6.041
 3253TIP3    H1 9702   5.960   0.617   6.092
 3253TIP3    H2 9703   6.009   0.555   5.963
 3254TIP3   OH2 9704   6.638   0.384   0.217
 3254TIP3    H1 9705   6.599   0.353   0.136
 3254TIP3    H2 9706   6.683   0.308   0.253
 3255TIP3   OH2 9707   7.940   6.430   3.142
 3255TIP3    H1 9708   8.002   6.359   3.126
 3255TIP3    H2 9709   7.988   6.509   3.115
 3256TIP3   OH2 9710   6.072   4.200   2.375
 3256TIP3    H1 9711   6.167   4.196   2.375
 3256TIP3    H2 9712   6.043   4.109   2.386
 3257TIP3   OH2 9713   5.055   5.251   5.625
 3257TIP3    H1 9714   5.059   5.308   5.548
 3257TIP3    H2 9715   5.146   5.228   5.643
 3258TIP3   OH2 9716   3.584   6.956   3.866
 3258TIP3    H1 9717   3.572   6.988   3.777
 3258TIP3    H2 9718   3.509   6.990   3.914
 3259TIP3   OH2 9719   2.654   5.855   3.601
 3259TIP3    H1 9720   2.652   5.782   3.539
 3259TIP3    H2 9721   2.689   5.929   3.550
 3260TIP3   OH2 9722   4.837   7.158   4.973
 3260TIP3    H1 9723   4.792   7.074   4.965
 3260TIP3    H2 9724   4.920   7.137   5.014
 3261TIP3   OH2 9725   4.682   3.977   5.771
 3261TIP3    H1 9726   4.629   4.024   5.835
 3261TIP3    H2 9727   4.673   3.885   5.796
 3262TIP3   OH2 9728   7.381   2.102   3.717
 3262TIP3    H1 9729   7.315   2.102   3.647
 3262TIP3    H2 9730   7.454   2.152   3.680
 3263TIP3   OH2 9731   5.699   0.936   0.424
 3263TIP3    H1 9732   5.781   0.904   0.463
 3263TIP3    H2 9733   5.728   0.991   0.351
 3264TIP3   OH2 9734   4.709   3.291   5.526
 3264TIP3    H1 9735   4.753   3.212   5.495
 3264TIP3    H2 9736   4.705   3.348   5.449
 3265TIP3   OH2 9737   4.324   4.618   0.560
 3265TIP3    H1 9738   4.376   4.671   0.499
 3265TIP3    H2 9739   4.338   4.528   0.532
 3266TIP3   OH2 9740   6.761   6.569   6.561
 3266TIP3    H1 9741   6.723   6.560   6.474
 3266TIP3    H2 9742   6.853   6.592   6.545
 3267TIP3   OH2 9743   4.960   6.924   3.686
 3267TIP3    H1 9744   4.905   6.995   3.655
 3267TIP3    H2 9745   5.002   6.890   3.607
 3268TIP3   OH2 9746   7.087   7.281   3.910
 3268TIP3    H1 9747   7.121   7.259   3.823
 3268TIP3    H2 9748   7.150   7.243   3.971
 3269TIP3   OH2 9749   0.532   3.867   5.798
 3269TIP3    H1 9750   0.579   3.827   5.725
 3269TIP3    H2 9751   0.533   3.799   5.866
 3270TIP3   OH2 9752   1.574   5.218   6.084
 3270TIP3    H1 9753   1.574   5.122   6.089
 3270TIP3    H2 9754   1.500   5.245   6.137
 3271TIP3   OH2 9755   6.398   2.324   6.150
 3271TIP3    H1 9756   6.329   2.390   6.159
 3271TIP3    H2 9757   6.360   2.259   6.091
 3272TIP3   OH2 9758   0.691   2.431   0.476
 3272TIP3    H1 9759   0.616   2.417   0.418
 3272TIP3    H2 9760   0.654   2.480   0.550
 3273TIP3   OH2 9761   7.535   5.826   0.986
 3273TIP3    H1 9762   7.445   5.805   1.013
 3273TIP3    H2 9763   7.591   5.780   1.048
 3274TIP3   OH2 9764   3.998   2.828   6.742
 3274TIP3    H1 9765   3.964   2.906   6.787
 3274TIP3    H2 9766   3.969   2.840   6.651
 3275TIP3   OH2 9767   1.247   4.916   1.687
 3275TIP3    H1 9768   1.270   4.926   1.594
 3275TIP3    H2 9769   1.328   4.889   1.729
 3276TIP3   OH2 9770   1.216   6.670   1.746
 3276TIP3    H1 9771   1.307   6.644   1.758
 3276TIP3    H2 9772   1.166   6.614   1.806
 3277TIP3   OH2 9773   4.849   4.610   0.038
 3277TIP3    H1 9774   4.773   4.561   0.067
 3277TIP3    H2 9775   4.824   4.645  -0.047
 3278TIP3   OH2 9776   0.173   7.349   3.856
 3278TIP3    H1 9777   0.255   7.330   3.811
 3278TIP3    H2 9778   0.117   7.275   3.835
 3279TIP3   OH2 9779   6.785   7.446   5.684
 3279TIP3    H1 9780   6.836   7.513   5.639
 3279TIP3    H2 9781   6.753   7.489   5.764
 3280TIP3   OH2 9782   0.567   0.597   1.565
 3280TIP3    H1 9783   0.501   0.651   1.609
 3280TIP3    H2 9784   0.601   0.653   1.495
 3281TIP3   OH2 9785   7.508   2.844   4.130
 3281TIP3    H1 9786   7.514   2.842   4.035
 3281TIP3    H2 9787   7.517   2.937   4.153
 3282TIP3   OH2 9788   4.831   5.606   4.513
 3282TIP3    H1 9789   4.850   5.516   4.541
 3282TIP3    H2 9790   4.771   5.640   4.579
 3283TIP3   OH2 9791   6.683   1.264   6.649
 3283TIP3    H1 9792   6.763   1.313   6.632
 3283TIP3    H2 9793   6.713   1.178   6.678
 3284TIP3   OH2 9794   5.788   2.307   5.803
 3284TIP3    H1 9795   5.855   2.362   5.843
 3284TIP3    H2 9796   5.805   2.313   5.709
 3285TIP3   OH2 9797   8.126   1.453   3.718
 3285TIP3    H1 9798   8.214   1.477   3.749
 3285TIP3    H2 9799   8.077   1.534   3.718
 3286TIP3   OH2 9800   2.156   3.864   6.387
 3286TIP3    H1 9801   2.240   3.841   6.346
 3286TIP3    H2 9802   2.179   3.925   6.457
 3287TIP3   OH2 9803   1.413   5.771   2.472
 3287TIP3    H1 9804   1.438   5.714   2.545
 3287TIP3    H2 9805   1.453   5.731   2.395
 3288TIP3   OH2 9806   7.545   3.867   4.461
 3288TIP3    H1 9807   7.567   3.943   4.515
 3288TIP3    H2 9808   7.598   3.877   4.382
 3289TIP3   OH2 9809   5.959   0.795   4.517
 3289TIP3    H1 9810   5.879   0.844   4.534
 3289TIP3    H2 9811   6.021   0.827   4.583
 3290TIP3   OH2 9812   3.589   6.365   5.353
 3290TIP3    H1 9813   3.503   6.389   5.386
 3290TIP3    H2 9814   3.626   6.447   5.321
 3291TIP3   OH2 9815   6.791   5.027   6.685
 3291TIP3    H1 9816   6.862   4.963   6.699
 3291TIP3    H2 9817   6.720   4.996   6.741
 3292TIP3   OH2 9818   1.713   6.357   4.274
 3292TIP3    H1 9819   1.693   6.421   4.342
 3292TIP3    H2 9820   1.703   6.405   4.192
 3293TIP3   OH2 9821   5.159   2.426   0.234
 3293TIP3    H1 9822   5.068   2.445   0.256
 3293TIP3    H2 9823   5.160   2.335   0.207
 3294TIP3   OH2 9824   6.697   1.079   5.729
 3294TIP3    H1 9825   6.606   1.107   5.720
 3294TIP3    H2 9826   6.749   1.157   5.708
 3295TIP3   OH2 9827   0.903   2.886   0.723
 3295TIP3    H1 9828   0.933   2.905   0.811
 3295TIP3    H2 9829   0.809   2.869   0.732
 3296TIP3   OH2 9830   6.720   3.428   2.765
 3296TIP3    H1 9831   6.648   3.482   2.797
 3296TIP3    H2 9832   6.754   3.384   2.843
 3297TIP3   OH2 9833   2.122   0.177   1.613
 3297TIP3    H1 9834   2.189   0.129   1.565
 3297TIP3    H2 9835   2.170   0.215   1.687
 3298TIP3   OH2 9836   4.327   0.910   4.870
 3298TIP3    H1 9837   4.242   0.867   4.859
 3298TIP3    H2 9838   4.350   0.940   4.782
 3299TIP3   OH2 9839   7.332   1.723   3.690
 3299TIP3    H1 9840   7.370   1.809   3.674
 3299TIP3    H2 9841   7.338   1.678   3.606
 3300TIP3   OH2 9842   5.713   4.907   5.935
 3300TIP3    H1 9843   5.659   4.844   5.886
 3300TIP3    H2 9844   5.737   4.860   6.015
 3301TIP3   OH2 9845   6.713   3.142   3.407
 3301TIP3    H1 9846   6.755   3.057   3.422
 3301TIP3    H2 9847   6.664   3.131   3.326
 3302TIP3   OH2 9848   1.715   3.269   2.206
 3302TIP3    H1 9849   1.703   3.201   2.272
 3302TIP3    H2 9850   1.801   3.307   2.227
 3303TIP3   OH2 9851   5.345   6.954   3.530
 3303TIP3    H1 9852   5.367   6.988   3.617
 3303TIP3    H2 9853   5.277   7.013   3.497
 3304TIP3   OH2 9854   1.706   3.120   1.976
 3304TIP3    H1 9855   1.693   3.168   2.057
 3304TIP3    H2 9856   1.632   3.146   1.921
 3305TIP3   OH2 9857   5.050   7.080   5.132
 3305TIP3    H1 9858   5.114   7.094   5.201
 3305TIP3    H2 9859   4.990   7.014   5.166
 3306TIP3   OH2 9860   0.830   4.232   5.248
 3306TIP3    H1 9861   0.842   4.306   5.307
 3306TIP3    H2 9862   0.894   4.246   5.178
 3307TIP3   OH2 9863   2.924   5.303   4.055
 3307TIP3    H1 9864   2.978   5.299   4.134
 3307TIP3    H2 9865   2.969   5.249   3.991
 3308TIP3   OH2 9866   1.240   2.191   1.514
 3308TIP3    H1 9867   1.249   2.172   1.607
 3308TIP3    H2 9868   1.311   2.252   1.494
 3309TIP3   OH2 9869   1.432   6.729   3.562
 3309TIP3    H1 9870   1.406   6.751   3.652
 3309TIP3    H2 9871   1.364   6.768   3.508
 3310TIP3   OH2 9872   0.700   6.869   4.737
 3310TIP3    H1 9873   0.699   6.963   4.717
 3310TIP3    H2 9874   0.774   6.834   4.688
 3311TIP3   OH2 9875   6.865   5.946   5.832
 3311TIP3    H1 9876   6.939   6.006   5.840
 3311TIP3    H2 9877   6.898   5.876   5.775
 3312TIP3   OH2 9878   6.259   4.169   1.633
 3312TIP3    H1 9879   6.182   4.133   1.588
 3312TIP3    H2 9880   6.275   4.108   1.705
 3313TIP3   OH2 9881   1.565   4.236   2.390
 3313TIP3    H1 9882   1.611   4.253   2.472
 3313TIP3    H2 9883   1.496   4.302   2.387
 3314TIP3   OH2 9884   3.245   6.772   6.580
 3314TIP3    H1 9885   3.230   6.810   6.667
 3314TIP3    H2 9886   3.157   6.760   6.544
 3315TIP3   OH2 9887   1.125   1.493   2.569
 3315TIP3    H1 9888   1.060   1.546   2.523
 3315TIP3    H2 9889   1.187   1.466   2.500
 3316TIP3   OH2 9890   4.931   1.424   5.070
 3316TIP3    H1 9891   4.914   1.504   5.020
 3316TIP3    H2 9892   4.918   1.353   5.007
 3317TIP3   OH2 9893   2.485   4.059   4.134
 3317TIP3    H1 9894   2.485   4.076   4.040
 3317TIP3    H2 9895   2.538   3.980   4.144
 3318TIP3   OH2 9896   0.435   4.047   3.838
 3318TIP3    H1 9897   0.370   4.044   3.768
 3318TIP3    H2 9898   0.466   4.138   3.837
 3319TIP3   OH2 9899   6.600   7.661   5.070
 3319TIP3    H1 9900   6.591   7.623   4.983
 3319TIP3    H2 9901   6.616   7.754   5.054
 3320TIP3   OH2 9902   5.025   2.173   4.962
 3320TIP3    H1 9903   5.120   2.170   4.949
 3320TIP3    H2 9904   5.008   2.104   5.026
 3321TIP3   OH2 9905   5.278   3.249   4.227
 3321TIP3    H1 9906   5.336   3.314   4.186
 3321TIP3    H2 9907   5.302   3.166   4.187
 3322TIP3   OH2 9908   7.208   2.718   3.657
 3322TIP3    H1 9909   7.243   2.806   3.672
 3322TIP3    H2 9910   7.200   2.681   3.745
 3323TIP3   OH2 9911   0.236   5.181   3.252
 3323TIP3    H1 9912   0.224   5.102   3.199
 3323TIP3    H2 9913   0.329   5.202   3.243
 3324TIP3   OH2 9914   5.387   1.961   6.756
 3324TIP3    H1 9915   5.411   1.920   6.673
 3324TIP3    H2 9916   5.471   1.975   6.801
 3325TIP3   OH2 9917   3.310   3.101   1.525
 3325TIP3    H1 9918   3.322   3.006   1.514
 3325TIP3    H2 9919   3.393   3.131   1.562
 3326TIP3   OH2 9920   0.625   5.020   1.176
 3326TIP3    H1 9921   0.623   4.961   1.100
 3326TIP3    H2 9922   0.537   5.012   1.214
 3327TIP3   OH2 9923   0.195   5.013   4.446
 3327TIP3    H1 9924   0.152   4.974   4.369
 3327TIP3    H2 9925   0.175   4.952   4.517
 3328TIP3   OH2 9926   4.128   5.849   2.747
 3328TIP3    H1 9927   4.084   5.823   2.828
 3328TIP3    H2 9928   4.179   5.771   2.721
 3329TIP3   OH2 9929   7.330   2.220   2.457
 3329TIP3    H1 9930   7.379   2.302   2.457
 3329TIP3    H2 9931   7.290   2.216   2.370
 3330TIP3   OH2 9932   4.402   1.457   3.660
 3330TIP3    H1 9933   4.367   1.368   3.654
 3330TIP3    H2 9934   4.350   1.498   3.729
 3331TIP3   OH2 9935   0.254   5.660   3.247
 3331TIP3    H1 9936   0.188   5.591   3.261
 3331TIP3    H2 9937   0.287   5.679   3.335
 3332TIP3   OH2 9938   5.238   4.028   3.373
 3332TIP3    H1 9939   5.239   3.986   3.287
 3332TIP3    H2 9940   5.201   4.115   3.357
 3333TIP3   OH2 9941   1.975   1.275   6.735
 3333TIP3    H1 9942   2.041   1.207   6.721
 3333TIP3    H2 9943   1.933   1.286   6.650
 3334TIP3   OH2 9944   2.666   7.713   0.056
 3334TIP3    H1 9945   2.725   7.771   0.104
 3334TIP3    H2 9946   2.627   7.658   0.124
 3335TIP3   OH2 9947   1.500   3.209   1.830
 3335TIP3    H1 9948   1.442   3.133   1.834
 3335TIP3    H2 9949   1.495   3.238   1.739
 3336TIP3   OH2 9950   4.227   2.883   1.176
 3336TIP3    H1 9951   4.134   2.866   1.160
 3336TIP3    H2 9952   4.269   2.798   1.165
 3337TIP3   OH2 9953   5.136   0.564   3.547
 3337TIP3    H1 9954   5.178   0.650   3.542
 3337TIP3    H2 9955   5.204   0.507   3.583
 3338TIP3   OH2 9956   4.552   6.560   6.280
 3338TIP3    H1 9957   4.559   6.589   6.189
 3338TIP3    H2 9958   4.467   6.516   6.285
 3339TIP3   OH2 9959   2.992   4.277   3.673
 3339TIP3    H1 9960   3.042   4.347   3.714
 3339TIP3    H2 9961   2.939   4.241   3.743
 3340TIP3   OH2 9962   3.624   3.538   2.223
 3340TIP3    H1 9963   3.550   3.568   2.170
 3340TIP3    H2 9964   3.592   3.540   2.313
 3341TIP3   OH2 9965   5.948   7.600   2.268
 3341TIP3    H1 9966   5.963   7.532   2.333
 3341TIP3    H2 9967   5.855   7.590   2.244
 3342TIP3   OH2 9968   4.426   1.181   5.354
 3342TIP3    H1 9969   4.437   1.117   5.284
 3342TIP3    H2 9970   4.348   1.231   5.328
 3343TIP3   OH2 9971   1.240   5.205   1.772
 3343TIP3    H1 9972   1.214   5.249   1.691
 3343TIP3    H2 9973   1.297   5.134   1.743
 3344TIP3   OH2 9974   2.287   2.179   1.985
 3344TIP3    H1 9975   2.371   2.209   2.018
 3344TIP3    H2 9976   2.249   2.130   2.059
 3345TIP3   OH2 9977   4.361   1.832   4.097
 3345TIP3    H1 9978   4.367   1.853   4.191
 3345TIP3    H2 9979   4.321   1.909   4.058
 3346TIP3   OH2 9980   0.615   1.987   5.408
 3346TIP3    H1 9981   0.635   2.075   5.377
 3346TIP3    H2 9982   0.519   1.985   5.412
 3347TIP3   OH2 9983   7.990   3.515   3.622
 3347TIP3    H1 9984   7.945   3.431   3.617
 3347TIP3    H2 9985   8.083   3.492   3.623
 3348TIP3   OH2 9986   2.086   2.736   5.629
 3348TIP3    H1 9987   2.049   2.766   5.711
 3348TIP3    H2 9988   2.079   2.811   5.570
 3349TIP3   OH2 9989   5.843   0.073   3.563
 3349TIP3    H1 9990   5.817  -0.013   3.529
 3349TIP3    H2 9991   5.922   0.056   3.613
 3350TIP3   OH2 9992   7.075   4.231   2.365
 3350TIP3    H1 9993   7.150   4.224   2.425
 3350TIP3    H2 9994   7.073   4.147   2.319
 3351TIP3   OH2 9995   3.887   1.386   2.076
 3351TIP3    H1 9996   3.795   1.402   2.058
 3351TIP3    H2 9997   3.901   1.423   2.163
 3352TIP3   OH2 9998   0.657   1.712   1.147
 3352TIP3    H1 9999   0.725   1.697   1.083
 3352TIP3    H210000   0.703   1.749   1.223
 3353TIP3   OH210001   2.917   4.408   3.447
 3353TIP3    H110002   2.917   4.359   3.529
 3353TIP3    H210003   2.827   4.402   3.415
 3354TIP3   OH210004   0.337   6.408   1.515
 3354TIP3    H110005   0.290   6.449   1.442
 3354TIP3    H210006   0.326   6.469   1.587
 3355TIP3   OH210007   4.999   5.234   2.649
 3355TIP3    H110008   5.027   5.287   2.724
 3355TIP3    H210009   4.932   5.175   2.684
 3356TIP3   OH210010   4.189   2.941   4.065
 3356TIP3    H110011   4.173   2.929   3.972
 3356TIP3    H210012   4.103   2.926   4.106
 3357TIP3   OH210013   3.707   1.702   0.790
 3357TIP3    H110014   3.664   1.767   0.845
 3357TIP3    H210015   3.707   1.622   0.843
 3358TIP3   OH210016   3.068   1.462   6.279
 3358TIP3    H110017   3.159   1.461   6.306
 3358TIP3    H210018   3.067   1.508   6.196
 3359TIP3   OH210019   3.350   4.818   5.203
 3359TIP3    H110020   3.301   4.762   5.264
 3359TIP3    H210021   3.284   4.848   5.141
 3360TIP3   OH210022   1.545   4.276   1.086
 3360TIP3    H110023   1.559   4.238   0.999
 3360TIP3    H210024   1.473   4.338   1.074
 3361TIP3   OH210025   4.759   6.699   1.616
 3361TIP3    H110026   4.838   6.710   1.562
 3361TIP3    H210027   4.768   6.611   1.652
 3362TIP3   OH210028   6.396   2.050   4.532
 3362TIP3    H110029   6.321   1.991   4.543
 3362TIP3    H210030   6.365   2.117   4.471
 3363TIP3   OH210031   1.055   5.577   5.039
 3363TIP3    H110032   0.996   5.628   4.984
 3363TIP3    H210033   1.041   5.610   5.128
 3364TIP3   OH210034   3.607   2.271   2.734
 3364TIP3    H110035   3.522   2.310   2.716
 3364TIP3    H210036   3.626   2.217   2.656
 3365TIP3   OH210037   8.272   6.798   2.554
 3365TIP3    H110038   8.239   6.832   2.637
 3365TIP3    H210039   8.298   6.876   2.504
 3366TIP3   OH210040   0.097   0.677   1.082
 3366TIP3    H110041   0.153   0.668   1.005
 3366TIP3    H210042   0.060   0.764   1.074
 3367TIP3   OH210043   6.932   0.134   3.288
 3367TIP3    H110044   6.999   0.068   3.269
 3367TIP3    H210045   6.971   0.189   3.356
 3368TIP3   OH210046   2.286   5.920   3.981
 3368TIP3    H110047   2.220   5.908   4.049
 3368TIP3    H210048   2.244   5.980   3.919
 3369TIP3   OH210049   1.389   2.244   4.533
 3369TIP3    H110050   1.380   2.337   4.513
 3369TIP3    H210051   1.478   2.222   4.507
 3370TIP3   OH210052   2.965   5.832   3.346
 3370TIP3    H110053   3.015   5.841   3.427
 3370TIP3    H210054   3.013   5.886   3.283
 3371TIP3   OH210055   2.480   0.491   6.310
 3371TIP3    H110056   2.395   0.529   6.287
 3371TIP3    H210057   2.545   0.552   6.274
 3372TIP3   OH210058   3.452   3.475   4.479
 3372TIP3    H110059   3.402   3.504   4.403
 3372TIP3    H210060   3.477   3.385   4.457
 3373TIP3   OH210061   5.303   3.622   3.134
 3373TIP3    H110062   5.398   3.626   3.118
 3373TIP3    H210063   5.266   3.594   3.051
 3374TIP3   OH210064   2.907   0.784   4.007
 3374TIP3    H110065   2.960   0.710   4.036
 3374TIP3    H210066   2.872   0.758   3.922
 3375TIP3   OH210067   1.148   5.669   0.128
 3375TIP3    H110068   1.056   5.696   0.129
 3375TIP3    H210069   1.196   5.741   0.168
 3376TIP3   OH210070   2.580   4.422   2.773
 3376TIP3    H110071   2.601   4.483   2.844
 3376TIP3    H210072   2.663   4.409   2.727
 3377TIP3   OH210073   7.522   1.909   1.505
 3377TIP3    H110074   7.487   1.821   1.522
 3377TIP3    H210075   7.458   1.949   1.447
 3378TIP3   OH210076   0.315   4.126   4.235
 3378TIP3    H110077   0.403   4.163   4.230
 3378TIP3    H210078   0.305   4.098   4.326
 3379TIP3   OH210079   4.745   4.565   6.590
 3379TIP3    H110080   4.814   4.512   6.630
 3379TIP3    H210081   4.741   4.644   6.644
 3380TIP3   OH210082   6.347   0.180   2.617
 3380TIP3    H110083   6.336   0.094   2.658
 3380TIP3    H210084   6.331   0.243   2.687
 3381TIP3   OH210085   5.836   1.870   6.122
 3381TIP3    H110086   5.851   1.963   6.108
 3381TIP3    H210087   5.798   1.865   6.210
 3382TIP3   OH210088   5.302   3.759   1.025
 3382TIP3    H110089   5.381   3.799   0.988
 3382TIP3    H210090   5.254   3.832   1.063
 3383TIP3   OH210091   5.260   2.905   1.055
 3383TIP3    H110092   5.269   2.941   1.143
 3383TIP3    H210093   5.343   2.926   1.012
 3384TIP3   OH210094   6.792   6.384   5.645
 3384TIP3    H110095   6.714   6.328   5.637
 3384TIP3    H210096   6.823   6.368   5.734
 3385TIP3   OH210097   7.236   1.580   1.733
 3385TIP3    H110098   7.305   1.637   1.769
 3385TIP3    H210099   7.155   1.617   1.769
 3386TIP3   OH210100   4.509   2.184   0.801
 3386TIP3    H110101   4.414   2.185   0.801
 3386TIP3    H210102   4.532   2.101   0.843
 3387TIP3   OH210103   6.622   1.547   3.188
 3387TIP3    H110104   6.571   1.473   3.155
 3387TIP3    H210105   6.581   1.569   3.272
 3388TIP3   OH210106   2.365   6.046   6.238
 3388TIP3    H110107   2.310   6.087   6.305
 3388TIP3    H210108   2.303   6.001   6.181
 3389TIP3   OH210109   0.806   0.281   4.226
 3389TIP3    H110110   0.817   0.249   4.136
 3389TIP3    H210111   0.884   0.334   4.242
 3390TIP3   OH210112   7.269   0.376   3.827
 3390TIP3    H110113   7.181   0.393   3.794
 3390TIP3    H210114   7.305   0.463   3.846
 3391TIP3   OH210115   3.143   0.313   4.878
 3391TIP3    H110116   3.141   0.362   4.960
 3391TIP3    H210117   3.222   0.343   4.833
 3392TIP3   OH210118   5.260   1.539   3.818
 3392TIP3    H110119   5.329   1.474   3.812
 3392TIP3    H210120   5.273   1.596   3.742
 3393TIP3   OH210121   0.707   0.366   1.624
 3393TIP3    H110122   0.676   0.444   1.577
 3393TIP3    H210123   0.653   0.362   1.702
 3394TIP3   OH210124   6.124   7.810   6.095
 3394TIP3    H110125   6.035   7.819   6.128
 3394TIP3    H210126   6.175   7.783   6.171
 3395TIP3   OH210127   3.236   4.340   4.977
 3395TIP3    H110128   3.222   4.255   4.935
 3395TIP3    H210129   3.309   4.325   5.037
 3396TIP3   OH210130   8.028   1.374   5.992
 3396TIP3    H110131   8.084   1.452   5.997
 3396TIP3    H210132   8.089   1.302   5.981
 3397TIP3   OH210133   3.970   1.342   1.772
 3397TIP3    H110134   3.980   1.323   1.679
 3397TIP3    H210135   3.878   1.367   1.781
 3398TIP3   OH210136   0.844   5.319   2.930
 3398TIP3    H110137   0.784   5.383   2.891
 3398TIP3    H210138   0.913   5.372   2.970
 3399TIP3   OH210139   5.974   2.682   3.386
 3399TIP3    H110140   5.986   2.638   3.470
 3399TIP3    H210141   6.033   2.758   3.389
 3400TIP3   OH210142   5.678   6.904   0.110
 3400TIP3    H110143   5.618   6.973   0.082
 3400TIP3    H210144   5.722   6.876   0.030
 3401TIP3   OH210145   8.062   2.343   3.543
 3401TIP3    H110146   8.106   2.425   3.518
 3401TIP3    H210147   8.119   2.306   3.610
 3402TIP3   OH210148   7.557   3.062   2.777
 3402TIP3    H110149   7.492   3.114   2.730
 3402TIP3    H210150   7.630   3.053   2.716
 3403TIP3   OH210151   6.105   2.968   5.962
 3403TIP3    H110152   6.086   2.888   5.912
 3403TIP3    H210153   6.065   2.953   6.047
 3404TIP3   OH210154   6.037   2.941   3.742
 3404TIP3    H110155   6.107   2.959   3.805
 3404TIP3    H210156   6.016   3.027   3.704
 3405TIP3   OH210157   0.581   7.337   1.099
 3405TIP3    H110158   0.493   7.374   1.107
 3405TIP3    H210159   0.586   7.272   1.169
 3406TIP3   OH210160   0.387   2.190   2.915
 3406TIP3    H110161   0.340   2.171   2.834
 3406TIP3    H210162   0.341   2.140   2.982
 3407TIP3   OH210163   6.631   4.524   3.805
 3407TIP3    H110164   6.538   4.508   3.820
 3407TIP3    H210165   6.637   4.619   3.795
 3408TIP3   OH210166   5.707   3.992   3.917
 3408TIP3    H110167   5.763   3.931   3.965
 3408TIP3    H210168   5.722   3.970   3.825
 3409TIP3   OH210169   6.620   1.945   3.827
 3409TIP3    H110170   6.629   2.031   3.786
 3409TIP3    H210171   6.709   1.909   3.827
 3410TIP3   OH210172   1.455   0.051   6.288
 3410TIP3    H110173   1.362   0.069   6.304
 3410TIP3    H210174   1.486   0.006   6.366
 3411TIP3   OH210175   7.485   7.479   0.748
 3411TIP3    H110176   7.543   7.549   0.717
 3411TIP3    H210177   7.403   7.493   0.700
 3412TIP3   OH210178   1.928   7.259   2.364
 3412TIP3    H110179   1.894   7.191   2.306
 3412TIP3    H210180   1.933   7.216   2.450
 3413TIP3   OH210181   7.750   0.112   2.182
 3413TIP3    H110182   7.834   0.113   2.227
 3413TIP3    H210183   7.763   0.052   2.108
 3414TIP3   OH210184   5.387   4.785   5.320
 3414TIP3    H110185   5.293   4.775   5.336
 3414TIP3    H210186   5.392   4.827   5.234
 3415TIP3   OH210187   2.514   3.929   0.275
 3415TIP3    H110188   2.502   3.890   0.362
 3415TIP3    H210189   2.577   4.000   0.289
 3416TIP3   OH210190   6.910   1.857   0.894
 3416TIP3    H110191   6.905   1.808   0.976
 3416TIP3    H210192   6.931   1.946   0.921
 3417TIP3   OH210193   0.407   2.236   3.477
 3417TIP3    H110194   0.452   2.309   3.433
 3417TIP3    H210195   0.325   2.226   3.428
 3418TIP3   OH210196   4.369   1.627   1.844
 3418TIP3    H110197   4.413   1.705   1.877
 3418TIP3    H210198   4.307   1.660   1.780
 3419TIP3   OH210199   2.662   4.548   3.048
 3419TIP3    H110200   2.601   4.553   3.121
 3419TIP3    H210201   2.699   4.636   3.041
 3420TIP3   OH210202   7.114   4.598   1.541
 3420TIP3    H110203   7.124   4.573   1.633
 3420TIP3    H210204   7.024   4.572   1.519
 3421TIP3   OH210205   5.902   4.518   4.879
 3421TIP3    H110206   5.827   4.480   4.832
 3421TIP3    H210207   5.885   4.612   4.876
 3422TIP3   OH210208   1.785   1.997   0.379
 3422TIP3    H110209   1.692   2.014   0.396
 3422TIP3    H210210   1.832   2.062   0.431
 3423TIP3   OH210211   4.317   0.719   0.971
 3423TIP3    H110212   4.230   0.689   0.997
 3423TIP3    H210213   4.315   0.720   0.875
 3424TIP3   OH210214   7.255   7.390   2.200
 3424TIP3    H110215   7.343   7.395   2.163
 3424TIP3    H210216   7.197   7.377   2.125
 3425TIP3   OH210217   3.365   7.117   5.057
 3425TIP3    H110218   3.295   7.146   5.114
 3425TIP3    H210219   3.323   7.100   4.973
 3426TIP3   OH210220   5.454   5.431   3.500
 3426TIP3    H110221   5.550   5.425   3.499
 3426TIP3    H210222   5.436   5.512   3.548
 3427TIP3   OH210223   1.832   6.038   6.057
 3427TIP3    H110224   1.899   5.993   6.108
 3427TIP3    H210225   1.853   6.131   6.068
 3428TIP3   OH210226   7.214   1.163   3.370
 3428TIP3    H110227   7.228   1.199   3.283
 3428TIP3    H210228   7.248   1.074   3.365
 3429TIP3   OH210229   0.031   3.845   6.428
 3429TIP3    H110230   0.081   3.853   6.509
 3429TIP3    H210231   0.097   3.828   6.361
 3430TIP3   OH210232   5.636   6.126   0.907
 3430TIP3    H110233   5.601   6.214   0.891
 3430TIP3    H210234   5.725   6.128   0.872
 3431TIP3   OH210235   5.413   4.355   1.882
 3431TIP3    H110236   5.383   4.381   1.795
 3431TIP3    H210237   5.423   4.260   1.878
 3432TIP3   OH210238   8.191   3.126   0.613
 3432TIP3    H110239   8.264   3.064   0.605
 3432TIP3    H210240   8.162   3.116   0.704
 3433TIP3   OH210241   2.594   2.685   2.557
 3433TIP3    H110242   2.508   2.662   2.521
 3433TIP3    H210243   2.616   2.612   2.614
 3434TIP3   OH210244   4.989   3.906   0.979
 3434TIP3    H110245   4.948   3.824   1.008
 3434TIP3    H210246   4.922   3.948   0.926
 3435TIP3   OH210247   6.408   3.797   2.798
 3435TIP3    H110248   6.499   3.792   2.769
 3435TIP3    H210249   6.377   3.881   2.764
 3436TIP3   OH210250   5.148   2.249   6.128
 3436TIP3    H110251   5.082   2.182   6.145
 3436TIP3    H210252   5.231   2.202   6.124
 3437TIP3   OH210253   0.185   4.749   4.875
 3437TIP3    H110254   0.183   4.662   4.836
 3437TIP3    H210255   0.198   4.733   4.968
 3438TIP3   OH210256   0.869   6.110   1.878
 3438TIP3    H110257   0.953   6.067   1.893
 3438TIP3    H210258   0.810   6.068   1.941
 3439TIP3   OH210259   2.113   0.159   5.105
 3439TIP3    H110260   2.118   0.171   5.010
 3439TIP3    H210261   2.143   0.070   5.121
 3440TIP3   OH210262   5.324   0.322   6.546
 3440TIP3    H110263   5.398   0.371   6.581
 3440TIP3    H210264   5.249   0.379   6.558
 3441TIP3   OH210265   0.766   5.562   4.969
 3441TIP3    H110266   0.679   5.528   4.991
 3441TIP3    H210267   0.795   5.507   4.896
 3442TIP3   OH210268   7.801   0.103   4.698
 3442TIP3    H110269   7.706   0.111   4.699
 3442TIP3    H210270   7.833   0.189   4.671
 3443TIP3   OH210271   2.225   6.183   5.977
 3443TIP3    H110272   2.195   6.141   6.057
 3443TIP3    H210273   2.164   6.151   5.909
 3444TIP3   OH210274   2.224   7.134   1.544
 3444TIP3    H110275   2.181   7.050   1.530
 3444TIP3    H210276   2.273   7.123   1.625
 3445TIP3   OH210277   4.033   0.868   1.027
 3445TIP3    H110278   3.964   0.873   1.093
 3445TIP3    H210279   4.036   0.776   1.002
 3446TIP3   OH210280   0.018   1.977   4.014
 3446TIP3    H110281  -0.036   1.986   4.093
 3446TIP3    H210282  -0.042   1.992   3.942
 3447TIP3   OH210283   6.244   7.104   2.912
 3447TIP3    H110284   6.157   7.131   2.940
 3447TIP3    H210285   6.282   7.063   2.990
 3448TIP3   OH210286   1.680   1.163   1.173
 3448TIP3    H110287   1.606   1.123   1.127
 3448TIP3    H210288   1.643   1.197   1.254
 3449TIP3   OH210289   5.090   0.846   4.477
 3449TIP3    H110290   5.146   0.777   4.440
 3449TIP3    H210291   5.149   0.919   4.492
 3450TIP3   OH210292   5.612   5.297   3.739
 3450TIP3    H110293   5.579   5.214   3.773
 3450TIP3    H210294   5.533   5.347   3.718
 3451TIP3   OH210295   7.694   5.317   4.147
 3451TIP3    H110296   7.731   5.395   4.105
 3451TIP3    H210297   7.636   5.279   4.080
 3452TIP3   OH210298   4.024   7.515   0.601
 3452TIP3    H110299   3.928   7.519   0.610
 3452TIP3    H210300   4.038   7.473   0.516
 3453TIP3   OH210301   0.646   6.864   6.704
 3453TIP3    H110302   0.740   6.846   6.701
 3453TIP3    H210303   0.641   6.960   6.704
 3454TIP3   OH210304   7.732   0.176   2.728
 3454TIP3    H110305   7.777   0.232   2.792
 3454TIP3    H210306   7.731   0.227   2.647
 3455TIP3   OH210307   2.664   2.530   4.674
 3455TIP3    H110308   2.666   2.452   4.618
 3455TIP3    H210309   2.636   2.497   4.759
 3456TIP3   OH210310   7.475   0.821   5.151
 3456TIP3    H110311   7.454   0.728   5.141
 3456TIP3    H210312   7.474   0.855   5.062
 3457TIP3   OH210313   2.992   3.208   3.015
 3457TIP3    H110314   2.935   3.133   3.001
 3457TIP3    H210315   2.989   3.256   2.932
 3458TIP3   OH210316   1.337   1.453   6.097
 3458TIP3    H110317   1.309   1.372   6.054
 3458TIP3    H210318   1.255   1.499   6.117
 3459TIP3   OH210319   4.041   2.283   3.229
 3459TIP3    H110320   4.126   2.297   3.272
 3459TIP3    H210321   3.980   2.338   3.279
 3460TIP3   OH210322   3.341   6.565   3.466
 3460TIP3    H110323   3.337   6.608   3.551
 3460TIP3    H210324   3.426   6.593   3.430
 3461TIP3   OH210325   0.991   2.859   3.548
 3461TIP3    H110326   0.916   2.828   3.598
 3461TIP3    H210327   1.033   2.779   3.516
 3462TIP3   OH210328   0.102   7.520   4.675
 3462TIP3    H110329   0.044   7.589   4.707
 3462TIP3    H210330   0.190   7.557   4.683
 3463TIP3   OH210331   2.450   6.449   6.229
 3463TIP3    H110332   2.465   6.361   6.265
 3463TIP3    H210333   2.514   6.504   6.274
 3464TIP3   OH210334   3.676   0.440   3.376
 3464TIP3    H110335   3.583   0.419   3.361
 3464TIP3    H210336   3.718   0.356   3.391
 3465TIP3   OH210337   1.220   6.022   6.569
 3465TIP3    H110338   1.241   6.116   6.571
 3465TIP3    H210339   1.240   5.995   6.479
 3466TIP3   OH210340   0.420   6.241   2.947
 3466TIP3    H110341   0.426   6.319   3.001
 3466TIP3    H210342   0.509   6.227   2.914
 3467TIP3   OH210343   7.983   4.728   3.116
 3467TIP3    H110344   8.067   4.707   3.074
 3467TIP3    H210345   7.925   4.657   3.090
 3468TIP3   OH210346   4.857   0.796   6.729
 3468TIP3    H110347   4.944   0.782   6.692
 3468TIP3    H210348   4.850   0.892   6.737
 3469TIP3   OH210349   6.410   1.504   1.664
 3469TIP3    H110350   6.465   1.431   1.638
 3469TIP3    H210351   6.388   1.486   1.755
 3470TIP3   OH210352   0.694   6.507   0.105
 3470TIP3    H110353   0.617   6.548   0.145
 3470TIP3    H210354   0.659   6.458   0.031
 3471TIP3   OH210355   0.703   2.785   3.940
 3471TIP3    H110356   0.683   2.691   3.949
 3471TIP3    H210357   0.653   2.812   3.863
 3472TIP3   OH210358   8.027   5.427   0.140
 3472TIP3    H110359   8.011   5.333   0.142
 3472TIP3    H210360   8.023   5.454   0.232
 3473TIP3   OH210361   7.203   6.143   6.286
 3473TIP3    H110362   7.168   6.101   6.365
 3473TIP3    H210363   7.297   6.125   6.290
 3474TIP3   OH210364   2.353   2.630   5.603
 3474TIP3    H110365   2.362   2.536   5.591
 3474TIP3    H210366   2.264   2.642   5.636
 3475TIP3   OH210367   2.391   1.791   1.841
 3475TIP3    H110368   2.304   1.830   1.848
 3475TIP3    H210369   2.398   1.735   1.918
 3476TIP3   OH210370   2.379   5.898   3.539
 3476TIP3    H110371   2.459   5.909   3.590
 3476TIP3    H210372   2.378   5.972   3.479
 3477TIP3   OH210373   0.028   1.868   3.163
 3477TIP3    H110374   0.078   1.807   3.218
 3477TIP3    H210375  -0.041   1.901   3.220
 3478TIP3   OH210376   5.599   0.159   2.713
 3478TIP3    H110377   5.689   0.183   2.693
 3478TIP3    H210378   5.576   0.213   2.789
 3479TIP3   OH210379   8.117   6.455   2.667
 3479TIP3    H110380   8.114   6.361   2.686
 3479TIP3    H210381   8.027   6.484   2.681
 3480TIP3   OH210382   0.205   4.121   1.329
 3480TIP3    H110383   0.249   4.187   1.277
 3480TIP3    H210384   0.142   4.081   1.268
 3481TIP3   OH210385   1.749   3.852   2.798
 3481TIP3    H110386   1.671   3.796   2.801
 3481TIP3    H210387   1.765   3.868   2.705
 3482TIP3   OH210388   6.810   7.399   6.739
 3482TIP3    H110389   6.812   7.441   6.825
 3482TIP3    H210390   6.717   7.387   6.721
 3483TIP3   OH210391   6.420   6.966   0.385
 3483TIP3    H110392   6.350   6.910   0.418
 3483TIP3    H210393   6.501   6.927   0.420
 3484TIP3   OH210394   8.071   5.157   4.285
 3484TIP3    H110395   8.110   5.176   4.371
 3484TIP3    H210396   7.979   5.136   4.305
 3485TIP3   OH210397   0.083   1.235   3.739
 3485TIP3    H110398   0.080   1.330   3.749
 3485TIP3    H210399   0.129   1.221   3.656
 3486TIP3   OH210400   3.546   6.306   0.372
 3486TIP3    H110401   3.571   6.315   0.280
 3486TIP3    H210402   3.557   6.394   0.408
 3487TIP3   OH210403   2.477   7.023   5.607
 3487TIP3    H110404   2.405   6.965   5.582
 3487TIP3    H210405   2.440   7.111   5.605
 3488TIP3   OH210406   0.206   6.776   0.810
 3488TIP3    H110407   0.168   6.689   0.804
 3488TIP3    H210408   0.202   6.797   0.904
 3489TIP3   OH210409   4.413   3.241   6.730
 3489TIP3    H110410   4.373   3.220   6.646
 3489TIP3    H210411   4.431   3.155   6.770
 3490TIP3   OH210412   6.428   2.809   4.465
 3490TIP3    H110413   6.360   2.819   4.531
 3490TIP3    H210414   6.510   2.805   4.515
 3491TIP3   OH210415   6.978   7.109   3.107
 3491TIP3    H110416   6.946   7.022   3.084
 3491TIP3    H210417   7.023   7.097   3.191
 3492TIP3   OH210418   5.020   6.508   5.134
 3492TIP3    H110419   5.081   6.554   5.192
 3492TIP3    H210420   4.937   6.510   5.181
 3493TIP3   OH210421   5.377   5.349   0.649
 3493TIP3    H110422   5.295   5.382   0.685
 3493TIP3    H210423   5.352   5.301   0.570
 3494TIP3   OH210424   0.026   1.859   1.483
 3494TIP3    H110425  -0.018   1.827   1.562
 3494TIP3    H210426   0.053   1.780   1.436
 3495TIP3   OH210427   3.478   4.654   0.966
 3495TIP3    H110428   3.473   4.743   0.931
 3495TIP3    H210429   3.546   4.658   1.034
 3496TIP3   OH210430   7.519   2.761   2.173
 3496TIP3    H110431   7.473   2.826   2.226
 3496TIP3    H210432   7.455   2.691   2.160
 3497TIP3   OH210433   6.576   5.304   1.901
 3497TIP3    H110434   6.652   5.251   1.927
 3497TIP3    H210435   6.564   5.365   1.973
 3498TIP3   OH210436   1.742   2.458   0.176
 3498TIP3    H110437   1.819   2.408   0.148
 3498TIP3    H210438   1.674   2.435   0.113
 3499TIP3   OH210439   3.184   5.616   0.575
 3499TIP3    H110440   3.118   5.548   0.561
 3499TIP3    H210441   3.157   5.659   0.656
 3500TIP3   OH210442   1.663   3.013   2.297
 3500TIP3    H110443   1.743   2.973   2.263
 3500TIP3    H210444   1.594   2.950   2.277
 3501TIP3   OH210445   5.701   2.362   6.105
 3501TIP3    H110446   5.775   2.316   6.145
 3501TIP3    H210447   5.689   2.317   6.021
 3502TIP3   OH210448   4.199   5.981   6.669
 3502TIP3    H110449   4.117   5.995   6.716
 3502TIP3    H210450   4.267   6.012   6.729
 3503TIP3   OH210451   4.966   1.780   3.684
 3503TIP3    H110452   4.903   1.709   3.671
 3503TIP3    H210453   4.976   1.785   3.779
 3504TIP3   OH210454   1.607   1.452   1.277
 3504TIP3    H110455   1.570   1.513   1.213
 3504TIP3    H210456   1.691   1.491   1.301
 3505TIP3   OH210457   7.580   2.387   6.456
 3505TIP3    H110458   7.512   2.424   6.513
 3505TIP3    H210459   7.554   2.296   6.445
 3506TIP3   OH210460   0.385   6.699   4.759
 3506TIP3    H110461   0.448   6.631   4.783
 3506TIP3    H210462   0.300   6.655   4.760
 3507TIP3   OH210463   6.904   1.064   6.318
 3507TIP3    H110464   6.831   1.110   6.277
 3507TIP3    H210465   6.954   1.133   6.362
 3508TIP3   OH210466   6.282   4.866   6.025
 3508TIP3    H110467   6.210   4.813   6.059
 3508TIP3    H210468   6.331   4.892   6.103
 3509TIP3   OH210469   4.175   2.209   0.550
 3509TIP3    H110470   4.187   2.211   0.645
 3509TIP3    H210471   4.240   2.146   0.518
 3510TIP3   OH210472   1.076   3.274   3.236
 3510TIP3    H110473   1.065   3.193   3.286
 3510TIP3    H210474   1.094   3.340   3.303
 3511TIP3   OH210475   1.608   7.136   2.433
 3511TIP3    H110476   1.585   7.162   2.522
 3511TIP3    H210477   1.538   7.076   2.406
 3512TIP3   OH210478   1.640   3.283   1.090
 3512TIP3    H110479   1.655   3.339   1.166
 3512TIP3    H210480   1.658   3.194   1.120
 3513TIP3   OH210481   6.486   7.069   5.880
 3513TIP3    H110482   6.550   7.024   5.825
 3513TIP3    H210483   6.538   7.101   5.954
 3514TIP3   OH210484   5.763   4.966   2.779
 3514TIP3    H110485   5.769   5.058   2.804
 3514TIP3    H210486   5.726   4.967   2.691
 3515TIP3   OH210487   6.281   3.504   6.046
 3515TIP3    H110488   6.209   3.443   6.027
 3515TIP3    H210489   6.267   3.577   5.986
 3516TIP3   OH210490   1.580   1.291   4.407
 3516TIP3    H110491   1.603   1.203   4.378
 3516TIP3    H210492   1.522   1.324   4.338
 3517TIP3   OH210493   1.585   6.011   3.255
 3517TIP3    H110494   1.551   6.068   3.186
 3517TIP3    H210495   1.585   6.065   3.334
 3518TIP3   OH210496   4.950   4.821   1.727
 3518TIP3    H110497   4.897   4.797   1.651
 3518TIP3    H210498   4.976   4.911   1.711
 3519TIP3   OH210499   7.460   0.802   6.118
 3519TIP3    H110500   7.444   0.786   6.025
 3519TIP3    H210501   7.376   0.782   6.161
 3520TIP3   OH210502   6.228   7.217   0.731
 3520TIP3    H110503   6.318   7.193   0.709
 3520TIP3    H210504   6.207   7.290   0.672
 3521TIP3   OH210505   0.723   4.415   1.940
 3521TIP3    H110506   0.667   4.338   1.936
 3521TIP3    H210507   0.803   4.390   1.894
 3522TIP3   OH210508   5.342   4.474   5.519
 3522TIP3    H110509   5.287   4.491   5.442
 3522TIP3    H210510   5.421   4.527   5.505
 3523TIP3   OH210511   3.420   0.974   2.991
 3523TIP3    H110512   3.497   1.024   3.018
 3523TIP3    H210513   3.377   0.949   3.073
 3524TIP3   OH210514   4.081   3.353   0.844
 3524TIP3    H110515   4.062   3.331   0.935
 3524TIP3    H210516   4.105   3.445   0.846
 3525TIP3   OH210517   4.724   0.205   1.229
 3525TIP3    H110518   4.723   0.240   1.318
 3525TIP3    H210519   4.662   0.260   1.181
 3526TIP3   OH210520   3.606   2.400   0.850
 3526TIP3    H110521   3.641   2.489   0.848
 3526TIP3    H210522   3.651   2.354   0.780
 3527TIP3   OH210523   0.388   0.930   3.019
 3527TIP3    H110524   0.451   0.883   2.965
 3527TIP3    H210525   0.375   1.014   2.974
 3528TIP3   OH210526   8.004   5.740   0.185
 3528TIP3    H110527   8.003   5.827   0.226
 3528TIP3    H210528   8.068   5.748   0.114
 3529TIP3   OH210529   6.912   5.499   0.182
 3529TIP3    H110530   6.963   5.492   0.101
 3529TIP3    H210531   6.824   5.526   0.153
 3530TIP3   OH210532   3.250   2.737   3.323
 3530TIP3    H110533   3.292   2.768   3.403
 3530TIP3    H210534   3.246   2.815   3.267
 3531TIP3   OH210535   3.399   1.692   6.555
 3531TIP3    H110536   3.417   1.773   6.603
 3531TIP3    H210537   3.344   1.641   6.614
 3532TIP3   OH210538   1.971   0.786   5.962
 3532TIP3    H110539   1.906   0.833   5.911
 3532TIP3    H210540   2.043   0.770   5.901
 3533TIP3   OH210541   7.707   4.265   3.166
 3533TIP3    H110542   7.652   4.262   3.088
 3533TIP3    H210543   7.656   4.219   3.233
 3534TIP3   OH210544   3.098   1.804   6.062
 3534TIP3    H110545   3.123   1.842   5.977
 3534TIP3    H210546   3.156   1.845   6.125
 3535TIP3   OH210547   1.396   7.523   5.712
 3535TIP3    H110548   1.411   7.446   5.768
 3535TIP3    H210549   1.481   7.564   5.704
 3536TIP3   OH210550   0.329   4.335   1.797
 3536TIP3    H110551   0.327   4.379   1.882
 3536TIP3    H210552   0.403   4.375   1.752
 3537TIP3   OH210553   5.216   3.630   4.186
 3537TIP3    H110554   5.256   3.592   4.265
 3537TIP3    H210555   5.158   3.698   4.219
 3538TIP3   OH210556   5.118   2.877   3.340
 3538TIP3    H110557   5.052   2.879   3.271
 3538TIP3    H210558   5.116   2.965   3.378
 3539TIP3   OH210559   7.786   2.061   2.619
 3539TIP3    H110560   7.847   1.995   2.652
 3539TIP3    H210561   7.701   2.034   2.652
 3540TIP3   OH210562   7.311   3.197   3.034
 3540TIP3    H110563   7.306   3.272   2.975
 3540TIP3    H210564   7.387   3.147   3.004
 3541TIP3   OH210565   4.321   2.369   1.092
 3541TIP3    H110566   4.314   2.276   1.112
 3541TIP3    H210567   4.393   2.375   1.029
 3542TIP3   OH210568   0.208   5.964   6.020
 3542TIP3    H110569   0.148   6.002   5.956
 3542TIP3    H210570   0.260   5.901   5.970
 3543TIP3   OH210571   2.886   6.445   0.773
 3543TIP3    H110572   2.920   6.532   0.753
 3543TIP3    H210573   2.851   6.452   0.862
 3544TIP3   OH210574   7.037   3.836   5.574
 3544TIP3    H110575   6.950   3.839   5.535
 3544TIP3    H210576   7.023   3.796   5.660
 3545TIP3   OH210577   7.552   3.141   5.870
 3545TIP3    H110578   7.609   3.076   5.911
 3545TIP3    H210579   7.474   3.141   5.926
 3546TIP3   OH210580   2.174   7.357   5.798
 3546TIP3    H110581   2.142   7.294   5.863
 3546TIP3    H210582   2.153   7.443   5.835
 3547TIP3   OH210583   5.858   0.014   6.530
 3547TIP3    H110584   5.927   0.031   6.466
 3547TIP3    H210585   5.781   0.058   6.494
 3548TIP3   OH210586   1.645   1.543   5.591
 3548TIP3    H110587   1.668   1.450   5.594
 3548TIP3    H210588   1.700   1.584   5.657
 3549TIP3   OH210589   3.967   5.647   3.589
 3549TIP3    H110590   4.039   5.707   3.570
 3549TIP3    H210591   3.902   5.666   3.522
 3550TIP3   OH210592   4.168   7.711   6.297
 3550TIP3    H110593   4.140   7.734   6.209
 3550TIP3    H210594   4.154   7.791   6.349
 3551TIP3   OH210595   1.471   6.953   5.080
 3551TIP3    H110596   1.505   6.902   5.007
 3551TIP3    H210597   1.381   6.974   5.054
 3552TIP3   OH210598   3.433   3.448   3.043
 3552TIP3    H110599   3.399   3.472   3.129
 3552TIP3    H210600   3.518   3.492   3.038
 3553TIP3   OH210601   2.474   3.310   1.422
 3553TIP3    H110602   2.433   3.391   1.392
 3553TIP3    H210603   2.566   3.319   1.395
 3554TIP3   OH210604   3.520   3.242   0.477
 3554TIP3    H110605   3.577   3.165   0.480
 3554TIP3    H210606   3.466   3.234   0.556
 3555TIP3   OH210607   2.480   5.856   5.806
 3555TIP3    H110608   2.392   5.821   5.818
 3555TIP3    H210609   2.489   5.864   5.711
 3556TIP3   OH210610   1.731   3.142   0.702
 3556TIP3    H110611   1.656   3.085   0.721
 3556TIP3    H210612   1.775   3.100   0.629
 3557TIP3   OH210613   0.748   3.225   5.454
 3557TIP3    H110614   0.713   3.136   5.451
 3557TIP3    H210615   0.795   3.229   5.537
 3558TIP3   OH210616   6.624   2.327   5.257
 3558TIP3    H110617   6.575   2.392   5.206
 3558TIP3    H210618   6.618   2.358   5.348
 3559TIP3   OH210619   6.391   4.165   0.085
 3559TIP3    H110620   6.295   4.174   0.084
 3559TIP3    H210621   6.406   4.071   0.070
 3560TIP3   OH210622   4.696   3.556   4.469
 3560TIP3    H110623   4.739   3.504   4.538
 3560TIP3    H210624   4.727   3.517   4.387
 3561TIP3   OH210625   2.929   0.566   1.093
 3561TIP3    H110626   2.971   0.571   1.007
 3561TIP3    H210627   3.002   0.567   1.155
 3562TIP3   OH210628   1.130   4.372   2.501
 3562TIP3    H110629   1.045   4.416   2.505
 3562TIP3    H210630   1.149   4.366   2.407
 3563TIP3   OH210631   3.766   0.285   1.201
 3563TIP3    H110632   3.703   0.222   1.166
 3563TIP3    H210633   3.734   0.305   1.289
 3564TIP3   OH210634   7.688   2.655   0.918
 3564TIP3    H110635   7.728   2.598   0.984
 3564TIP3    H210636   7.598   2.667   0.948
 3565TIP3   OH210637   4.882   5.539   5.124
 3565TIP3    H110638   4.846   5.624   5.096
 3565TIP3    H210639   4.827   5.513   5.198
 3566TIP3   OH210640   3.943   0.185   5.062
 3566TIP3    H110641   3.989   0.243   5.123
 3566TIP3    H210642   4.001   0.109   5.053
 3567TIP3   OH210643   2.933   7.619   5.196
 3567TIP3    H110644   2.891   7.603   5.281
 3567TIP3    H210645   2.863   7.604   5.132
 3568TIP3   OH210646   0.588   6.318   4.034
 3568TIP3    H110647   0.643   6.320   4.113
 3568TIP3    H210648   0.500   6.338   4.065
 3569TIP3   OH210649   7.779   0.088   4.149
 3569TIP3    H110650   7.781   0.166   4.205
 3569TIP3    H210651   7.753   0.017   4.208
 3570TIP3   OH210652   7.010   7.069   3.688
 3570TIP3    H110653   6.936   7.094   3.633
 3570TIP3    H210654   7.084   7.115   3.651
 3571TIP3   OH210655   3.011   2.465   3.602
 3571TIP3    H110656   2.972   2.534   3.549
 3571TIP3    H210657   3.082   2.508   3.650
 3572TIP3   OH210658   4.466   5.850   5.991
 3572TIP3    H110659   4.503   5.929   6.030
 3572TIP3    H210660   4.423   5.805   6.064
 3573TIP3   OH210661   1.740   0.651   2.511
 3573TIP3    H110662   1.806   0.582   2.522
 3573TIP3    H210663   1.700   0.633   2.426
 3574TIP3   OH210664   0.589   1.361   5.881
 3574TIP3    H110665   0.664   1.394   5.930
 3574TIP3    H210666   0.623   1.345   5.793
 3575TIP3   OH210667   3.942   1.840   3.525
 3575TIP3    H110668   3.869   1.831   3.463
 3575TIP3    H210669   3.944   1.756   3.572
 3576TIP3   OH210670   7.515   3.961   6.659
 3576TIP3    H110671   7.599   3.922   6.633
 3576TIP3    H210672   7.490   4.016   6.585
 3577TIP3   OH210673   6.544   1.405   2.383
 3577TIP3    H110674   6.544   1.491   2.427
 3577TIP3    H210675   6.511   1.423   2.295
 3578TIP3   OH210676   2.481   4.838   4.339
 3578TIP3    H110677   2.385   4.832   4.342
 3578TIP3    H210678   2.508   4.843   4.430
 3579TIP3   OH210679   3.395   3.240   5.475
 3579TIP3    H110680   3.373   3.223   5.384
 3579TIP3    H210681   3.481   3.282   5.471
 3580TIP3   OH210682   0.865   3.805   3.378
 3580TIP3    H110683   0.799   3.862   3.338
 3580TIP3    H210684   0.946   3.855   3.371
 3581TIP3   OH210685   7.149   2.954   2.868
 3581TIP3    H110686   7.073   2.988   2.820
 3581TIP3    H210687   7.114   2.930   2.954
 3582TIP3   OH210688   4.829   7.804   5.474
 3582TIP3    H110689   4.853   7.717   5.443
 3582TIP3    H210690   4.911   7.854   5.472
 3583TIP3   OH210691   6.718   4.438   3.263
 3583TIP3    H110692   6.693   4.346   3.260
 3583TIP3    H210693   6.637   4.485   3.245
 3584TIP3   OH210694   3.900   2.063   6.248
 3584TIP3    H110695   3.889   2.088   6.156
 3584TIP3    H210696   3.992   2.082   6.268
 3585TIP3   OH210697   0.253   5.398   2.065
 3585TIP3    H110698   0.191   5.349   2.010
 3585TIP3    H210699   0.217   5.390   2.154
 3586TIP3   OH210700   5.704   6.947   5.758
 3586TIP3    H110701   5.730   7.031   5.719
 3586TIP3    H210702   5.658   6.971   5.838
 3587TIP3   OH210703   6.195   6.433   2.104
 3587TIP3    H110704   6.154   6.463   2.185
 3587TIP3    H210705   6.147   6.354   2.081
 3588TIP3   OH210706   4.215   4.307   3.194
 3588TIP3    H110707   4.151   4.360   3.242
 3588TIP3    H210708   4.166   4.231   3.165
 3589TIP3   OH210709   2.254   4.123   2.962
 3589TIP3    H110710   2.345   4.131   2.936
 3589TIP3    H210711   2.258   4.079   3.048
 3590TIP3   OH210712   4.269   0.852   6.323
 3590TIP3    H110713   4.355   0.834   6.283
 3590TIP3    H210714   4.216   0.776   6.300
 3591TIP3   OH210715   1.928   5.642   0.198
 3591TIP3    H110716   1.837   5.617   0.216
 3591TIP3    H210717   1.978   5.603   0.270
 3592TIP3   OH210718   7.118   5.372   5.525
 3592TIP3    H110719   7.202   5.398   5.565
 3592TIP3    H210720   7.053   5.393   5.591
 3593TIP3   OH210721   2.343   6.496   4.333
 3593TIP3    H110722   2.394   6.460   4.406
 3593TIP3    H210723   2.408   6.516   4.266
 3594TIP3   OH210724   3.079   2.122   6.294
 3594TIP3    H110725   3.064   2.150   6.203
 3594TIP3    H210726   3.166   2.156   6.315
 3595TIP3   OH210727   2.074   6.226   2.348
 3595TIP3    H110728   2.054   6.254   2.437
 3595TIP3    H210729   2.001   6.260   2.295
 3596TIP3   OH210730   3.820   7.782   2.552
 3596TIP3    H110731   3.849   7.837   2.625
 3596TIP3    H210732   3.875   7.808   2.479
 3597TIP3   OH210733   6.224   4.040   0.304
 3597TIP3    H110734   6.131   4.043   0.325
 3597TIP3    H210735   6.267   4.077   0.381
 3598TIP3   OH210736   7.264   5.651   0.278
 3598TIP3    H110737   7.225   5.712   0.214
 3598TIP3    H210738   7.357   5.649   0.255
 3599TIP3   OH210739   7.988   5.564   1.729
 3599TIP3    H110740   7.940   5.570   1.646
 3599TIP3    H210741   8.070   5.609   1.712
 3600TIP3   OH210742   1.967   4.216   6.310
 3600TIP3    H110743   2.003   4.175   6.389
 3600TIP3    H210744   1.905   4.152   6.276
 3601TIP3   OH210745   7.026   3.891   2.760
 3601TIP3    H110746   7.038   3.829   2.688
 3601TIP3    H210747   6.953   3.855   2.810
 3602TIP3   OH210748   5.189   1.505   6.042
 3602TIP3    H110749   5.187   1.584   5.987
 3602TIP3    H210750   5.209   1.434   5.982
 3603TIP3   OH210751   4.337   5.363   1.819
 3603TIP3    H110752   4.269   5.364   1.886
 3603TIP3    H210753   4.337   5.273   1.786
 3604TIP3   OH210754   6.544   1.298   1.531
 3604TIP3    H110755   6.579   1.330   1.448
 3604TIP3    H210756   6.583   1.212   1.543
 3605TIP3   OH210757   5.600   2.092   3.727
 3605TIP3    H110758   5.550   2.163   3.688
 3605TIP3    H210759   5.648   2.133   3.799
 3606TIP3   OH210760   2.131   4.463   0.635
 3606TIP3    H110761   2.090   4.413   0.565
 3606TIP3    H210762   2.088   4.432   0.715
 3607TIP3   OH210763   3.001   2.037   2.758
 3607TIP3    H110764   3.051   2.068   2.834
 3607TIP3    H210765   2.926   1.992   2.797
 3608TIP3   OH210766   0.018   2.268   6.540
 3608TIP3    H110767   0.073   2.296   6.613
 3608TIP3    H210768   0.067   2.195   6.501
 3609TIP3   OH210769   3.441   6.850   1.140
 3609TIP3    H110770   3.405   6.775   1.187
 3609TIP3    H210771   3.433   6.826   1.048
 3610TIP3   OH210772   3.431   6.017   6.518
 3610TIP3    H110773   3.348   6.013   6.470
 3610TIP3    H210774   3.486   6.075   6.466
 3611TIP3   OH210775   0.394   3.460   0.116
 3611TIP3    H110776   0.396   3.553   0.139
 3611TIP3    H210777   0.474   3.445   0.066
 3612TIP3   OH210778   1.968   2.735   6.673
 3612TIP3    H110779   2.018   2.653   6.675
 3612TIP3    H210780   2.027   2.800   6.710
 3613TIP3   OH210781   3.756   2.939   0.109
 3613TIP3    H110782   3.782   2.852   0.079
 3613TIP3    H210783   3.716   2.980   0.033
 3614TIP3   OH210784   7.408   0.696   1.195
 3614TIP3    H110785   7.397   0.601   1.184
 3614TIP3    H210786   7.361   0.734   1.121
 3615TIP3   OH210787   2.242   5.766   1.991
 3615TIP3    H110788   2.281   5.845   2.030
 3615TIP3    H210789   2.162   5.797   1.949
 3616TIP3   OH210790   3.791   5.819   0.433
 3616TIP3    H110791   3.745   5.901   0.417
 3616TIP3    H210792   3.883   5.845   0.444
 3617TIP3   OH210793   4.338   1.171   3.615
 3617TIP3    H110794   4.411   1.142   3.561
 3617TIP3    H210795   4.344   1.118   3.694
 3618TIP3   OH210796   0.692   5.945   0.489
 3618TIP3    H110797   0.749   6.021   0.492
 3618TIP3    H210798   0.607   5.979   0.459
 3619TIP3   OH210799   7.151   7.817   3.312
 3619TIP3    H110800   7.130   7.761   3.237
 3619TIP3    H210801   7.100   7.781   3.384
 3620TIP3   OH210802   0.167   4.819   1.605
 3620TIP3    H110803   0.243   4.840   1.659
 3620TIP3    H210804   0.205   4.793   1.520
 3621TIP3   OH210805   4.195   2.717   3.040
 3621TIP3    H110806   4.140   2.640   3.024
 3621TIP3    H210807   4.250   2.725   2.963
 3622TIP3   OH210808   4.759   7.236   2.958
 3622TIP3    H110809   4.820   7.162   2.963
 3622TIP3    H210810   4.802   7.307   3.006
 3623TIP3   OH210811   3.097   7.406   6.167
 3623TIP3    H110812   3.004   7.415   6.146
 3623TIP3    H210813   3.102   7.329   6.223
 3624TIP3   OH210814   7.911   6.411   2.014
 3624TIP3    H110815   7.874   6.408   2.102
 3624TIP3    H210816   7.871   6.487   1.973
 3625TIP3   OH210817   7.096   7.668   5.033
 3625TIP3    H110818   7.082   7.599   4.968
 3625TIP3    H210819   7.180   7.707   5.009
 3626TIP3   OH210820   6.448   3.207   2.171
 3626TIP3    H110821   6.473   3.161   2.251
 3626TIP3    H210822   6.352   3.211   2.174
 3627TIP3   OH210823   7.753   5.316   2.491
 3627TIP3    H110824   7.819   5.382   2.513
 3627TIP3    H210825   7.697   5.311   2.569
 3628TIP3   OH210826   6.867   6.521   2.494
 3628TIP3    H110827   6.958   6.517   2.464
 3628TIP3    H210828   6.838   6.429   2.493
 3629TIP3   OH210829   7.468   1.617   2.586
 3629TIP3    H110830   7.474   1.713   2.581
 3629TIP3    H210831   7.396   1.595   2.526
 3630TIP3   OH210832   6.441   2.820   4.019
 3630TIP3    H110833   6.449   2.742   3.965
 3630TIP3    H210834   6.489   2.799   4.099
 3631TIP3   OH210835   6.135   5.673   2.672
 3631TIP3    H110836   6.158   5.700   2.761
 3631TIP3    H210837   6.193   5.724   2.616
 3632TIP3   OH210838   6.757   3.772   0.267
 3632TIP3    H110839   6.834   3.785   0.212
 3632TIP3    H210840   6.696   3.840   0.239
 3633TIP3   OH210841   2.909   7.216   2.895
 3633TIP3    H110842   2.841   7.278   2.869
 3633TIP3    H210843   2.882   7.133   2.857
 3634TIP3   OH210844   8.257   5.317   6.720
 3634TIP3    H110845   8.175   5.277   6.749
 3634TIP3    H210846   8.323   5.282   6.780
 3635TIP3   OH210847   0.175   0.508   2.490
 3635TIP3    H110848   0.125   0.509   2.572
 3635TIP3    H210849   0.113   0.477   2.424
 3636TIP3   OH210850   2.502   1.578   3.322
 3636TIP3    H110851   2.509   1.563   3.228
 3636TIP3    H210852   2.585   1.548   3.358
 3637TIP3   OH210853   6.794   0.814   5.001
 3637TIP3    H110854   6.818   0.903   5.028
 3637TIP3    H210855   6.722   0.826   4.940
 3638TIP3   OH210856   6.762   5.564   2.032
 3638TIP3    H110857   6.762   5.590   2.124
 3638TIP3    H210858   6.845   5.517   2.021
 3639TIP3   OH210859   4.507   1.855   0.654
 3639TIP3    H110860   4.595   1.841   0.619
 3639TIP3    H210861   4.455   1.785   0.615
 3640TIP3   OH210862   6.242   1.409   4.834
 3640TIP3    H110863   6.232   1.459   4.915
 3640TIP3    H210864   6.179   1.449   4.774
 3641TIP3   OH210865   2.341   2.190   0.890
 3641TIP3    H110866   2.417   2.132   0.895
 3641TIP3    H210867   2.366   2.258   0.828
 3642TIP3   OH210868   4.107   6.978   3.817
 3642TIP3    H110869   4.130   6.902   3.871
 3642TIP3    H210870   4.013   6.989   3.831
 3643TIP3   OH210871   2.023   0.942   4.900
 3643TIP3    H110872   2.094   0.881   4.878
 3643TIP3    H210873   2.010   0.929   4.994
 3644TIP3   OH210874   7.551   3.827   1.007
 3644TIP3    H110875   7.619   3.761   1.019
 3644TIP3    H210876   7.469   3.780   1.024
 3645TIP3   OH210877   0.497   2.004   4.403
 3645TIP3    H110878   0.415   1.955   4.410
 3645TIP3    H210879   0.521   1.996   4.311
 3646TIP3   OH210880   5.055   5.154   1.360
 3646TIP3    H110881   4.999   5.232   1.360
 3646TIP3    H210882   5.008   5.091   1.306
 3647TIP3   OH210883   1.588   1.797   6.675
 3647TIP3    H110884   1.605   1.728   6.610
 3647TIP3    H210885   1.507   1.770   6.718
 3648TIP3   OH210886   3.405   4.136   5.824
 3648TIP3    H110887   3.436   4.086   5.749
 3648TIP3    H210888   3.434   4.225   5.808
 3649TIP3   OH210889   6.763   5.262   4.584
 3649TIP3    H110890   6.766   5.181   4.535
 3649TIP3    H210891   6.672   5.292   4.576
 3650TIP3   OH210892   7.575   2.651   1.903
 3650TIP3    H110893   7.578   2.623   1.995
 3650TIP3    H210894   7.482   2.667   1.886
 3651TIP3   OH210895   4.132   0.747   5.263
 3651TIP3    H110896   4.050   0.739   5.311
 3651TIP3    H210897   4.187   0.676   5.297
 3652TIP3   OH210898   1.309   3.767   4.190
 3652TIP3    H110899   1.225   3.743   4.230
 3652TIP3    H210900   1.375   3.730   4.249
 3653TIP3   OH210901   7.038   2.085   3.349
 3653TIP3    H110902   7.035   2.109   3.256
 3653TIP3    H210903   6.946   2.071   3.373
 3654TIP3   OH210904   0.215   7.129   5.502
 3654TIP3    H110905   0.272   7.056   5.527
 3654TIP3    H210906   0.133   7.112   5.547
 3655TIP3   OH210907   6.445   6.029   5.203
 3655TIP3    H110908   6.477   5.984   5.281
 3655TIP3    H210909   6.448   5.963   5.133
 3656TIP3   OH210910   0.580   6.956   0.543
 3656TIP3    H110911   0.567   6.905   0.623
 3656TIP3    H210912   0.664   7.001   0.557
 3657TIP3   OH210913   1.659   7.709   0.954
 3657TIP3    H110914   1.675   7.615   0.966
 3657TIP3    H210915   1.671   7.723   0.860
 3658TIP3   OH210916   2.860   0.005   0.094
 3658TIP3    H110917   2.830   0.094   0.114
 3658TIP3    H210918   2.781  -0.045   0.080
 3659TIP3   OH210919   2.116   3.028   1.782
 3659TIP3    H110920   2.158   3.057   1.863
 3659TIP3    H210921   2.183   3.039   1.715
 3660TIP3   OH210922   5.060   2.613   3.140
 3660TIP3    H110923   5.023   2.697   3.112
 3660TIP3    H210924   5.134   2.598   3.082
 3661TIP3   OH210925   1.462   0.874   1.882
 3661TIP3    H110926   1.539   0.927   1.903
 3661TIP3    H210927   1.482   0.787   1.917
 3662TIP3   OH210928   0.824   7.296   0.929
 3662TIP3    H110929   0.749   7.328   0.980
 3662TIP3    H210930   0.860   7.374   0.888
 3663TIP3   OH210931   5.223   6.832   1.205
 3663TIP3    H110932   5.156   6.856   1.141
 3663TIP3    H210933   5.306   6.849   1.160
 3664TIP3   OH210934   3.089   6.881   4.319
 3664TIP3    H110935   3.171   6.847   4.283
 3664TIP3    H210936   3.028   6.878   4.245
 3665TIP3   OH210937   5.270   3.981   3.093
 3665TIP3    H110938   5.232   4.059   3.053
 3665TIP3    H210939   5.275   3.917   3.023
 3666TIP3   OH210940   4.269   2.317   3.389
 3666TIP3    H110941   4.329   2.242   3.389
 3666TIP3    H210942   4.255   2.337   3.481
 3667TIP3   OH210943   1.569   1.903   5.934
 3667TIP3    H110944   1.525   1.820   5.953
 3667TIP3    H210945   1.531   1.965   5.996
 3668TIP3   OH210946   2.628   6.745   5.827
 3668TIP3    H110947   2.619   6.718   5.736
 3668TIP3    H210948   2.710   6.703   5.856
 3669TIP3   OH210949   0.615   6.228   2.577
 3669TIP3    H110950   0.551   6.288   2.613
 3669TIP3    H210951   0.697   6.278   2.574
 3670TIP3   OH210952   6.467   3.488   0.002
 3670TIP3    H110953   6.415   3.410   0.021
 3670TIP3    H210954   6.548   3.475   0.051
 3671TIP3   OH210955   1.049   6.100   0.858
 3671TIP3    H110956   0.989   6.026   0.850
 3671TIP3    H210957   1.006   6.171   0.811
 3672TIP3   OH210958   1.248   7.759   2.535
 3672TIP3    H110959   1.250   7.664   2.547
 3672TIP3    H210960   1.338   7.781   2.510
 3673TIP3   OH210961   4.833   1.317   3.044
 3673TIP3    H110962   4.761   1.358   3.092
 3673TIP3    H210963   4.908   1.325   3.103
 3674TIP3   OH210964   1.242   3.365   3.911
 3674TIP3    H110965   1.255   3.455   3.940
 3674TIP3    H210966   1.179   3.328   3.972
 3675TIP3   OH210967   2.627   1.444   0.094
 3675TIP3    H110968   2.566   1.474   0.161
 3675TIP3    H210969   2.712   1.477   0.123
 3676TIP3   OH210970   6.344   6.054   4.579
 3676TIP3    H110971   6.316   6.144   4.596
 3676TIP3    H210972   6.277   6.019   4.521
 3677TIP3   OH210973   6.563   6.846   4.763
 3677TIP3    H110974   6.523   6.920   4.718
 3677TIP3    H210975   6.619   6.886   4.830
 3678TIP3   OH210976   1.173   3.059   2.982
 3678TIP3    H110977   1.110   3.069   3.054
 3678TIP3    H210978   1.184   3.148   2.948
 3679TIP3   OH210979   7.737   0.886   2.276
 3679TIP3    H110980   7.721   0.976   2.247
 3679TIP3    H210981   7.693   0.831   2.211
 3680TIP3   OH210982   3.395   1.365   4.581
 3680TIP3    H110983   3.306   1.347   4.613
 3680TIP3    H210984   3.433   1.278   4.567
 3681TIP3   OH210985   2.823   0.731   0.769
 3681TIP3    H110986   2.865   0.784   0.702
 3681TIP3    H210987   2.884   0.659   0.785
 3682TIP3   OH210988   5.898   7.638   0.942
 3682TIP3    H110989   5.925   7.664   0.855
 3682TIP3    H210990   5.948   7.694   1.001
 3683TIP3   OH210991   5.918   3.193   0.929
 3683TIP3    H110992   5.996   3.139   0.941
 3683TIP3    H210993   5.952   3.279   0.905
 3684TIP3   OH210994   0.048   5.348   3.605
 3684TIP3    H110995   0.034   5.253   3.610
 3684TIP3    H210996  -0.034   5.386   3.635
 3685TIP3   OH210997   1.520   3.385   2.045
 3685TIP3    H110998   1.520   3.328   1.967
 3685TIP3    H210999   1.588   3.347   2.101
 3686TIP3   OH211000   2.637   2.955   6.089
 3686TIP3    H111001   2.708   2.940   6.027
 3686TIP3    H211002   2.558   2.959   6.035
 3687TIP3   OH211003   1.132   3.547   4.582
 3687TIP3    H111004   1.196   3.617   4.576
 3687TIP3    H211005   1.171   3.483   4.642
 3688TIP3   OH211006   2.902   5.211   2.515
 3688TIP3    H111007   2.901   5.303   2.488
 3688TIP3    H211008   2.982   5.202   2.566
 3689TIP3   OH211009   0.351   0.433   3.412
 3689TIP3    H111010   0.259   0.415   3.392
 3689TIP3    H211011   0.369   0.378   3.488
 3690TIP3   OH211012   3.952   0.837   6.326
 3690TIP3    H111013   3.979   0.787   6.249
 3690TIP3    H211014   3.966   0.928   6.302
 3691TIP3   OH211015   7.850   6.880   4.691
 3691TIP3    H111016   7.823   6.818   4.759
 3691TIP3    H211017   7.902   6.946   4.737
 3692TIP3   OH211018   2.121   2.398   0.179
 3692TIP3    H111019   2.138   2.492   0.181
 3692TIP3    H211020   2.171   2.363   0.253
 3693TIP3   OH211021   1.525   2.755   2.317
 3693TIP3    H111022   1.535   2.672   2.271
 3693TIP3    H211023   1.561   2.739   2.404
 3694TIP3   OH211024   1.646   6.741   1.052
 3694TIP3    H111025   1.681   6.726   0.964
 3694TIP3    H211026   1.643   6.654   1.092
 3695TIP3   OH211027   8.229   6.095   3.601
 3695TIP3    H111028   8.304   6.071   3.656
 3695TIP3    H211029   8.155   6.100   3.663
 3696TIP3   OH211030   1.691   6.314   1.913
 3696TIP3    H111031   1.771   6.341   1.868
 3696TIP3    H211032   1.646   6.258   1.850
 3697TIP3   OH211033   4.325   2.918   3.669
 3697TIP3    H111034   4.251   2.900   3.727
 3697TIP3    H211035   4.345   2.833   3.628
 3698TIP3   OH211036   6.030   6.577   2.303
 3698TIP3    H111037   5.983   6.494   2.309
 3698TIP3    H211038   5.963   6.641   2.278
 3699TIP3   OH211039   5.364   7.799   5.848
 3699TIP3    H111040   5.454   7.831   5.854
 3699TIP3    H211041   5.314   7.856   5.907
 3700TIP3   OH211042   8.100   4.402   3.075
 3700TIP3    H111043   8.128   4.425   2.986
 3700TIP3    H211044   8.178   4.416   3.129
 3701TIP3   OH211045   6.664   1.899   0.460
 3701TIP3    H111046   6.642   1.969   0.399
 3701TIP3    H211047   6.757   1.881   0.443
 3702TIP3   OH211048   2.704   4.141   5.197
 3702TIP3    H111049   2.726   4.170   5.286
 3702TIP3    H211050   2.741   4.053   5.190
 3703TIP3   OH211051   3.371   6.398   1.249
 3703TIP3    H111052   3.332   6.318   1.216
 3703TIP3    H211053   3.465   6.388   1.232
 3704TIP3   OH211054   6.321   0.192   3.703
 3704TIP3    H111055   6.348   0.102   3.684
 3704TIP3    H211056   6.231   0.185   3.733
 3705TIP3   OH211057   5.217   4.585   1.579
 3705TIP3    H111058   5.220   4.670   1.536
 3705TIP3    H211059   5.137   4.543   1.546
 3706TIP3   OH211060   3.655   4.552   3.766
 3706TIP3    H111061   3.679   4.581   3.678
 3706TIP3    H211062   3.670   4.458   3.766
 3707TIP3   OH211063   4.909   3.543   5.435
 3707TIP3    H111064   4.922   3.524   5.528
 3707TIP3    H211065   4.890   3.637   5.432
 3708TIP3   OH211066   6.807   0.526   4.365
 3708TIP3    H111067   6.767   0.603   4.405
 3708TIP3    H211068   6.740   0.458   4.370
 3709TIP3   OH211069   1.022   0.835   4.113
 3709TIP3    H111070   0.956   0.846   4.181
 3709TIP3    H211071   1.079   0.766   4.145
 3710TIP3   OH211072   6.687   7.185   2.728
 3710TIP3    H111073   6.775   7.191   2.766
 3710TIP3    H211074   6.698   7.213   2.638
 3711TIP3   OH211075   7.972   1.610   2.131
 3711TIP3    H111076   7.990   1.637   2.221
 3711TIP3    H211077   8.050   1.560   2.106
 3712TIP3   OH211078   6.135   1.530   0.877
 3712TIP3    H111079   6.083   1.561   0.951
 3712TIP3    H211080   6.083   1.461   0.837
 3713TIP3   OH211081   5.189   7.377   2.425
 3713TIP3    H111082   5.141   7.300   2.455
 3713TIP3    H211083   5.135   7.452   2.452
 3714TIP3   OH211084   2.314   2.255   5.392
 3714TIP3    H111085   2.238   2.201   5.417
 3714TIP3    H211086   2.380   2.191   5.365
 3715TIP3   OH211087   8.045   1.092   6.713
 3715TIP3    H111088   7.986   1.095   6.637
 3715TIP3    H211089   7.987   1.106   6.788
 3716TIP3   OH211090   3.043   5.730   0.764
 3716TIP3    H111091   2.979   5.802   0.761
 3716TIP3    H211092   2.996   5.658   0.807
 3717TIP3   OH211093   3.365   6.779   5.503
 3717TIP3    H111094   3.334   6.713   5.564
 3717TIP3    H211095   3.322   6.757   5.420
 3718TIP3   OH211096   0.959   4.392   6.033
 3718TIP3    H111097   0.935   4.346   6.113
 3718TIP3    H211098   0.943   4.485   6.053
 3719TIP3   OH211099   5.521   1.538   4.992
 3719TIP3    H111100   5.516   1.605   5.060
 3719TIP3    H211101   5.538   1.587   4.912
 3720TIP3   OH211102   6.311   5.359   5.358
 3720TIP3    H111103   6.295   5.293   5.424
 3720TIP3    H211104   6.289   5.442   5.401
 3721TIP3   OH211105   1.501   4.631   1.524
 3721TIP3    H111106   1.595   4.633   1.506
 3721TIP3    H211107   1.460   4.633   1.438
 3722TIP3   OH211108   8.187   7.697   4.780
 3722TIP3    H111109   8.230   7.735   4.856
 3722TIP3    H211110   8.170   7.772   4.722
 3723TIP3   OH211111   3.162   1.132   2.462
 3723TIP3    H111112   3.247   1.089   2.455
 3723TIP3    H211113   3.117   1.110   2.380
 3724TIP3   OH211114   5.400   7.733   3.188
 3724TIP3    H111115   5.365   7.644   3.179
 3724TIP3    H211116   5.337   7.788   3.142
 3725TIP3   OH211117   2.560   4.644   4.121
 3725TIP3    H111118   2.582   4.609   4.035
 3725TIP3    H211119   2.468   4.667   4.115
 3726TIP3   OH211120   7.713   1.970   5.743
 3726TIP3    H111121   7.636   2.024   5.731
 3726TIP3    H211122   7.787   2.028   5.724
 3727TIP3   OH211123   1.144   6.319   5.279
 3727TIP3    H111124   1.188   6.342   5.196
 3727TIP3    H211125   1.144   6.400   5.329
 3728TIP3   OH211126   6.142   0.841   0.844
 3728TIP3    H111127   6.159   0.827   0.751
 3728TIP3    H211128   6.047   0.834   0.852
 3729TIP3   OH211129   1.982   3.360   1.358
 3729TIP3    H111130   2.032   3.369   1.276
 3729TIP3    H211131   2.015   3.431   1.413
 3730TIP3   OH211132   2.168   3.764   5.331
 3730TIP3    H111133   2.247   3.716   5.357
 3730TIP3    H211134   2.173   3.846   5.380
 3731TIP3   OH211135   7.709   0.094   3.194
 3731TIP3    H111136   7.629   0.042   3.183
 3731TIP3    H211137   7.702   0.163   3.128
 3732TIP3   OH211138   7.953   6.930   1.730
 3732TIP3    H111139   7.992   6.868   1.668
 3732TIP3    H211140   8.028   6.978   1.765
 3733TIP3   OH211141   3.946   6.533   5.267
 3733TIP3    H111142   4.011   6.465   5.250
 3733TIP3    H211143   3.951   6.548   5.362
 3734TIP3   OH211144   4.949   0.901   3.495
 3734TIP3    H111145   4.898   0.972   3.536
 3734TIP3    H211146   4.917   0.822   3.538
 3735TIP3   OH211147   0.172   3.013   5.638
 3735TIP3    H111148   0.212   2.926   5.633
 3735TIP3    H211149   0.097   3.001   5.697
 3736TIP3   OH211150   1.981   3.056   6.550
 3736TIP3    H111151   1.904   3.091   6.594
 3736TIP3    H211152   1.947   3.013   6.472
 3737TIP3   OH211153   7.596   3.879   5.481
 3737TIP3    H111154   7.620   3.865   5.389
 3737TIP3    H211155   7.652   3.952   5.510
 3738TIP3   OH211156   3.244   6.898   3.168
 3738TIP3    H111157   3.167   6.842   3.174
 3738TIP3    H211158   3.215   6.973   3.116
 3739TIP3   OH211159   1.341   7.608   2.988
 3739TIP3    H111160   1.386   7.585   3.069
 3739TIP3    H211161   1.310   7.698   3.003
 3740TIP3   OH211162   1.324   0.112   1.991
 3740TIP3    H111163   1.253   0.066   1.946
 3740TIP3    H211164   1.395   0.116   1.926
 3741TIP3   OH211165   3.159   4.551   3.405
 3741TIP3    H111166   3.188   4.469   3.365
 3741TIP3    H211167   3.064   4.550   3.395
 3742TIP3   OH211168   7.315   1.998   1.119
 3742TIP3    H111169   7.328   1.984   1.025
 3742TIP3    H211170   7.224   2.029   1.127
 3743TIP3   OH211171   1.917   4.651   5.302
 3743TIP3    H111172   1.974   4.606   5.364
 3743TIP3    H211173   1.942   4.615   5.217
 3744TIP3   OH211174   4.167   7.401   4.800
 3744TIP3    H111175   4.170   7.308   4.824
 3744TIP3    H211176   4.202   7.404   4.711
 3745TIP3   OH211177   7.579   4.459   1.895
 3745TIP3    H111178   7.508   4.495   1.842
 3745TIP3    H211179   7.544   4.456   1.983
 3746TIP3   OH211180   8.031   6.815   0.554
 3746TIP3    H111181   8.017   6.910   0.552
 3746TIP3    H211182   8.095   6.802   0.624
 3747TIP3   OH211183   7.118   0.129   5.772
 3747TIP3    H111184   7.156   0.047   5.805
 3747TIP3    H211185   7.166   0.198   5.818
 3748TIP3   OH211186   1.504   6.445   2.446
 3748TIP3    H111187   1.568   6.374   2.451
 3748TIP3    H211188   1.482   6.451   2.353
 3749TIP3   OH211189   5.128   0.007   1.747
 3749TIP3    H111190   5.092   0.095   1.741
 3749TIP3    H211191   5.201   0.015   1.807
 3750TIP3   OH211192   3.318   3.181   5.214
 3750TIP3    H111193   3.256   3.116   5.181
 3750TIP3    H211194   3.396   3.170   5.160
 3751TIP3   OH211195   2.584   2.560   0.084
 3751TIP3    H111196   2.674   2.593   0.094
 3751TIP3    H211197   2.580   2.485   0.145
 3752TIP3   OH211198   7.310   5.130   4.911
 3752TIP3    H111199   7.372   5.195   4.879
 3752TIP3    H211200   7.258   5.105   4.834
 3753TIP3   OH211201   4.053   5.195   5.515
 3753TIP3    H111202   4.008   5.114   5.490
 3753TIP3    H211203   4.128   5.200   5.456
 3754TIP3   OH211204   2.938   6.085   2.459
 3754TIP3    H111205   2.979   6.002   2.433
 3754TIP3    H211206   2.890   6.064   2.539
 3755TIP3   OH211207   7.526   4.113   3.360
 3755TIP3    H111208   7.530   4.039   3.421
 3755TIP3    H211209   7.507   4.074   3.275
 3756TIP3   OH211210   1.419   5.796   3.930
 3756TIP3    H111211   1.429   5.871   3.990
 3756TIP3    H211212   1.487   5.810   3.864
 3757TIP3   OH211213   5.221   4.301   2.373
 3757TIP3    H111214   5.250   4.253   2.295
 3757TIP3    H211215   5.133   4.268   2.390
 3758TIP3   OH211216   5.456   6.214   3.073
 3758TIP3    H111217   5.439   6.133   3.122
 3758TIP3    H211218   5.372   6.260   3.073
 3759TIP3   OH211219   6.340   3.805   3.440
 3759TIP3    H111220   6.322   3.722   3.485
 3759TIP3    H211221   6.254   3.836   3.410
 3760TIP3   OH211222   3.463   6.193   6.281
 3760TIP3    H111223   3.389   6.211   6.223
 3760TIP3    H211224   3.531   6.254   6.253
 3761TIP3   OH211225   7.824   7.780   5.999
 3761TIP3    H111226   7.890   7.845   5.977
 3761TIP3    H211227   7.868   7.696   5.988
 3762TIP3   OH211228   0.675   5.086   3.820
 3762TIP3    H111229   0.682   5.135   3.738
 3762TIP3    H211230   0.594   5.037   3.811
 3763TIP3   OH211231   1.469   3.507   0.826
 3763TIP3    H111232   1.542   3.481   0.882
 3763TIP3    H211233   1.480   3.453   0.747
 3764TIP3   OH211234   0.301   6.913   1.891
 3764TIP3    H111235   0.344   6.996   1.875
 3764TIP3    H211236   0.288   6.875   1.804
 3765TIP3   OH211237   7.527   5.812   1.436
 3765TIP3    H111238   7.481   5.737   1.400
 3765TIP3    H211239   7.469   5.886   1.421
 3766TIP3   OH211240   3.927   5.563   5.839
 3766TIP3    H111241   3.883   5.501   5.781
 3766TIP3    H211242   3.910   5.529   5.927
 3767TIP3   OH211243   0.606   4.714   0.026
 3767TIP3    H111244   0.553   4.785   0.064
 3767TIP3    H211245   0.649   4.755  -0.050
 3768TIP3   OH211246   5.704   6.610   0.744
 3768TIP3    H111247   5.748   6.673   0.801
 3768TIP3    H211248   5.772   6.579   0.684
 3769TIP3   OH211249   5.302   6.133   0.639
 3769TIP3    H111250   5.283   6.227   0.645
 3769TIP3    H211251   5.235   6.098   0.581
 3770TIP3   OH211252   0.199   1.168   5.505
 3770TIP3    H111253   0.251   1.136   5.579
 3770TIP3    H211254   0.196   1.095   5.444
 3771TIP3   OH211255   4.234   2.141   0.809
 3771TIP3    H111256   4.147   2.136   0.849
 3771TIP3    H211257   4.257   2.050   0.791
 3772TIP3   OH211258   3.764   4.367   4.845
 3772TIP3    H111259   3.755   4.372   4.940
 3772TIP3    H211260   3.777   4.458   4.818
 3773TIP3   OH211261   1.863   1.286   4.302
 3773TIP3    H111262   1.798   1.217   4.310
 3773TIP3    H211263   1.842   1.331   4.220
 3774TIP3   OH211264   2.280   5.189   1.546
 3774TIP3    H111265   2.233   5.109   1.522
 3774TIP3    H211266   2.372   5.165   1.540
 3775TIP3   OH211267   7.235   4.738   5.333
 3775TIP3    H111268   7.253   4.719   5.241
 3775TIP3    H211269   7.142   4.719   5.344
 3776TIP3   OH211270   4.113   0.072   1.721
 3776TIP3    H111271   4.121  -0.021   1.742
 3776TIP3    H211272   4.133   0.117   1.803
 3777TIP3   OH211273   0.955   1.878   1.556
 3777TIP3    H111274   0.940   1.968   1.528
 3777TIP3    H211275   0.904   1.825   1.495
 3778TIP3   OH211276   0.151   4.662   3.728
 3778TIP3    H111277   0.144   4.573   3.694
 3778TIP3    H211278   0.061   4.694   3.730
 3779TIP3   OH211279   7.341   4.564   3.403
 3779TIP3    H111280   7.313   4.479   3.436
 3779TIP3    H211281   7.382   4.545   3.319
 3780TIP3   OH211282   7.450   4.832   3.430
 3780TIP3    H111283   7.521   4.866   3.375
 3780TIP3    H211284   7.438   4.742   3.401
 3781TIP3   OH211285   1.413   4.908   1.123
 3781TIP3    H111286   1.369   4.864   1.050
 3781TIP3    H211287   1.505   4.884   1.115
 3782TIP3   OH211288   0.473   7.511   5.658
 3782TIP3    H111289   0.510   7.484   5.574
 3782TIP3    H211290   0.545   7.501   5.720
 3783TIP3   OH211291   0.055   5.537   6.619
 3783TIP3    H111292   0.149   5.542   6.599
 3783TIP3    H211293   0.045   5.456   6.669
 3784TIP3   OH211294   6.063   7.247   0.978
 3784TIP3    H111295   6.112   7.242   0.896
 3784TIP3    H211296   5.971   7.245   0.951
 3785TIP3   OH211297   5.108   3.093   5.359
 3785TIP3    H111298   5.022   3.134   5.372
 3785TIP3    H211299   5.155   3.154   5.302
 3786TIP3   OH211300   6.337   4.103   1.240
 3786TIP3    H111301   6.248   4.080   1.213
 3786TIP3    H211302   6.388   4.098   1.159
 3787TIP3   OH211303   5.035   4.527   3.275
 3787TIP3    H111304   5.103   4.583   3.237
 3787TIP3    H211305   4.953   4.558   3.237
 3788TIP3   OH211306   0.902   1.498   1.239
 3788TIP3    H111307   0.986   1.520   1.280
 3788TIP3    H211308   0.908   1.536   1.151
 3789TIP3   OH211309   0.486   2.820   3.767
 3789TIP3    H111310   0.426   2.886   3.731
 3789TIP3    H211311   0.437   2.737   3.760
 3790TIP3   OH211312   0.089   5.635   0.598
 3790TIP3    H111313   0.097   5.697   0.671
 3790TIP3    H211314   0.138   5.558   0.627
 3791TIP3   OH211315   7.290   4.279   0.665
 3791TIP3    H111316   7.341   4.354   0.635
 3791TIP3    H211317   7.212   4.279   0.611
 3792TIP3   OH211318   0.503   4.386   3.978
 3792TIP3    H111319   0.510   4.297   4.013
 3792TIP3    H211320   0.579   4.432   4.014
 3793TIP3   OH211321   6.823   4.976   6.368
 3793TIP3    H111322   6.814   4.898   6.313
 3793TIP3    H211323   6.908   4.966   6.411
 3794TIP3   OH211324   5.167   7.752   2.843
 3794TIP3    H111325   5.204   7.726   2.759
 3794TIP3    H211326   5.074   7.768   2.825
 3795TIP3   OH211327   6.890   5.589   6.191
 3795TIP3    H111328   6.922   5.531   6.259
 3795TIP3    H211329   6.958   5.587   6.123
 3796TIP3   OH211330   6.897   5.023   2.300
 3796TIP3    H111331   6.871   5.054   2.386
 3796TIP3    H211332   6.899   5.101   2.245
 3797TIP3   OH211333   0.347   4.604   2.601
 3797TIP3    H111334   0.320   4.624   2.691
 3797TIP3    H211335   0.430   4.649   2.590
 3798TIP3   OH211336   7.701   1.570   5.633
 3798TIP3    H111337   7.743   1.591   5.550
 3798TIP3    H211338   7.773   1.542   5.690
 3799TIP3   OH211339   7.000   4.336   1.130
 3799TIP3    H111340   7.045   4.273   1.186
 3799TIP3    H211341   6.907   4.313   1.138
 3800TIP3   OH211342   7.585   6.045   0.054
 3800TIP3    H111343   7.550   6.024   0.140
 3800TIP3    H211344   7.598   5.960   0.012
 3801TIP3   OH211345   4.205   1.361   5.747
 3801TIP3    H111346   4.246   1.321   5.670
 3801TIP3    H211347   4.264   1.338   5.819
 3802TIP3   OH211348   6.911   7.220   6.532
 3802TIP3    H111349   6.912   7.145   6.592
 3802TIP3    H211350   6.848   7.281   6.571
 3803TIP3   OH211351   6.791   4.648   6.596
 3803TIP3    H111352   6.712   4.626   6.646
 3803TIP3    H211353   6.775   4.613   6.509
 3804TIP3   OH211354   6.354   7.324   5.745
 3804TIP3    H111355   6.389   7.252   5.799
 3804TIP3    H211356   6.399   7.314   5.661
 3805TIP3   OH211357   5.909   7.402   2.451
 3805TIP3    H111358   5.825   7.386   2.494
 3805TIP3    H211359   5.973   7.407   2.522
 3806TIP3   OH211360   5.559   6.708   1.725
 3806TIP3    H111361   5.636   6.664   1.762
 3806TIP3    H211362   5.594   6.754   1.648
 3807TIP3   OH211363   6.982   4.398   4.229
 3807TIP3    H111364   7.033   4.321   4.204
 3807TIP3    H211365   6.952   4.434   4.146
 3808TIP3   OH211366   7.517   2.854   0.275
 3808TIP3    H111367   7.545   2.928   0.330
 3808TIP3    H211368   7.425   2.873   0.255
 3809TIP3   OH211369   6.852   6.641   3.337
 3809TIP3    H111370   6.887   6.700   3.405
 3809TIP3    H211371   6.929   6.593   3.306
 3810TIP3   OH211372   7.982   7.295   0.309
 3810TIP3    H111373   8.059   7.289   0.252
 3810TIP3    H211374   7.947   7.383   0.293
 3811TIP3   OH211375   6.571   2.512   4.235
 3811TIP3    H111376   6.635   2.509   4.164
 3811TIP3    H211377   6.578   2.601   4.270
 3812TIP3   OH211378   0.314   2.600   4.287
 3812TIP3    H111379   0.280   2.681   4.325
 3812TIP3    H211380   0.390   2.626   4.236
 3813TIP3   OH211381   1.482   4.651   1.037
 3813TIP3    H111382   1.545   4.653   0.964
 3813TIP3    H211383   1.433   4.569   1.024
 3814TIP3   OH211384   0.243   6.784   4.446
 3814TIP3    H111385   0.233   6.689   4.443
 3814TIP3    H211386   0.214   6.814   4.359
 3815TIP3   OH211387   7.283   6.753   4.263
 3815TIP3    H111388   7.344   6.826   4.262
 3815TIP3    H211389   7.231   6.767   4.342
 3816TIP3   OH211390   5.470   0.906   0.615
 3816TIP3    H111391   5.562   0.909   0.589
 3816TIP3    H211392   5.451   0.812   0.627
 3817TIP3   OH211393   4.525   3.700   1.069
 3817TIP3    H111394   4.548   3.656   0.988
 3817TIP3    H211395   4.539   3.793   1.052
 3818TIP3   OH211396   7.729   4.625   3.515
 3818TIP3    H111397   7.790   4.696   3.492
 3818TIP3    H211398   7.693   4.596   3.431
 3819TIP3   OH211399   0.873   7.576   3.831
 3819TIP3    H111400   0.962   7.610   3.824
 3819TIP3    H211401   0.840   7.576   3.741
 3820TIP3   OH211402   7.285   5.724   5.228
 3820TIP3    H111403   7.199   5.749   5.263
 3820TIP3    H211404   7.278   5.741   5.134
 3821TIP3   OH211405   5.612   2.561   2.837
 3821TIP3    H111406   5.684   2.504   2.864
 3821TIP3    H211407   5.558   2.506   2.780
 3822TIP3   OH211408   5.656   0.852   1.492
 3822TIP3    H111409   5.605   0.922   1.533
 3822TIP3    H211410   5.730   0.839   1.551
 3823TIP3   OH211411   4.301   4.019   3.332
 3823TIP3    H111412   4.361   4.091   3.354
 3823TIP3    H211413   4.246   4.056   3.263
 3824TIP3   OH211414   2.762   5.152   2.288
 3824TIP3    H111415   2.805   5.178   2.369
 3824TIP3    H211416   2.676   5.192   2.292
 3825TIP3   OH211417   1.361   4.817   3.827
 3825TIP3    H111418   1.363   4.857   3.741
 3825TIP3    H211419   1.331   4.886   3.886
 3826TIP3   OH211420   0.653   2.926   0.709
 3826TIP3    H111421   0.668   3.003   0.764
 3826TIP3    H211422   0.559   2.909   0.716
 3827TIP3   OH211423   4.899   3.174   1.890
 3827TIP3    H111424   4.940   3.091   1.917
 3827TIP3    H211425   4.932   3.238   1.954
 3828TIP3   OH211426   2.680   7.189   3.208
 3828TIP3    H111427   2.621   7.154   3.142
 3828TIP3    H211428   2.768   7.175   3.172
 3829TIP3   OH211429   4.884   1.141   5.434
 3829TIP3    H111430   4.937   1.069   5.470
 3829TIP3    H211431   4.841   1.102   5.358
 3830TIP3   OH211432   1.652   2.184   1.497
 3830TIP3    H111433   1.684   2.274   1.494
 3830TIP3    H211434   1.566   2.189   1.456
 3831TIP3   OH211435   7.441   7.224   3.303
 3831TIP3    H111436   7.377   7.280   3.258
 3831TIP3    H211437   7.389   7.156   3.344
 3832TIP3   OH211438   4.920   5.084   5.228
 3832TIP3    H111439   4.828   5.060   5.218
 3832TIP3    H211440   4.928   5.108   5.321
 3833TIP3   OH211441   1.074   6.036   4.282
 3833TIP3    H111442   1.014   6.067   4.350
 3833TIP3    H211443   1.138   5.983   4.329
 3834TIP3   OH211444   4.536   3.780   6.210
 3834TIP3    H111445   4.598   3.761   6.139
 3834TIP3    H211446   4.455   3.802   6.165
 3835TIP3   OH211447   3.630   6.912   2.012
 3835TIP3    H111448   3.688   6.982   2.044
 3835TIP3    H211449   3.542   6.951   2.014
 3836TIP3   OH211450   6.070   6.003   5.774
 3836TIP3    H111451   5.995   5.975   5.826
 3836TIP3    H211452   6.106   5.922   5.738
 3837TIP3   OH211453   0.499   4.763   6.403
 3837TIP3    H111454   0.422   4.793   6.453
 3837TIP3    H211455   0.511   4.829   6.335
 3838TIP3   OH211456   3.468   4.483   2.033
 3838TIP3    H111457   3.480   4.544   1.960
 3838TIP3    H211458   3.382   4.504   2.069
 3839TIP3   OH211459   2.936   5.610   1.223
 3839TIP3    H111460   3.001   5.595   1.155
 3839TIP3    H211461   2.967   5.559   1.297
 3840TIP3   OH211462   8.240   1.199   5.963
 3840TIP3    H111463   8.274   1.110   5.970
 3840TIP3    H211464   8.269   1.228   5.876
 3841TIP3   OH211465   7.583   4.250   5.712
 3841TIP3    H111466   7.550   4.161   5.726
 3841TIP3    H211467   7.520   4.291   5.654
 3842TIP3   OH211468   5.245   5.243   3.530
 3842TIP3    H111469   5.295   5.317   3.496
 3842TIP3    H211470   5.180   5.225   3.461
 3843TIP3   OH211471   7.279   1.936   3.381
 3843TIP3    H111472   7.188   1.960   3.397
 3843TIP3    H211473   7.279   1.897   3.294
 3844TIP3   OH211474   5.963   0.099   4.965
 3844TIP3    H111475   5.959   0.078   4.871
 3844TIP3    H211476   5.893   0.046   5.004
 3845TIP3   OH211477   7.286   1.238   5.563
 3845TIP3    H111478   7.237   1.209   5.640
 3845TIP3    H211479   7.352   1.298   5.597
 3846TIP3   OH211480   2.619   5.550   3.719
 3846TIP3    H111481   2.656   5.478   3.770
 3846TIP3    H211482   2.627   5.626   3.777
 3847TIP3   OH211483   3.035   0.938   0.847
 3847TIP3    H111484   2.996   0.952   0.761
 3847TIP3    H211485   2.961   0.920   0.905
 3848TIP3   OH211486   5.057   3.443   1.249
 3848TIP3    H111487   5.093   3.429   1.336
 3848TIP3    H211488   5.113   3.390   1.192
 3849TIP3   OH211489   0.968   0.285   5.910
 3849TIP3    H111490   0.986   0.379   5.918
 3849TIP3    H211491   1.051   0.243   5.933
 3850TIP3   OH211492   5.157   7.702   3.753
 3850TIP3    H111493   5.135   7.624   3.805
 3850TIP3    H211494   5.153   7.774   3.815
 3851TIP3   OH211495   1.737   3.654   4.552
 3851TIP3    H111496   1.746   3.701   4.635
 3851TIP3    H211497   1.820   3.668   4.507
 3852TIP3   OH211498   5.602   7.635   5.975
 3852TIP3    H111499   5.529   7.634   6.037
 3852TIP3    H211500   5.589   7.558   5.921
 3853TIP3   OH211501   1.961   2.275   3.530
 3853TIP3    H111502   2.032   2.247   3.472
 3853TIP3    H211503   1.920   2.348   3.483
 3854TIP3   OH211504   0.977   2.880   3.919
 3854TIP3    H111505   0.887   2.867   3.949
 3854TIP3    H211506   1.012   2.792   3.909
 3855TIP3   OH211507   4.855   4.039   4.217
 3855TIP3    H111508   4.773   4.016   4.174
 3855TIP3    H211509   4.923   4.004   4.160
 3856TIP3   OH211510   0.729   6.749   1.854
 3856TIP3    H111511   0.676   6.672   1.836
 3856TIP3    H211512   0.779   6.764   1.774
 3857TIP3   OH211513   4.041   2.864   2.144
 3857TIP3    H111514   4.117   2.811   2.165
 3857TIP3    H211515   4.013   2.901   2.228
 3858TIP3   OH211516   6.849   5.295   1.110
 3858TIP3    H111517   6.813   5.378   1.078
 3858TIP3    H211518   6.773   5.247   1.143
 3859TIP3   OH211519   1.664   2.222   6.084
 3859TIP3    H111520   1.730   2.238   6.016
 3859TIP3    H211521   1.687   2.136   6.119
 3860TIP3   OH211522   6.229   5.152   0.735
 3860TIP3    H111523   6.198   5.137   0.824
 3860TIP3    H211524   6.150   5.174   0.685
 3861TIP3   OH211525   4.505   5.352   5.653
 3861TIP3    H111526   4.489   5.274   5.601
 3861TIP3    H211527   4.428   5.360   5.709
 3862TIP3   OH211528   1.820   2.620   5.051
 3862TIP3    H111529   1.827   2.682   4.979
 3862TIP3    H211530   1.751   2.656   5.107
 3863TIP3   OH211531   3.262   5.622   2.498
 3863TIP3    H111532   3.354   5.595   2.503
 3863TIP3    H211533   3.213   5.540   2.493
 3864TIP3   OH211534   1.379   0.097   3.150
 3864TIP3    H111535   1.353   0.018   3.197
 3864TIP3    H211536   1.307   0.158   3.162
 3865TIP3   OH211537   4.684   5.147   1.123
 3865TIP3    H111538   4.605   5.109   1.162
 3865TIP3    H211539   4.730   5.073   1.083
 3866TIP3   OH211540   6.727   3.395   2.323
 3866TIP3    H111541   6.698   3.310   2.291
 3866TIP3    H211542   6.645   3.441   2.345
 3867TIP3   OH211543   7.167   2.741   2.024
 3867TIP3    H111544   7.171   2.824   2.072
 3867TIP3    H211545   7.075   2.733   1.998
 3868TIP3   OH211546   3.364   7.272   0.321
 3868TIP3    H111547   3.425   7.224   0.264
 3868TIP3    H211548   3.396   7.255   0.410
 3869TIP3   OH211549   0.311   0.442   3.882
 3869TIP3    H111550   0.364   0.521   3.895
 3869TIP3    H211551   0.232   0.474   3.838
 3870TIP3   OH211552   0.966   1.204   0.495
 3870TIP3    H111553   1.020   1.141   0.448
 3870TIP3    H211554   0.999   1.290   0.466
 3871TIP3   OH211555   3.392   2.912   5.391
 3871TIP3    H111556   3.332   2.884   5.460
 3871TIP3    H211557   3.408   3.004   5.409
 3872TIP3   OH211558   2.577   2.295   0.181
 3872TIP3    H111559   2.555   2.208   0.149
 3872TIP3    H211560   2.550   2.296   0.272
 3873TIP3   OH211561   7.088   0.327   3.440
 3873TIP3    H111562   7.122   0.322   3.351
 3873TIP3    H211563   7.162   0.303   3.495
 3874TIP3   OH211564   3.547   2.390   1.716
 3874TIP3    H111565   3.609   2.333   1.762
 3874TIP3    H211566   3.461   2.363   1.749
 3875TIP3   OH211567   8.269   0.518   6.265
 3875TIP3    H111568   8.221   0.438   6.243
 3875TIP3    H211569   8.249   0.578   6.192
 3876TIP3   OH211570   2.469   7.232   4.200
 3876TIP3    H111571   2.512   7.226   4.115
 3876TIP3    H211572   2.538   7.262   4.260
 3877TIP3   OH211573   7.647   3.880   1.325
 3877TIP3    H111574   7.654   3.903   1.233
 3877TIP3    H211575   7.678   3.790   1.330
 3878TIP3   OH211576   2.554   6.991   0.554
 3878TIP3    H111577   2.519   7.068   0.509
 3878TIP3    H211578   2.500   6.983   0.633
 3879TIP3   OH211579   7.881   1.444   5.130
 3879TIP3    H111580   7.912   1.360   5.165
 3879TIP3    H211581   7.818   1.475   5.195
 3880TIP3   OH211582   7.753   7.315   1.475
 3880TIP3    H111583   7.819   7.381   1.453
 3880TIP3    H211584   7.796   7.258   1.538
 3881TIP3   OH211585   1.650   7.388   3.207
 3881TIP3    H111586   1.718   7.444   3.169
 3881TIP3    H211587   1.577   7.447   3.224
 3882TIP3   OH211588   2.046   2.060   4.591
 3882TIP3    H111589   1.969   2.005   4.599
 3882TIP3    H211590   2.108   2.025   4.655
 3883TIP3   OH211591   3.117   1.536   1.168
 3883TIP3    H111592   3.113   1.606   1.103
 3883TIP3    H211593   3.169   1.572   1.240
 3884TIP3   OH211594   4.637   4.843   5.759
 3884TIP3    H111595   4.679   4.876   5.839
 3884TIP3    H211596   4.553   4.890   5.755
 3885TIP3   OH211597   4.064   3.121   5.299
 3885TIP3    H111598   4.095   3.173   5.225
 3885TIP3    H211599   4.126   3.049   5.305
 3886TIP3   OH211600   5.070   7.550   3.239
 3886TIP3    H111601   5.156   7.513   3.221
 3886TIP3    H211602   5.081   7.599   3.320
 3887TIP3   OH211603   7.690   3.228   3.303
 3887TIP3    H111604   7.679   3.322   3.292
 3887TIP3    H211605   7.665   3.191   3.218
 3888TIP3   OH211606   8.226   2.627   1.428
 3888TIP3    H111607   8.135   2.645   1.406
 3888TIP3    H211608   8.223   2.582   1.512
 3889TIP3   OH211609   2.418   4.323   1.733
 3889TIP3    H111610   2.495   4.300   1.681
 3889TIP3    H211611   2.444   4.401   1.781
 3890TIP3   OH211612   0.500   4.817   6.706
 3890TIP3    H111613   0.564   4.859   6.648
 3890TIP3    H211614   0.416   4.830   6.661
 3891TIP3   OH211615   3.783   7.647   6.530
 3891TIP3    H111616   3.692   7.677   6.526
 3891TIP3    H211617   3.788   7.576   6.465
 3892TIP3   OH211618   8.257   1.578   5.710
 3892TIP3    H111619   8.350   1.586   5.732
 3892TIP3    H211620   8.256   1.565   5.615
 3893TIP3   OH211621   7.746   2.343   2.609
 3893TIP3    H111622   7.781   2.374   2.526
 3893TIP3    H211623   7.763   2.249   2.609
 3894TIP3   OH211624   6.329   3.357   1.432
 3894TIP3    H111625   6.349   3.274   1.476
 3894TIP3    H211626   6.394   3.364   1.363
 3895TIP3   OH211627   3.863   1.147   2.226
 3895TIP3    H111628   3.914   1.160   2.146
 3895TIP3    H211629   3.783   1.197   2.211
 3896TIP3   OH211630   3.306   3.573   0.599
 3896TIP3    H111631   3.324   3.547   0.690
 3896TIP3    H211632   3.328   3.666   0.596
 3897TIP3   OH211633   1.589   1.858   4.042
 3897TIP3    H111634   1.650   1.840   4.113
 3897TIP3    H211635   1.611   1.794   3.974
 3898TIP3   OH211636   7.951   0.601   3.079
 3898TIP3    H111637   7.924   0.678   3.129
 3898TIP3    H211638   7.907   0.528   3.122
 3899TIP3   OH211639   5.869   0.841   0.705
 3899TIP3    H111640   5.892   0.826   0.613
 3899TIP3    H211641   5.846   0.754   0.738
 3900TIP3   OH211642   4.588   5.408   0.554
 3900TIP3    H111643   4.576   5.392   0.647
 3900TIP3    H211644   4.540   5.338   0.510
 3901TIP3   OH211645   1.259   0.444   0.332
 3901TIP3    H111646   1.211   0.525   0.346
 3901TIP3    H211647   1.333   0.470   0.276
 3902TIP3   OH211648   1.903   2.023   1.219
 3902TIP3    H111649   1.856   2.099   1.184
 3902TIP3    H211650   1.906   2.038   1.313
 3903TIP3   OH211651   1.574   1.893   1.744
 3903TIP3    H111652   1.530   1.809   1.728
 3903TIP3    H211653   1.517   1.939   1.805
 3904TIP3   OH211654   7.085   7.791   1.870
 3904TIP3    H111655   7.110   7.855   1.803
 3904TIP3    H211656   7.168   7.764   1.910
 3905TIP3   OH211657   6.593   6.111   4.486
 3905TIP3    H111658   6.588   6.084   4.395
 3905TIP3    H211659   6.508   6.086   4.524
 3906TIP3   OH211660   3.192   7.254   4.014
 3906TIP3    H111661   3.226   7.304   4.088
 3906TIP3    H211662   3.156   7.321   3.955
 3907TIP3   OH211663   6.448   0.139   1.250
 3907TIP3    H111664   6.415   0.099   1.331
 3907TIP3    H211665   6.371   0.155   1.197
 3908TIP3   OH211666   6.958   3.136   1.260
 3908TIP3    H111667   6.894   3.081   1.306
 3908TIP3    H211668   6.960   3.217   1.311
 3909TIP3   OH211669   4.371   1.305   5.950
 3909TIP3    H111670   4.452   1.343   5.982
 3909TIP3    H211671   4.334   1.259   6.025
 3910TIP3   OH211672   7.186   4.966   3.150
 3910TIP3    H111673   7.189   4.973   3.246
 3910TIP3    H211674   7.246   4.895   3.129
 3911TIP3   OH211675   4.178   0.629   1.577
 3911TIP3    H111676   4.163   0.713   1.621
 3911TIP3    H211677   4.147   0.564   1.640
 3912TIP3   OH211678   4.539   0.867   2.010
 3912TIP3    H111679   4.482   0.807   1.963
 3912TIP3    H211680   4.628   0.834   1.993
 3913TIP3   OH211681   7.525   0.069   0.393
 3913TIP3    H111682   7.520   0.001   0.327
 3913TIP3    H211683   7.434   0.098   0.404
 3914TIP3   OH211684   0.972   1.608   3.297
 3914TIP3    H111685   0.936   1.681   3.248
 3914TIP3    H211686   1.023   1.650   3.367
 3915TIP3   OH211687   5.149   0.442   1.450
 3915TIP3    H111688   5.138   0.357   1.408
 3915TIP3    H211689   5.156   0.423   1.544
 3916TIP3   OH211690   3.362   1.505   2.143
 3916TIP3    H111691   3.311   1.457   2.208
 3916TIP3    H211692   3.300   1.568   2.107
 3917TIP3   OH211693   4.919   7.572   5.357
 3917TIP3    H111694   5.012   7.596   5.362
 3917TIP3    H211695   4.917   7.478   5.377
 3918TIP3   OH211696   3.015   4.553   2.928
 3918TIP3    H111697   3.071   4.584   2.856
 3918TIP3    H211698   2.950   4.497   2.885
 3919TIP3   OH211699   7.732   2.343   4.672
 3919TIP3    H111700   7.774   2.292   4.603
 3919TIP3    H211701   7.704   2.423   4.628
 3920TIP3   OH211702   1.596   2.529   5.484
 3920TIP3    H111703   1.502   2.542   5.502
 3920TIP3    H211704   1.637   2.612   5.510
 3921TIP3   OH211705   7.391   6.476   6.205
 3921TIP3    H111706   7.481   6.464   6.235
 3921TIP3    H211707   7.337   6.455   6.281
 3922TIP3   OH211708   1.043   2.231   0.892
 3922TIP3    H111709   0.998   2.244   0.975
 3922TIP3    H211710   1.014   2.304   0.837
 3923TIP3   OH211711   1.445   3.029   2.745
 3923TIP3    H111712   1.525   3.022   2.693
 3923TIP3    H211713   1.466   2.982   2.826
 3924TIP3   OH211714   2.936   7.369   1.541
 3924TIP3    H111715   2.976   7.422   1.610
 3924TIP3    H211716   2.922   7.430   1.469
 3925TIP3   OH211717   5.517   5.559   0.107
 3925TIP3    H111718   5.519   5.635   0.165
 3925TIP3    H211719   5.441   5.574   0.051
 3926TIP3   OH211720   1.277   5.029   0.148
 3926TIP3    H111721   1.348   5.024   0.212
 3926TIP3    H211722   1.321   5.017   0.063
 3927TIP3   OH211723   4.432   2.474   0.341
 3927TIP3    H111724   4.458   2.490   0.431
 3927TIP3    H211725   4.336   2.481   0.342
 3928TIP3   OH211726   4.163   3.531   4.876
 3928TIP3    H111727   4.121   3.458   4.921
 3928TIP3    H211728   4.112   3.608   4.902
 3929TIP3   OH211729   3.845   2.498   1.602
 3929TIP3    H111730   3.804   2.584   1.613
 3929TIP3    H211731   3.890   2.482   1.685
 3930TIP3   OH211732   6.459   7.244   2.234
 3930TIP3    H111733   6.406   7.240   2.313
 3930TIP3    H211734   6.435   7.328   2.194
 3931TIP3   OH211735   6.066   1.533   2.050
 3931TIP3    H111736   6.093   1.441   2.044
 3931TIP3    H211737   6.146   1.583   2.037
 3932TIP3   OH211738   3.479   3.038   0.021
 3932TIP3    H111739   3.414   3.098   0.059
 3932TIP3    H211740   3.433   2.954   0.014
 3933TIP3   OH211741   3.230   1.334   2.967
 3933TIP3    H111742   3.209   1.320   3.060
 3933TIP3    H211743   3.166   1.280   2.920
 3934TIP3   OH211744   1.278   0.304   5.134
 3934TIP3    H111745   1.235   0.346   5.208
 3934TIP3    H211746   1.253   0.358   5.058
 3935TIP3   OH211747   1.722   5.218   3.999
 3935TIP3    H111748   1.763   5.132   3.992
 3935TIP3    H211749   1.752   5.265   3.922
 3936TIP3   OH211750   5.106   5.230   5.047
 3936TIP3    H111751   5.132   5.296   5.112
 3936TIP3    H211752   5.049   5.170   5.095
 3937TIP3   OH211753   5.361   4.473   3.404
 3937TIP3    H111754   5.424   4.483   3.476
 3937TIP3    H211755   5.277   4.462   3.447
 3938TIP3   OH211756   7.597   6.077   1.830
 3938TIP3    H111757   7.681   6.123   1.826
 3938TIP3    H211758   7.544   6.117   1.761
 3939TIP3   OH211759   5.849   3.711   3.467
 3939TIP3    H111760   5.861   3.643   3.534
 3939TIP3    H211761   5.818   3.664   3.390
 3940TIP3   OH211762   0.763   6.107   6.744
 3940TIP3    H111763   0.705   6.154   6.803
 3940TIP3    H211764   0.851   6.135   6.768
 3941TIP3   OH211765   2.448   2.721   1.832
 3941TIP3    H111766   2.504   2.662   1.782
 3941TIP3    H211767   2.374   2.667   1.859
 3942TIP3   OH211768   7.193   2.346   5.057
 3942TIP3    H111769   7.219   2.315   4.970
 3942TIP3    H211770   7.099   2.367   5.048
 3943TIP3   OH211771   8.251   5.137   3.050
 3943TIP3    H111772   8.262   5.227   3.019
 3943TIP3    H211773   8.206   5.145   3.134
 3944TIP3   OH211774   3.249   5.032   1.885
 3944TIP3    H111775   3.326   5.037   1.829
 3944TIP3    H211776   3.279   4.986   1.964
 3945TIP3   OH211777   6.081   5.217   1.770
 3945TIP3    H111778   6.090   5.129   1.807
 3945TIP3    H211779   6.013   5.259   1.823
 3946TIP3   OH211780   4.530   6.719   3.358
 3946TIP3    H111781   4.476   6.780   3.308
 3946TIP3    H211782   4.611   6.768   3.376
 3947TIP3   OH211783   7.761   7.525   4.421
 3947TIP3    H111784   7.767   7.496   4.330
 3947TIP3    H211785   7.732   7.447   4.469
 3948TIP3   OH211786   1.879   7.747   5.705
 3948TIP3    H111787   1.925   7.725   5.624
 3948TIP3    H211788   1.934   7.709   5.774
 3949TIP3   OH211789   2.198   5.986   4.485
 3949TIP3    H111790   2.270   5.928   4.509
 3949TIP3    H211791   2.220   6.070   4.525
 3950TIP3   OH211792   7.871   3.688   4.718
 3950TIP3    H111793   7.881   3.768   4.770
 3950TIP3    H211794   7.783   3.694   4.682
 3951TIP3   OH211795   0.482   4.224   3.088
 3951TIP3    H111796   0.503   4.162   3.019
 3951TIP3    H211797   0.556   4.285   3.090
 3952TIP3   OH211798   1.021   3.597   1.403
 3952TIP3    H111799   0.997   3.671   1.458
 3952TIP3    H211800   1.090   3.631   1.346
 3953TIP3   OH211801   3.219   3.511   3.965
 3953TIP3    H111802   3.280   3.584   3.964
 3953TIP3    H211803   3.230   3.468   3.880
 3954TIP3   OH211804   5.944   4.962   6.289
 3954TIP3    H111805   5.956   5.027   6.220
 3954TIP3    H211806   5.936   5.014   6.369
 3955TIP3   OH211807   7.977   4.784   5.735
 3955TIP3    H111808   8.045   4.842   5.702
 3955TIP3    H211809   7.951   4.731   5.660
 3956TIP3   OH211810   7.471   1.622   2.881
 3956TIP3    H111811   7.456   1.716   2.884
 3956TIP3    H211812   7.447   1.597   2.791
 3957TIP3   OH211813   7.326   3.101   4.473
 3957TIP3    H111814   7.345   3.008   4.487
 3957TIP3    H211815   7.345   3.142   4.558
 3958TIP3   OH211816   3.633   0.784   0.249
 3958TIP3    H111817   3.674   0.857   0.295
 3958TIP3    H211818   3.540   0.807   0.245
 3959TIP3   OH211819   8.248   6.144   6.143
 3959TIP3    H111820   8.205   6.191   6.214
 3959TIP3    H211821   8.183   6.079   6.114
 3960TIP3   OH211822   7.779   7.221   4.974
 3960TIP3    H111823   7.838   7.295   4.975
 3960TIP3    H211824   7.767   7.197   5.066
 3961TIP3   OH211825   6.350   1.879   3.285
 3961TIP3    H111826   6.379   1.914   3.201
 3961TIP3    H211827   6.389   1.792   3.290
 3962TIP3   OH211828   5.353   6.234   2.126
 3962TIP3    H111829   5.345   6.197   2.039
 3962TIP3    H211830   5.300   6.314   2.123
 3963TIP3   OH211831   0.764   0.319   0.464
 3963TIP3    H111832   0.854   0.286   0.461
 3963TIP3    H211833   0.733   0.295   0.551
 3964TIP3   OH211834   5.901   4.592   2.529
 3964TIP3    H111835   5.844   4.660   2.491
 3964TIP3    H211836   5.962   4.641   2.585
 3965TIP3   OH211837   7.798   3.956   6.622
 3965TIP3    H111838   7.879   3.907   6.639
 3965TIP3    H211839   7.806   4.035   6.676
 3966TIP3   OH211840   4.216   7.170   4.661
 3966TIP3    H111841   4.296   7.161   4.609
 3966TIP3    H211842   4.194   7.081   4.688
 3967TIP3   OH211843   7.423   2.524   3.878
 3967TIP3    H111844   7.400   2.432   3.896
 3967TIP3    H211845   7.514   2.521   3.848
 3968TIP3   OH211846   7.515   4.110   1.394
 3968TIP3    H111847   7.569   4.031   1.401
 3968TIP3    H211848   7.427   4.078   1.376
 3969TIP3   OH211849   7.385   2.493   5.197
 3969TIP3    H111850   7.345   2.578   5.215
 3969TIP3    H211851   7.321   2.447   5.142
 3970TIP3   OH211852   5.870   6.376   1.762
 3970TIP3    H111853   5.840   6.451   1.814
 3970TIP3    H211854   5.931   6.329   1.820
 3971TIP3   OH211855   1.555   7.147   0.887
 3971TIP3    H111856   1.496   7.161   0.813
 3971TIP3    H211857   1.578   7.236   0.916
 3972TIP3   OH211858   0.886   0.444   2.504
 3972TIP3    H111859   0.946   0.516   2.527
 3972TIP3    H211860   0.902   0.427   2.412
 3973TIP3   OH211861   4.747   2.802   5.122
 3973TIP3    H111862   4.803   2.858   5.174
 3973TIP3    H211863   4.717   2.858   5.050
 3974TIP3   OH211864   1.827   0.390   5.527
 3974TIP3    H111865   1.870   0.460   5.576
 3974TIP3    H211866   1.896   0.325   5.512
 3975TIP3   OH211867   0.962   6.733   0.513
 3975TIP3    H111868   0.902   6.769   0.448
 3975TIP3    H211869   0.963   6.798   0.584
 3976TIP3   OH211870   2.867   0.748   6.044
 3976TIP3    H111871   2.856   0.827   6.097
 3976TIP3    H211872   2.955   0.717   6.065
 3977TIP3   OH211873   1.657   6.537   4.070
 3977TIP3    H111874   1.732   6.514   4.015
 3977TIP3    H211875   1.582   6.497   4.026
 3978TIP3   OH211876   2.320   5.719   4.848
 3978TIP3    H111877   2.257   5.720   4.776
 3978TIP3    H211878   2.310   5.632   4.888
 3979TIP3   OH211879   2.240   1.754   4.354
 3979TIP3    H111880   2.321   1.804   4.362
 3979TIP3    H211881   2.212   1.739   4.444
 3980TIP3   OH211882   7.436   7.345   1.029
 3980TIP3    H111883   7.383   7.399   0.971
 3980TIP3    H211884   7.498   7.302   0.970
 3981TIP3   OH211885   1.871   4.788   1.703
 3981TIP3    H111886   1.957   4.828   1.689
 3981TIP3    H211887   1.825   4.801   1.620
 3982TIP3   OH211888   8.015   3.503   2.776
 3982TIP3    H111889   8.042   3.413   2.789
 3982TIP3    H211890   8.024   3.544   2.862
 3983TIP3   OH211891   5.000   4.069   6.739
 3983TIP3    H111892   4.947   3.990   6.729
 3983TIP3    H211893   5.022   4.073   6.832
 3984TIP3   OH211894   6.437   7.736   6.680
 3984TIP3    H111895   6.419   7.647   6.647
 3984TIP3    H211896   6.351   7.778   6.682
 3985TIP3   OH211897   1.187   2.378   1.208
 3985TIP3    H111898   1.238   2.329   1.143
 3985TIP3    H211899   1.099   2.341   1.202
 3986TIP3   OH211900   3.675   4.881   1.640
 3986TIP3    H111901   3.744   4.947   1.656
 3986TIP3    H211902   3.719   4.797   1.656
 3987TIP3   OH211903   7.601   7.207   1.951
 3987TIP3    H111904   7.506   7.206   1.934
 3987TIP3    H211905   7.637   7.268   1.886
 3988TIP3   OH211906   2.163   3.215   0.458
 3988TIP3    H111907   2.236   3.272   0.435
 3988TIP3    H211908   2.108   3.214   0.380
 3989TIP3   OH211909   1.994   5.842   0.029
 3989TIP3    H111910   1.974   5.756   0.066
 3989TIP3    H211911   2.002   5.899   0.106
 3990TIP3   OH211912   6.761   0.460   3.837
 3990TIP3    H111913   6.705   0.415   3.899
 3990TIP3    H211914   6.842   0.476   3.885
 3991TIP3   OH211915   1.703   1.217   6.228
 3991TIP3    H111916   1.655   1.271   6.166
 3991TIP3    H211917   1.705   1.130   6.188
 3992TIP3   OH211918   6.116   4.413   5.031
 3992TIP3    H111919   6.064   4.468   4.974
 3992TIP3    H211920   6.118   4.328   4.988
 3993TIP3   OH211921   6.408   5.074   6.582
 3993TIP3    H111922   6.419   5.026   6.501
 3993TIP3    H211923   6.317   5.105   6.580
 3994TIP3   OH211924   4.516   2.271   5.679
 3994TIP3    H111925   4.607   2.290   5.698
 3994TIP3    H211926   4.486   2.344   5.625
 3995TIP3   OH211927   1.869   4.345   4.068
 3995TIP3    H111928   1.826   4.427   4.090
 3995TIP3    H211929   1.959   4.370   4.044
 3996TIP3   OH211930   0.816   1.833   1.872
 3996TIP3    H111931   0.830   1.739   1.866
 3996TIP3    H211932   0.894   1.871   1.831
 3997TIP3   OH211933   7.641   0.867   6.638
 3997TIP3    H111934   7.721   0.840   6.682
 3997TIP3    H211935   7.622   0.796   6.577
 3998TIP3   OH211936   4.841   5.704   1.042
 3998TIP3    H111937   4.893   5.784   1.053
 3998TIP3    H211938   4.905   5.633   1.048
 3999TIP3   OH211939   5.647   2.596   6.205
 3999TIP3    H111940   5.573   2.586   6.265
 3999TIP3    H211941   5.656   2.511   6.164
 4000TIP3   OH211942   5.771   3.306   0.173
 4000TIP3    H111943   5.779   3.284   0.265
 4000TIP3    H211944   5.793   3.226   0.126
 4001TIP3   OH211945   0.576   6.302   1.425
 4001TIP3    H111946   0.643   6.286   1.492
 4001TIP3    H211947   0.510   6.354   1.470
 4002TIP3   OH211948   3.466   6.627   1.959
 4002TIP3    H111949   3.524   6.566   1.915
 4002TIP3    H211950   3.522   6.699   1.988
 4003TIP3   OH211951   1.620   1.503   2.860
 4003TIP3    H111952   1.668   1.514   2.777
 4003TIP3    H211953   1.656   1.570   2.918
 4004TIP3   OH211954   2.324   1.238   4.058
 4004TIP3    H111955   2.356   1.305   3.997
 4004TIP3    H211956   2.269   1.286   4.120
 4005TIP3   OH211957   5.881   4.373   5.821
 4005TIP3    H111958   5.898   4.455   5.775
 4005TIP3    H211959   5.796   4.386   5.863
 4006TIP3   OH211960   0.544   6.218   5.615
 4006TIP3    H111961   0.577   6.259   5.535
 4006TIP3    H211962   0.458   6.258   5.628
 4007TIP3   OH211963   2.886   3.336   5.368
 4007TIP3    H111964   2.819   3.270   5.385
 4007TIP3    H211965   2.958   3.313   5.427
 4008TIP3   OH211966   5.530   5.344   5.866
 4008TIP3    H111967   5.467   5.407   5.831
 4008TIP3    H211968   5.611   5.393   5.874
 4009TIP3   OH211969   5.936   6.296   5.046
 4009TIP3    H111970   5.935   6.267   4.955
 4009TIP3    H211971   5.969   6.386   5.042
 4010TIP3   OH211972   7.613   6.105   0.664
 4010TIP3    H111973   7.556   6.180   0.649
 4010TIP3    H211974   7.665   6.099   0.584
 4011TIP3   OH211975   3.165   1.180   0.937
 4011TIP3    H111976   3.131   1.091   0.936
 4011TIP3    H211977   3.231   1.181   0.867
 4012TIP3   OH211978   0.508   3.211   1.204
 4012TIP3    H111979   0.496   3.306   1.200
 4012TIP3    H211980   0.501   3.189   1.297
 4013TIP3   OH211981   1.574   2.360   0.789
 4013TIP3    H111982   1.534   2.273   0.791
 4013TIP3    H211983   1.512   2.413   0.738
 4014TIP3   OH211984   2.987   7.801   0.702
 4014TIP3    H111985   2.979   7.894   0.680
 4014TIP3    H211986   3.040   7.799   0.781
 4015TIP3   OH211987   0.647   4.341   5.976
 4015TIP3    H111988   0.678   4.266   5.926
 4015TIP3    H211989   0.601   4.303   6.051
 4016TIP3   OH211990   2.002   4.795   3.304
 4016TIP3    H111991   1.940   4.772   3.374
 4016TIP3    H211992   1.948   4.805   3.226
 4017TIP3   OH211993   7.153   1.092   4.990
 4017TIP3    H111994   7.131   1.037   5.066
 4017TIP3    H211995   7.078   1.081   4.931
 4018TIP3   OH211996   6.499   5.322   4.644
 4018TIP3    H111997   6.407   5.329   4.619
 4018TIP3    H211998   6.525   5.413   4.661
 4019TIP3   OH211999   7.124   1.330   5.837
 4019TIP3    H112000   7.157   1.416   5.811
 4019TIP3    H212001   7.173   1.309   5.917
 4020TIP3   OH212002   6.569   0.952   2.836
 4020TIP3    H112003   6.654   0.934   2.797
 4020TIP3    H212004   6.556   1.047   2.824
 4021TIP3   OH212005   1.505   3.199   0.194
 4021TIP3    H112006   1.466   3.271   0.144
 4021TIP3    H212007   1.495   3.122   0.138
 4022TIP3   OH212008   0.115   6.412   3.615
 4022TIP3    H112009   0.132   6.499   3.580
 4022TIP3    H212010   0.049   6.375   3.556
 4023TIP3   OH212011   4.197   1.350   1.144
 4023TIP3    H112012   4.191   1.257   1.164
 4023TIP3    H212013   4.289   1.372   1.157
 4024TIP3   OH212014   6.796   4.600   2.363
 4024TIP3    H112015   6.701   4.593   2.356
 4024TIP3    H212016   6.824   4.629   2.276
 4025TIP3   OH212017   3.190   2.157   4.563
 4025TIP3    H112018   3.181   2.087   4.627
 4025TIP3    H212019   3.133   2.227   4.596
 4026TIP3   OH212020   4.890   2.484   0.335
 4026TIP3    H112021   4.805   2.474   0.292
 4026TIP3    H212022   4.878   2.556   0.396
 4027TIP3   OH212023   4.298   7.021   6.154
 4027TIP3    H112024   4.217   6.970   6.158
 4027TIP3    H212025   4.273   7.108   6.187
 4028TIP3   OH212026   7.922   0.893   3.191
 4028TIP3    H112027   7.964   0.915   3.109
 4028TIP3    H212028   7.941   0.966   3.249
 4029TIP3   OH212029   7.365   3.036   3.770
 4029TIP3    H112030   7.384   2.970   3.702
 4029TIP3    H212031   7.321   3.107   3.723
 4030TIP3   OH212032   1.983   4.148   1.709
 4030TIP3    H112033   2.057   4.092   1.734
 4030TIP3    H212034   1.932   4.095   1.648
 4031TIP3   OH212035   8.218   2.604   4.806
 4031TIP3    H112036   8.223   2.700   4.813
 4031TIP3    H212037   8.267   2.583   4.727
 4032TIP3   OH212038   0.720   1.212   1.600
 4032TIP3    H112039   0.795   1.160   1.630
 4032TIP3    H212040   0.671   1.231   1.680
 4033TIP3   OH212041   2.826   0.977   6.220
 4033TIP3    H112042   2.743   0.965   6.266
 4033TIP3    H212043   2.884   1.016   6.285
 4034TIP3   OH212044   5.249   7.694   1.406
 4034TIP3    H112045   5.231   7.711   1.313
 4034TIP3    H212046   5.175   7.734   1.452
 4035TIP3   OH212047   0.860   2.341   0.133
 4035TIP3    H112048   0.935   2.364   0.077
 4035TIP3    H212049   0.890   2.361   0.222
 4036TIP3   OH212050   6.522   2.860   6.418
 4036TIP3    H112051   6.535   2.860   6.513
 4036TIP3    H212052   6.609   2.877   6.382
 4037TIP3   OH212053   5.767   6.267   3.360
 4037TIP3    H112054   5.854   6.304   3.346
 4037TIP3    H212055   5.778   6.173   3.349
 4038TIP3   OH212056   4.273   7.288   6.193
 4038TIP3    H112057   4.349   7.301   6.137
 4038TIP3    H212058   4.277   7.360   6.256
 4039TIP3   OH212059   4.903   3.043   5.131
 4039TIP3    H112060   4.844   3.090   5.072
 4039TIP3    H212061   4.987   3.088   5.122
 4040TIP3   OH212062   0.612   5.592   1.261
 4040TIP3    H112063   0.528   5.565   1.223
 4040TIP3    H212064   0.677   5.540   1.215
 4041TIP3   OH212065   0.570   7.201   4.873
 4041TIP3    H112066   0.484   7.199   4.833
 4041TIP3    H212067   0.631   7.202   4.799
 4042TIP3   OH212068   1.285   3.727   2.208
 4042TIP3    H112069   1.278   3.664   2.137
 4042TIP3    H212070   1.338   3.682   2.275
 4043TIP3   OH212071   4.549   5.836   1.128
 4043TIP3    H112072   4.492   5.867   1.058
 4043TIP3    H212073   4.615   5.782   1.083
 4044TIP3   OH212074   4.405   2.827   1.868
 4044TIP3    H112075   4.464   2.834   1.793
 4044TIP3    H212076   4.456   2.862   1.942
 4045TIP3   OH212077   7.741   6.906   1.904
 4045TIP3    H112078   7.767   6.972   1.968
 4045TIP3    H212079   7.799   6.921   1.829
 4046TIP3   OH212080   4.398   2.453   3.005
 4046TIP3    H112081   4.414   2.537   3.047
 4046TIP3    H212082   4.314   2.424   3.039
 4047TIP3   OH212083   0.612   2.223   0.783
 4047TIP3    H112084   0.523   2.189   0.772
 4047TIP3    H212085   0.603   2.317   0.769
 4048TIP3   OH212086   5.132   1.106   3.209
 4048TIP3    H112087   5.106   1.148   3.291
 4048TIP3    H212088   5.070   1.033   3.199
 4049TIP3   OH212089   0.630   3.622   2.719
 4049TIP3    H112090   0.699   3.636   2.655
 4049TIP3    H212091   0.619   3.527   2.722
 4050TIP3   OH212092   7.762   5.699   0.387
 4050TIP3    H112093   7.836   5.750   0.356
 4050TIP3    H212094   7.771   5.698   0.482
 4051TIP3   OH212095   5.128   3.206   5.111
 4051TIP3    H112096   5.182   3.248   5.044
 4051TIP3    H212097   5.087   3.279   5.157
 4052TIP3   OH212098   0.633   5.121   0.217
 4052TIP3    H112099   0.708   5.126   0.277
 4052TIP3    H212100   0.567   5.179   0.256
 4053TIP3   OH212101   0.345   1.608   6.637
 4053TIP3    H112102   0.254   1.623   6.661
 4053TIP3    H212103   0.349   1.626   6.543
 4054TIP3   OH212104   3.433   1.387   5.914
 4054TIP3    H112105   3.388   1.467   5.885
 4054TIP3    H212106   3.422   1.326   5.841
 4055TIP3   OH212107   5.697   6.477   1.298
 4055TIP3    H112108   5.745   6.394   1.290
 4055TIP3    H212109   5.618   6.454   1.346
 4056TIP3   OH212110   5.424   6.454   1.701
 4056TIP3    H112111   5.483   6.381   1.718
 4056TIP3    H212112   5.481   6.531   1.700
 4057TIP3   OH212113   3.376   0.043   5.987
 4057TIP3    H112114   3.461   0.028   6.028
 4057TIP3    H212115   3.315  -0.013   6.035
 4058TIP3   OH212116   7.313   2.018   0.110
 4058TIP3    H112117   7.367   2.096   0.121
 4058TIP3    H212118   7.325   1.993   0.018
 4059TIP3   OH212119   2.026   4.948   4.753
 4059TIP3    H112120   2.030   5.043   4.752
 4059TIP3    H212121   2.118   4.921   4.755
 4060TIP3   OH212122   6.158   1.297   2.091
 4060TIP3    H112123   6.079   1.252   2.061
 4060TIP3    H212124   6.206   1.232   2.142
 4061TIP3   OH212125   2.039   0.107   1.959
 4061TIP3    H112126   2.064   0.036   1.900
 4061TIP3    H212127   2.109   0.171   1.951
 4062TIP3   OH212128   1.385   4.985   4.686
 4062TIP3    H112129   1.469   4.987   4.732
 4062TIP3    H212130   1.328   5.041   4.739
 4063TIP3   OH212131   5.551   4.640   5.484
 4063TIP3    H112132   5.508   4.705   5.429
 4063TIP3    H212133   5.621   4.605   5.430
 4064TIP3   OH212134   6.449   0.947   1.158
 4064TIP3    H112135   6.500   0.947   1.077
 4064TIP3    H212136   6.514   0.932   1.227
 4065TIP3   OH212137   6.711   2.630   4.617
 4065TIP3    H112138   6.777   2.584   4.566
 4065TIP3    H212139   6.759   2.703   4.657
 4066TIP3   OH212140   6.567   3.614   5.640
 4066TIP3    H112141   6.557   3.647   5.729
 4066TIP3    H212142   6.595   3.523   5.651
 4067TIP3   OH212143   2.535   6.088   5.928
 4067TIP3    H112144   2.527   6.004   5.883
 4067TIP3    H212145   2.448   6.104   5.964
 4068TIP3   OH212146   1.250   7.186   6.309
 4068TIP3    H112147   1.204   7.103   6.319
 4068TIP3    H212148   1.201   7.233   6.242
 4069TIP3   OH212149   5.106   2.268   4.349
 4069TIP3    H112150   5.152   2.197   4.304
 4069TIP3    H212151   5.014   2.239   4.351
 4070TIP3   OH212152   0.985   4.767   3.272
 4070TIP3    H112153   1.077   4.787   3.292
 4070TIP3    H212154   0.940   4.851   3.280
 4071TIP3   OH212155   7.873   1.862   2.781
 4071TIP3    H112156   7.814   1.907   2.842
 4071TIP3    H212157   7.830   1.779   2.762
 4072TIP3   OH212158   1.033   1.457   4.777
 4072TIP3    H112159   0.955   1.448   4.723
 4072TIP3    H212160   1.006   1.430   4.864
 4073TIP3   OH212161   6.356   4.832   3.952
 4073TIP3    H112162   6.382   4.742   3.933
 4073TIP3    H212163   6.302   4.858   3.877
 4074TIP3   OH212164   3.128   7.151   5.201
 4074TIP3    H112165   3.036   7.129   5.193
 4074TIP3    H212166   3.131   7.246   5.203
 4075TIP3   OH212167   6.879   6.522   5.163
 4075TIP3    H112168   6.899   6.483   5.248
 4075TIP3    H212169   6.843   6.450   5.111
 4076TIP3   OH212170   1.988   7.307   5.377
 4076TIP3    H112171   2.028   7.221   5.378
 4076TIP3    H212172   1.898   7.293   5.408
 4077TIP3   OH212173   1.519   4.851   0.202
 4077TIP3    H112174   1.437   4.811   0.233
 4077TIP3    H212175   1.588   4.801   0.246
 4078TIP3   OH212176   8.237   7.703   1.036
 4078TIP3    H112177   8.259   7.758   1.111
 4078TIP3    H212178   8.186   7.631   1.072
 4079TIP3   OH212179   4.032   6.453   5.554
 4079TIP3    H112180   4.109   6.506   5.533
 4079TIP3    H212181   4.055   6.365   5.525
 4080TIP3   OH212182   4.198   2.667   4.147
 4080TIP3    H112183   4.106   2.694   4.157
 4080TIP3    H212184   4.239   2.740   4.100
 4081TIP3   OH212185   8.192   1.850   0.878
 4081TIP3    H112186   8.217   1.932   0.836
 4081TIP3    H212187   8.102   1.865   0.907
 4082TIP3   OH212188   1.585   2.822   5.628
 4082TIP3    H112189   1.637   2.797   5.705
 4082TIP3    H212190   1.495   2.827   5.660
 4083TIP3   OH212191   3.999   1.687   5.229
 4083TIP3    H112192   3.974   1.604   5.189
 4083TIP3    H212193   3.988   1.672   5.323
 4084TIP3   OH212194   4.031   5.569   4.992
 4084TIP3    H112195   4.034   5.635   5.061
 4084TIP3    H212196   3.983   5.496   5.031
 4085TIP3   OH212197   5.422   5.826   1.972
 4085TIP3    H112198   5.383   5.873   1.899
 4085TIP3    H212199   5.349   5.808   2.031
 4086TIP3   OH212200   3.233   3.285   3.194
 4086TIP3    H112201   3.210   3.372   3.226
 4086TIP3    H212202   3.160   3.259   3.138
 4087TIP3   OH212203   1.581   5.406   5.688
 4087TIP3    H112204   1.592   5.312   5.681
 4087TIP3    H212205   1.660   5.443   5.648
 4088TIP3   OH212206   4.950   7.807   3.466
 4088TIP3    H112207   4.944   7.850   3.380
 4088TIP3    H212208   5.026   7.749   3.458
 4089TIP3   OH212209   1.915   0.755   1.646
 4089TIP3    H112210   1.870   0.675   1.674
 4089TIP3    H212211   1.904   0.816   1.719
 4090TIP3   OH212212   0.642   7.755   1.160
 4090TIP3    H112213   0.704   7.681   1.154
 4090TIP3    H212214   0.596   7.740   1.243
 4091TIP3   OH212215   8.073   6.624   6.276
 4091TIP3    H112216   8.009   6.555   6.255
 4091TIP3    H212217   8.157   6.586   6.252
 4092TIP3   OH212218   3.308   6.799   4.150
 4092TIP3    H112219   3.328   6.874   4.095
 4092TIP3    H212220   3.389   6.748   4.153
 4093TIP3   OH212221   8.252   1.537   0.452
 4093TIP3    H112222   8.176   1.585   0.420
 4093TIP3    H212223   8.221   1.447   0.463
 4094TIP3   OH212224   2.852   2.543   1.635
 4094TIP3    H112225   2.873   2.450   1.642
 4094TIP3    H212226   2.937   2.586   1.624
 4095TIP3   OH212227   7.703   7.052   3.094
 4095TIP3    H112228   7.761   6.993   3.144
 4095TIP3    H212229   7.717   7.027   3.003
 4096TIP3   OH212230   4.670   0.575   2.181
 4096TIP3    H112231   4.589   0.625   2.197
 4096TIP3    H212232   4.641   0.484   2.175
 4097TIP3   OH212233   4.592   0.903   6.444
 4097TIP3    H112234   4.571   0.831   6.385
 4097TIP3    H212235   4.548   0.881   6.526
 4098TIP3   OH212236   5.486   6.236   0.276
 4098TIP3    H112237   5.456   6.310   0.328
 4098TIP3    H212238   5.407   6.206   0.230
 4099TIP3   OH212239   6.957   4.454   6.249
 4099TIP3    H112240   6.971   4.437   6.156
 4099TIP3    H212241   6.981   4.545   6.261
 4100TIP3   OH212242   6.824   5.818   1.462
 4100TIP3    H112243   6.913   5.787   1.448
 4100TIP3    H212244   6.773   5.739   1.482
 4101TIP3   OH212245   0.751   0.266   2.963
 4101TIP3    H112246   0.803   0.252   2.884
 4101TIP3    H212247   0.800   0.331   3.013
 4102TIP3   OH212248   6.873   1.881   4.559
 4102TIP3    H112249   6.810   1.884   4.487
 4102TIP3    H212250   6.856   1.962   4.609
 4103TIP3   OH212251   6.680   5.539   0.532
 4103TIP3    H112252   6.613   5.473   0.513
 4103TIP3    H212253   6.692   5.586   0.450
 4104TIP3   OH212254   0.576   6.229   4.664
 4104TIP3    H112255   0.546   6.158   4.607
 4104TIP3    H212256   0.623   6.289   4.607
 4105TIP3   OH212257   7.417   6.023   5.768
 4105TIP3    H112258   7.323   6.028   5.749
 4105TIP3    H212259   7.446   6.114   5.770
 4106TIP3   OH212260   5.838   5.197   5.364
 4106TIP3    H112261   5.878   5.202   5.277
 4106TIP3    H212262   5.860   5.280   5.406
 4107TIP3   OH212263   6.958   5.619   2.548
 4107TIP3    H112264   7.006   5.648   2.626
 4107TIP3    H212265   6.882   5.678   2.544
 4108TIP3   OH212266   7.087   5.796   6.768
 4108TIP3    H112267   6.996   5.825   6.759
 4108TIP3    H212268   7.090   5.710   6.727
 4109TIP3   OH212269   7.516   6.349   1.440
 4109TIP3    H112270   7.576   6.393   1.501
 4109TIP3    H212271   7.475   6.280   1.492
 4110TIP3   OH212272   0.412   7.217   1.811
 4110TIP3    H112273   0.361   7.288   1.848
 4110TIP3    H212274   0.488   7.208   1.869
 4111TIP3   OH212275   0.179   3.483   0.524
 4111TIP3    H112276   0.195   3.433   0.444
 4111TIP3    H212277   0.100   3.443   0.561
 4112TIP3   OH212278   1.543   0.955   5.952
 4112TIP3    H112279   1.608   0.954   6.023
 4112TIP3    H212280   1.480   0.888   5.977
 4113TIP3   OH212281   6.911   6.882   0.728
 4113TIP3    H112282   6.862   6.963   0.712
 4113TIP3    H212283   6.918   6.841   0.642
 4114TIP3   OH212284   2.502   0.712   0.631
 4114TIP3    H112285   2.494   0.787   0.690
 4114TIP3    H212286   2.567   0.739   0.566
 4115TIP3   OH212287   6.321   6.961   0.948
 4115TIP3    H112288   6.269   6.900   0.895
 4115TIP3    H212289   6.275   7.045   0.939
 4116TIP3   OH212290   6.822   4.323   5.731
 4116TIP3    H112291   6.799   4.350   5.820
 4116TIP3    H212292   6.752   4.357   5.676
 4117TIP3   OH212293   5.586   7.338   2.809
 4117TIP3    H112294   5.652   7.407   2.816
 4117TIP3    H212295   5.544   7.354   2.724
 4118TIP3   OH212296   6.825   3.160   6.143
 4118TIP3    H112297   6.736   3.192   6.155
 4118TIP3    H212298   6.870   3.232   6.099
 4119TIP3   OH212299   5.131   2.215   0.037
 4119TIP3    H112300   5.053   2.265   0.011
 4119TIP3    H212301   5.204   2.263  -0.003
 4120TIP3   OH212302   3.661   1.405   1.761
 4120TIP3    H112303   3.680   1.398   1.854
 4120TIP3    H212304   3.571   1.372   1.752
 4121TIP3   OH212305   4.733   3.845   3.377
 4121TIP3    H112306   4.671   3.883   3.315
 4121TIP3    H212307   4.809   3.903   3.372
 4122TIP3   OH212308   5.955   4.328   1.459
 4122TIP3    H112309   5.967   4.317   1.553
 4122TIP3    H212310   5.930   4.420   1.449
 4123TIP3   OH212311   1.922   7.472   6.395
 4123TIP3    H112312   1.963   7.509   6.316
 4123TIP3    H212313   1.945   7.532   6.465
 4124TIP3   OH212314   2.820   6.543   1.101
 4124TIP3    H112315   2.910   6.562   1.074
 4124TIP3    H212316   2.793   6.620   1.151
 4125TIP3   OH212317   4.118   5.924   3.996
 4125TIP3    H112318   4.191   5.882   4.043
 4125TIP3    H212319   4.071   5.851   3.956
 4126TIP3   OH212320   7.967   2.177   5.713
 4126TIP3    H112321   8.009   2.246   5.765
 4126TIP3    H212322   7.891   2.220   5.674
 4127TIP3   OH212323   3.831   1.045   1.573
 4127TIP3    H112324   3.811   1.050   1.666
 4127TIP3    H212325   3.898   0.976   1.567
 4128TIP3   OH212326   6.863   0.415   1.333
 4128TIP3    H112327   6.922   0.341   1.341
 4128TIP3    H212328   6.879   0.469   1.410
 4129TIP3   OH212329   5.595   0.908   2.893
 4129TIP3    H112330   5.566   0.926   2.804
 4129TIP3    H212331   5.674   0.961   2.904
 4130TIP3   OH212332   7.404   6.348   5.524
 4130TIP3    H112333   7.456   6.295   5.463
 4130TIP3    H212334   7.448   6.338   5.608
 4131TIP3   OH212335   6.746   1.766   1.723
 4131TIP3    H112336   6.664   1.799   1.687
 4131TIP3    H212337   6.753   1.808   1.809
 4132TIP3   OH212338   4.243   7.173   0.716
 4132TIP3    H112339   4.177   7.159   0.784
 4132TIP3    H212340   4.214   7.120   0.642
 4133TIP3   OH212341   1.329   1.017   1.692
 4133TIP3    H112342   1.331   0.971   1.608
 4133TIP3    H212343   1.367   0.955   1.754
 4134TIP3   OH212344   5.116   7.521   1.029
 4134TIP3    H112345   5.168   7.601   1.039
 4134TIP3    H212346   5.026   7.548   1.047
 4135TIP3   OH212347   8.072   4.363   5.895
 4135TIP3    H112348   8.046   4.444   5.938
 4135TIP3    H212349   8.020   4.360   5.815
 4136TIP3   OH212350   6.228   5.625   5.160
 4136TIP3    H112351   6.251   5.602   5.250
 4136TIP3    H212352   6.286   5.570   5.107
 4137TIP3   OH212353   3.905   4.538   6.395
 4137TIP3    H112354   3.859   4.460   6.423
 4137TIP3    H212355   3.886   4.604   6.462
 4138TIP3   OH212356   0.504   7.068   3.683
 4138TIP3    H112357   0.531   7.007   3.752
 4138TIP3    H212358   0.539   7.030   3.602
 4139TIP3   OH212359   8.044   3.964   2.318
 4139TIP3    H112360   7.962   3.965   2.367
 4139TIP3    H212361   8.024   3.915   2.238
 4140TIP3   OH212362   6.416   3.188   2.981
 4140TIP3    H112363   6.345   3.143   3.026
 4140TIP3    H212364   6.375   3.228   2.904
 4141TIP3   OH212365   3.816   5.739   1.139
 4141TIP3    H112366   3.849   5.649   1.144
 4141TIP3    H212367   3.889   5.789   1.103
 4142TIP3   OH212368   6.909   7.128   1.358
 4142TIP3    H112369   6.839   7.167   1.305
 4142TIP3    H212370   6.882   7.144   1.449
 4143TIP3   OH212371   2.912   0.650   0.406
 4143TIP3    H112372   2.971   0.724   0.422
 4143TIP3    H212373   2.931   0.624   0.316
 4144TIP3   OH212374   5.420   7.391   0.151
 4144TIP3    H112375   5.443   7.407   0.243
 4144TIP3    H212376   5.402   7.479   0.116
 4145TIP3   OH212377   4.062   0.833   5.001
 4145TIP3    H112378   4.099   0.796   5.081
 4145TIP3    H212379   3.996   0.769   4.974
 4146TIP3   OH212380   4.759   2.943   6.633
 4146TIP3    H112381   4.838   2.973   6.679
 4146TIP3    H212382   4.687   2.979   6.684
 4147TIP3   OH212383   0.893   6.266   0.145
 4147TIP3    H112384   0.979   6.299   0.171
 4147TIP3    H212385   0.844   6.345   0.122
 4148TIP3   OH212386   7.722   5.934   6.410
 4148TIP3    H112387   7.752   5.906   6.323
 4148TIP3    H212388   7.674   5.858   6.444
 4149TIP3   OH212389   0.824   0.119   1.598
 4149TIP3    H112390   0.807   0.212   1.586
 4149TIP3    H212391   0.823   0.082   1.510
 4150TIP3   OH212392   4.796   0.407   0.873
 4150TIP3    H112393   4.703   0.389   0.863
 4150TIP3    H212394   4.827   0.428   0.785
 4151TIP3   OH212395   3.104   5.702   0.310
 4151TIP3    H112396   3.134   5.713   0.400
 4151TIP3    H212397   3.163   5.636   0.273
 4152TIP3   OH212398   0.435   5.713   5.505
 4152TIP3    H112399   0.356   5.659   5.496
 4152TIP3    H212400   0.413   5.796   5.464
 4153TIP3   OH212401   5.067   7.382   0.229
 4153TIP3    H112402   5.065   7.292   0.198
 4153TIP3    H212403   5.097   7.433   0.154
 4154TIP3   OH212404   0.840   4.151   3.600
 4154TIP3    H112405   0.925   4.192   3.591
 4154TIP3    H212406   0.818   4.120   3.511
 4155TIP3   OH212407   4.800   1.711   4.954
 4155TIP3    H112408   4.755   1.794   4.971
 4155TIP3    H212409   4.840   1.723   4.868
 4156TIP3   OH212410   7.028   1.499   0.011
 4156TIP3    H112411   6.937   1.469   0.006
 4156TIP3    H212412   7.027   1.585  -0.032
 4157TIP3   OH212413   7.104   6.725   3.848
 4157TIP3    H112414   7.034   6.663   3.867
 4157TIP3    H212415   7.175   6.699   3.906
 4158TIP3   OH212416   3.848   1.559   3.613
 4158TIP3    H112417   3.905   1.491   3.648
 4158TIP3    H212418   3.830   1.532   3.523
 4159TIP3   OH212419   0.662   1.126   6.731
 4159TIP3    H112420   0.695   1.208   6.693
 4159TIP3    H212421   0.633   1.151   6.819
 4160TIP3   OH212422   7.632   0.909   1.222
 4160TIP3    H112423   7.540   0.895   1.201
 4160TIP3    H212424   7.633   0.928   1.316
 4161TIP3   OH212425   4.922   4.826   4.326
 4161TIP3    H112426   4.830   4.849   4.331
 4161TIP3    H212427   4.947   4.806   4.416
 4162TIP3   OH212428   3.974   0.336   4.449
 4162TIP3    H112429   4.055   0.387   4.452
 4162TIP3    H212430   3.993   0.259   4.503
 4163TIP3   OH212431   0.942   1.694   2.428
 4163TIP3    H112432   0.884   1.674   2.355
 4163TIP3    H212433   0.889   1.748   2.487
 4164TIP3   OH212434   1.773   3.662   5.626
 4164TIP3    H112435   1.785   3.693   5.716
 4164TIP3    H212436   1.862   3.651   5.593
 4165TIP3   OH212437   8.019   4.180   4.281
 4165TIP3    H112438   7.958   4.172   4.354
 4165TIP3    H212439   8.000   4.105   4.225
 4166TIP3   OH212440   8.264   2.967   6.051
 4166TIP3    H112441   8.214   2.994   6.128
 4166TIP3    H212442   8.306   2.884   6.078
 4167TIP3   OH212443   1.985   4.125   3.178
 4167TIP3    H112444   1.955   4.184   3.109
 4167TIP3    H212445   2.054   4.073   3.136
 4168TIP3   OH212446   1.176   1.797   5.890
 4168TIP3    H112447   1.261   1.761   5.866
 4168TIP3    H212448   1.192   1.846   5.970
 4169TIP3   OH212449   2.992   7.065   6.004
 4169TIP3    H112450   2.929   7.082   6.074
 4169TIP3    H212451   3.074   7.046   6.050
 4170TIP3   OH212452   5.760   2.551   0.712
 4170TIP3    H112453   5.800   2.625   0.757
 4170TIP3    H212454   5.668   2.555   0.736
 4171TIP3   OH212455   1.037   6.713   0.231
 4171TIP3    H112456   0.967   6.779   0.238
 4171TIP3    H212457   1.040   6.673   0.318
 4172TIP3   OH212458   1.210   4.987   2.609
 4172TIP3    H112459   1.276   5.011   2.675
 4172TIP3    H212460   1.140   4.945   2.659
 4173TIP3   OH212461   5.677   7.388   4.682
 4173TIP3    H112462   5.601   7.441   4.658
 4173TIP3    H212463   5.643   7.299   4.687
 4174TIP3   OH212464   3.949   3.933   4.183
 4174TIP3    H112465   4.039   3.947   4.156
 4174TIP3    H212466   3.913   3.875   4.116
 4175TIP3   OH212467   1.604   0.295   2.213
 4175TIP3    H112468   1.526   0.243   2.234
 4175TIP3    H212469   1.613   0.287   2.118
 4176TIP3   OH212470   1.492   6.833   1.272
 4176TIP3    H112471   1.437   6.755   1.271
 4176TIP3    H212472   1.541   6.829   1.190
 4177TIP3   OH212473   1.329   3.608   5.569
 4177TIP3    H112474   1.392   3.544   5.604
 4177TIP3    H212475   1.264   3.618   5.639
 4178TIP3   OH212476   2.098   3.832   2.584
 4178TIP3    H112477   2.117   3.852   2.676
 4178TIP3    H212478   2.050   3.909   2.553
 4179TIP3   OH212479   3.062   4.241   1.546
 4179TIP3    H112480   3.093   4.194   1.469
 4179TIP3    H212481   3.143   4.263   1.593
 4180TIP3   OH212482   7.370   7.089   0.364
 4180TIP3    H112483   7.462   7.078   0.339
 4180TIP3    H212484   7.358   7.026   0.435
 4181TIP3   OH212485   3.928   0.155   3.496
 4181TIP3    H112486   3.915   0.172   3.403
 4181TIP3    H212487   3.840   0.135   3.530
 4182TIP3   OH212488   6.029   2.419   2.408
 4182TIP3    H112489   5.987   2.337   2.383
 4182TIP3    H212490   6.116   2.415   2.369
 4183TIP3   OH212491   6.232   4.510   5.315
 4183TIP3    H112492   6.208   4.494   5.223
 4183TIP3    H212493   6.178   4.585   5.341
 4184TIP3   OH212494   1.890   5.207   0.966
 4184TIP3    H112495   1.954   5.177   0.901
 4184TIP3    H212496   1.820   5.247   0.914
 4185TIP3   OH212497   6.032   6.519   0.350
 4185TIP3    H112498   6.016   6.563   0.266
 4185TIP3    H212499   6.084   6.442   0.327
 4186TIP3   OH212500   0.588   5.644   5.296
 4186TIP3    H112501   0.543   5.681   5.372
 4186TIP3    H212502   0.679   5.670   5.307
 4187TIP3   OH212503   5.339   3.950   1.896
 4187TIP3    H112504   5.412   3.904   1.938
 4187TIP3    H212505   5.381   4.018   1.843
 4188TIP3   OH212506   6.277   5.318   6.307
 4188TIP3    H112507   6.294   5.308   6.213
 4188TIP3    H212508   6.277   5.413   6.321
 4189TIP3   OH212509   3.240   4.878   4.842
 4189TIP3    H112510   3.231   4.874   4.746
 4189TIP3    H212511   3.285   4.797   4.865
 4190TIP3   OH212512   4.156   6.611   3.271
 4190TIP3    H112513   4.099   6.609   3.348
 4190TIP3    H212514   4.175   6.518   3.254
 4191TIP3   OH212515   5.924   3.702   2.299
 4191TIP3    H112516   5.949   3.692   2.391
 4191TIP3    H212517   5.835   3.666   2.295
 4192TIP3   OH212518   3.629   1.739   1.912
 4192TIP3    H112519   3.635   1.724   2.006
 4192TIP3    H212520   3.536   1.733   1.892
 4193TIP3   OH212521   4.988   7.679   6.435
 4193TIP3    H112522   4.968   7.585   6.433
 4193TIP3    H212523   5.080   7.684   6.411
 4194TIP3   OH212524   4.430   4.230   3.638
 4194TIP3    H112525   4.446   4.325   3.640
 4194TIP3    H212526   4.488   4.194   3.704
 4195TIP3   OH212527   3.221   1.487   3.235
 4195TIP3    H112528   3.300   1.540   3.222
 4195TIP3    H212529   3.166   1.539   3.292
 4196TIP3   OH212530   2.968   6.617   2.543
 4196TIP3    H112531   2.926   6.635   2.459
 4196TIP3    H212532   2.985   6.703   2.580
 4197TIP3   OH212533   5.191   5.963   1.366
 4197TIP3    H112534   5.244   5.897   1.322
 4197TIP3    H212535   5.122   5.985   1.303
 4198TIP3   OH212536   1.885   0.873   4.153
 4198TIP3    H112537   1.844   0.830   4.229
 4198TIP3    H212538   1.921   0.800   4.101
 4199TIP3   OH212539   1.404   3.338   5.087
 4199TIP3    H112540   1.446   3.422   5.109
 4199TIP3    H212541   1.311   3.352   5.104
 4200TIP3   OH212542   2.771   2.696   5.438
 4200TIP3    H112543   2.737   2.715   5.526
 4200TIP3    H212544   2.693   2.685   5.384
 4201TIP3   OH212545   6.103   1.967   2.576
 4201TIP3    H112546   6.058   1.952   2.493
 4201TIP3    H212547   6.037   2.006   2.632
 4202TIP3   OH212548   2.002   6.850   6.128
 4202TIP3    H112549   2.086   6.897   6.126
 4202TIP3    H212550   1.966   6.863   6.040
 4203TIP3   OH212551   2.216   4.741   2.585
 4203TIP3    H112552   2.291   4.701   2.629
 4203TIP3    H212553   2.229   4.835   2.596
 4204TIP3   OH212554   6.173   0.693   4.908
 4204TIP3    H112555   6.253   0.672   4.861
 4204TIP3    H212556   6.199   0.699   5.000
 4205TIP3   OH212557   4.501   7.264   0.065
 4205TIP3    H112558   4.583   7.297   0.029
 4205TIP3    H212559   4.525   7.230   0.151
 4206TIP3   OH212560   6.099   4.192   4.514
 4206TIP3    H112561   6.138   4.163   4.597
 4206TIP3    H212562   6.170   4.182   4.450
 4207TIP3   OH212563   8.166   5.882   1.121
 4207TIP3    H112564   8.186   5.974   1.100
 4207TIP3    H212565   8.088   5.862   1.071
 4208TIP3   OH212566   7.910   6.750   2.783
 4208TIP3    H112567   7.939   6.779   2.696
 4208TIP3    H212568   7.868   6.666   2.767
 4209TIP3   OH212569   4.104   5.365   1.998
 4209TIP3    H112570   4.032   5.421   1.969
 4209TIP3    H212571   4.075   5.276   1.978
 4210TIP3   OH212572   0.341   6.380   2.552
 4210TIP3    H112573   0.316   6.288   2.561
 4210TIP3    H212574   0.311   6.421   2.634
 4211TIP3   OH212575   7.264   2.737   5.023
 4211TIP3    H112576   7.184   2.718   5.071
 4211TIP3    H212577   7.251   2.826   4.989
 4212TIP3   OH212578   1.618   7.757   2.797
 4212TIP3    H112579   1.627   7.725   2.887
 4212TIP3    H212580   1.680   7.829   2.790
 4213TIP3   OH212581   4.988   3.703   1.287
 4213TIP3    H112582   4.931   3.726   1.214
 4213TIP3    H212583   5.008   3.610   1.275
 4214TIP3   OH212584   3.890   3.665   4.528
 4214TIP3    H112585   3.938   3.710   4.459
 4214TIP3    H212586   3.944   3.590   4.551
 4215TIP3   OH212587   3.958   6.230   2.817
 4215TIP3    H112588   3.970   6.324   2.813
 4215TIP3    H212589   4.026   6.194   2.760
 4216TIP3   OH212590   2.270   4.176   1.550
 4216TIP3    H112591   2.219   4.110   1.597
 4216TIP3    H212592   2.324   4.217   1.617
 4217TIP3   OH212593   1.646   5.105   0.089
 4217TIP3    H112594   1.598   5.171   0.138
 4217TIP3    H212595   1.614   5.021   0.123
 4218TIP3   OH212596   5.076   6.062   2.628
 4218TIP3    H112597   5.095   6.067   2.722
 4218TIP3    H212598   5.086   5.969   2.607
 4219TIP3   OH212599   2.791   4.246   6.353
 4219TIP3    H112600   2.785   4.329   6.400
 4219TIP3    H212601   2.710   4.242   6.301
 4220TIP3   OH212602   6.821   2.103   2.082
 4220TIP3    H112603   6.841   2.025   2.133
 4220TIP3    H212604   6.728   2.119   2.099
 4221TIP3   OH212605   5.988   6.094   2.259
 4221TIP3    H112606   6.038   6.050   2.191
 4221TIP3    H212607   5.930   6.154   2.211
 4222TIP3   OH212608   3.730   4.781   0.687
 4222TIP3    H112609   3.667   4.851   0.706
 4222TIP3    H212610   3.741   4.784   0.592
 4223TIP3   OH212611   7.671   0.359   3.754
 4223TIP3    H112612   7.754   0.363   3.802
 4223TIP3    H212613   7.676   0.276   3.706
 4224TIP3   OH212614   6.533   1.607   0.044
 4224TIP3    H112615   6.601   1.673   0.030
 4224TIP3    H212616   6.484   1.638   0.120
 4225TIP3   OH212617   2.287   4.109   2.431
 4225TIP3    H112618   2.224   4.041   2.409
 4225TIP3    H212619   2.232   4.184   2.457
 4226TIP3   OH212620   0.186   6.801   6.020
 4226TIP3    H112621   0.103   6.774   5.980
 4226TIP3    H212622   0.187   6.896   6.012
 4227TIP3   OH212623   5.718   3.000   3.822
 4227TIP3    H112624   5.813   3.016   3.816
 4227TIP3    H212625   5.689   2.989   3.732
 4228TIP3   OH212626   4.741   7.630   1.176
 4228TIP3    H112627   4.780   7.714   1.201
 4228TIP3    H212628   4.706   7.645   1.089
 4229TIP3   OH212629   2.619   3.841   2.100
 4229TIP3    H112630   2.636   3.935   2.102
 4229TIP3    H212631   2.524   3.834   2.101
 4230TIP3   OH212632   5.878   0.157   5.721
 4230TIP3    H112633   5.937   0.136   5.794
 4230TIP3    H212634   5.929   0.135   5.643
 4231TIP3   OH212635   6.486   3.483   2.431
 4231TIP3    H112636   6.522   3.413   2.486
 4231TIP3    H212637   6.393   3.485   2.454
 4232TIP3   OH212638   2.241   0.839   2.633
 4232TIP3    H112639   2.263   0.858   2.724
 4232TIP3    H212640   2.150   0.808   2.637
 4233TIP3   OH212641   5.688   1.641   2.552
 4233TIP3    H112642   5.769   1.625   2.502
 4233TIP3    H212643   5.671   1.734   2.539
 4234TIP3   OH212644   3.265   4.754   0.200
 4234TIP3    H112645   3.220   4.838   0.193
 4234TIP3    H212646   3.355   4.772   0.172
 4235TIP3   OH212647   2.220   3.555   5.644
 4235TIP3    H112648   2.140   3.537   5.594
 4235TIP3    H212649   2.286   3.575   5.578
 4236TIP3   OH212650   4.722   1.823   4.575
 4236TIP3    H112651   4.643   1.842   4.627
 4236TIP3    H212652   4.714   1.878   4.498
 4237TIP3   OH212653   6.285   1.764   5.880
 4237TIP3    H112654   6.219   1.779   5.947
 4237TIP3    H212655   6.264   1.827   5.811
 4238TIP3   OH212656   4.407   5.011   5.792
 4238TIP3    H112657   4.451   5.082   5.838
 4238TIP3    H212658   4.317   5.012   5.826
 4239TIP3   OH212659   3.602   1.919   6.406
 4239TIP3    H112660   3.653   1.998   6.385
 4239TIP3    H212661   3.560   1.939   6.490
 4240TIP3   OH212662   4.927   5.184   0.170
 4240TIP3    H112663   4.999   5.223   0.119
 4240TIP3    H212664   4.848   5.205   0.120
 4241TIP3   OH212665   7.140   5.996   3.130
 4241TIP3    H112666   7.128   6.090   3.135
 4241TIP3    H212667   7.166   5.980   3.039
 4242TIP3   OH212668   6.944   4.323   0.870
 4242TIP3    H112669   6.955   4.410   0.831
 4242TIP3    H212670   6.985   4.330   0.956
 4243TIP3   OH212671   1.193   5.603   1.295
 4243TIP3    H112672   1.164   5.668   1.231
 4243TIP3    H212673   1.113   5.574   1.338
 4244TIP3   OH212674   3.377   1.339   6.631
 4244TIP3    H112675   3.431   1.378   6.563
 4244TIP3    H212676   3.438   1.291   6.687
 4245TIP3   OH212677   2.065   6.728   1.710
 4245TIP3    H112678   2.075   6.731   1.805
 4245TIP3    H212679   2.081   6.637   1.686
 4246TIP3   OH212680   1.419   0.078   2.551
 4246TIP3    H112681   1.476   0.152   2.528
 4246TIP3    H212682   1.334   0.101   2.513
 4247TIP3   OH212683   4.209   7.515   1.094
 4247TIP3    H112684   4.187   7.512   1.001
 4247TIP3    H212685   4.279   7.450   1.104
 4248TIP3   OH212686   6.331   2.898   5.234
 4248TIP3    H112687   6.297   2.981   5.200
 4248TIP3    H212688   6.396   2.871   5.169
 4249TIP3   OH212689   1.554   3.471   5.651
 4249TIP3    H112690   1.616   3.543   5.651
 4249TIP3    H212691   1.601   3.399   5.610
 4250TIP3   OH212692   0.538   3.466   4.083
 4250TIP3    H112693   0.469   3.415   4.041
 4250TIP3    H212694   0.492   3.524   4.143
 4251TIP3   OH212695   5.348   7.251   2.238
 4251TIP3    H112696   5.308   7.254   2.325
 4251TIP3    H212697   5.287   7.198   2.186
 4252TIP3   OH212698   0.396   7.570   5.202
 4252TIP3    H112699   0.367   7.625   5.275
 4252TIP3    H212700   0.475   7.613   5.169
 4253TIP3   OH212701   5.074   3.936   1.405
 4253TIP3    H112702   5.051   3.847   1.380
 4253TIP3    H212703   5.116   3.972   1.327
 4254TIP3   OH212704   2.909   6.141   3.285
 4254TIP3    H112705   2.877   6.228   3.310
 4254TIP3    H212706   3.004   6.149   3.290
 4255TIP3   OH212707   2.636   7.559   2.088
 4255TIP3    H112708   2.710   7.617   2.100
 4255TIP3    H212709   2.646   7.526   1.999
 4256TIP3   OH212710   0.627   3.003   1.975
 4256TIP3    H112711   0.668   2.934   1.922
 4256TIP3    H212712   0.571   2.956   2.037
 4257TIP3   OH212713   2.059   2.560   3.452
 4257TIP3    H112714   2.126   2.513   3.500
 4257TIP3    H212715   2.093   2.650   3.445
 4258TIP3   OH212716   0.456   7.251   3.296
 4258TIP3    H112717   0.490   7.271   3.209
 4258TIP3    H212718   0.361   7.248   3.285
 4259TIP3   OH212719   2.829   5.138   4.737
 4259TIP3    H112720   2.823   5.090   4.819
 4259TIP3    H212721   2.843   5.071   4.671
 4260TIP3   OH212722   6.642   0.455   2.866
 4260TIP3    H112723   6.636   0.466   2.961
 4260TIP3    H212724   6.733   0.479   2.846
 4261TIP3   OH212725   0.245   3.705   1.664
 4261TIP3    H112726   0.244   3.786   1.614
 4261TIP3    H212727   0.154   3.687   1.684
 4262TIP3   OH212728   0.964   2.721   3.097
 4262TIP3    H112729   0.957   2.814   3.074
 4262TIP3    H212730   1.057   2.707   3.113
 4263TIP3   OH212731   2.552   0.192   0.075
 4263TIP3    H112732   2.497   0.226   0.145
 4263TIP3    H212733   2.571   0.102   0.101
 4264TIP3   OH212734   0.453   5.890   3.904
 4264TIP3    H112735   0.433   5.855   3.991
 4264TIP3    H212736   0.508   5.967   3.921
 4265TIP3   OH212737   7.093   3.932   2.328
 4265TIP3    H112738   7.054   3.872   2.264
 4265TIP3    H212739   7.024   3.947   2.392
 4266TIP3   OH212740   6.885   6.375   5.921
 4266TIP3    H112741   6.838   6.439   5.974
 4266TIP3    H212742   6.935   6.323   5.984
 4267TIP3   OH212743   5.162   7.310   4.991
 4267TIP3    H112744   5.089   7.372   4.995
 4267TIP3    H212745   5.131   7.233   5.040
 4268TIP3   OH212746   3.137   0.815   1.187
 4268TIP3    H112747   3.044   0.834   1.181
 4268TIP3    H212748   3.174   0.854   1.107
 4269TIP3   OH212749   1.044   0.135   3.165
 4269TIP3    H112750   1.019   0.222   3.133
 4269TIP3    H212751   1.056   0.083   3.086
 4270TIP3   OH212752   5.125   4.148   0.025
 4270TIP3    H112753   5.146   4.179  -0.063
 4270TIP3    H212754   5.210   4.124   0.063
 4271TIP3   OH212755   7.946   6.205   5.105
 4271TIP3    H112756   7.851   6.215   5.115
 4271TIP3    H212757   7.971   6.270   5.040
 4272TIP3   OH212758   1.873   1.901   5.391
 4272TIP3    H112759   1.805   1.962   5.361
 4272TIP3    H212760   1.832   1.814   5.382
 4273TIP3   OH212761   7.996   5.530   2.592
 4273TIP3    H112762   7.993   5.484   2.676
 4273TIP3    H212763   8.089   5.542   2.574
 4274TIP3   OH212764   0.700   7.492   0.232
 4274TIP3    H112765   0.679   7.421   0.292
 4274TIP3    H212766   0.683   7.572   0.282
 4275TIP3   OH212767   1.094   5.184   2.463
 4275TIP3    H112768   1.033   5.249   2.499
 4275TIP3    H212769   1.116   5.127   2.536
 4276TIP3   OH212770   3.307   5.225   0.476
 4276TIP3    H112771   3.319   5.251   0.567
 4276TIP3    H212772   3.373   5.157   0.462
 4277TIP3   OH212773   4.060   3.207   6.244
 4277TIP3    H112774   4.118   3.233   6.172
 4277TIP3    H212775   4.030   3.290   6.281
 4278TIP3   OH212776   0.209   7.488   2.211
 4278TIP3    H112777   0.144   7.556   2.194
 4278TIP3    H212778   0.290   7.522   2.173
 4279TIP3   OH212779   3.012   6.721   6.082
 4279TIP3    H112780   2.922   6.710   6.114
 4279TIP3    H212781   3.013   6.810   6.046
 4280TIP3   OH212782   2.083   5.069   4.453
 4280TIP3    H112783   2.160   5.013   4.446
 4280TIP3    H212784   2.105   5.132   4.521
 4281TIP3   OH212785   6.276   3.413   3.129
 4281TIP3    H112786   6.316   3.500   3.126
 4281TIP3    H212787   6.345   3.354   3.098
 4282TIP3   OH212788   4.818   7.069   0.184
 4282TIP3    H112789   4.862   6.985   0.196
 4282TIP3    H212790   4.876   7.119   0.127
 4283TIP3   OH212791   5.765   5.228   2.858
 4283TIP3    H112792   5.795   5.318   2.847
 4283TIP3    H212793   5.777   5.210   2.952
 4284TIP3   OH212794   2.679   0.033   2.650
 4284TIP3    H112795   2.710   0.003   2.735
 4284TIP3    H212796   2.591  -0.004   2.643
 4285TIP3   OH212797   0.512   3.396   5.640
 4285TIP3    H112798   0.587   3.336   5.639
 4285TIP3    H212799   0.493   3.411   5.547
 4286TIP3   OH212800   7.629   6.509   4.638
 4286TIP3    H112801   7.558   6.448   4.619
 4286TIP3    H212802   7.607   6.588   4.589
 4287TIP3   OH212803   8.117   6.894   6.294
 4287TIP3    H112804   8.066   6.912   6.215
 4287TIP3    H212805   8.122   6.798   6.297
 4288TIP3   OH212806   0.566   2.057   2.734
 4288TIP3    H112807   0.495   2.085   2.792
 4288TIP3    H212808   0.535   1.974   2.697
 4289TIP3   OH212809   1.804   3.026   1.140
 4289TIP3    H112810   1.828   2.935   1.155
 4289TIP3    H212811   1.856   3.052   1.064
 4290TIP3   OH212812   2.724   4.873   0.373
 4290TIP3    H112813   2.650   4.869   0.434
 4290TIP3    H212814   2.739   4.967   0.361
 4291TIP3   OH212815   6.298   3.430   0.394
 4291TIP3    H112816   6.383   3.398   0.422
 4291TIP3    H212817   6.245   3.350   0.383
 4292TIP3   OH212818   3.562   5.503   2.705
 4292TIP3    H112819   3.650   5.483   2.735
 4292TIP3    H212820   3.532   5.574   2.762
 4293TIP3   OH212821   2.008   3.067   4.922
 4293TIP3    H112822   1.986   3.008   4.993
 4293TIP3    H212823   2.081   3.024   4.877
 4294TIP3   OH212824   6.350   3.245   0.092
 4294TIP3    H112825   6.367   3.239   0.186
 4294TIP3    H212826   6.256   3.224   0.084
 4295TIP3   OH212827   4.623   7.163   2.118
 4295TIP3    H112828   4.655   7.109   2.190
 4295TIP3    H212829   4.688   7.150   2.048
 4296TIP3   OH212830   3.742   3.581   0.215
 4296TIP3    H112831   3.814   3.519   0.221
 4296TIP3    H212832   3.663   3.528   0.231
 4297TIP3   OH212833   4.685   4.633   5.910
 4297TIP3    H112834   4.649   4.691   5.844
 4297TIP3    H212835   4.780   4.637   5.897
 4298TIP3   OH212836   3.336   4.398   6.660
 4298TIP3    H112837   3.314   4.312   6.624
 4298TIP3    H212838   3.428   4.390   6.686
 4299TIP3   OH212839   5.443   7.107   2.528
 4299TIP3    H112840   5.499   7.065   2.593
 4299TIP3    H212841   5.439   7.045   2.456
 4300TIP3   OH212842   7.539   7.156   5.712
 4300TIP3    H112843   7.539   7.063   5.735
 4300TIP3    H212844   7.545   7.202   5.795
 4301TIP3   OH212845   1.467   3.776   2.866
 4301TIP3    H112846   1.465   3.745   2.957
 4301TIP3    H212847   1.388   3.740   2.827
 4302TIP3   OH212848   3.501   4.804   0.067
 4302TIP3    H112849   3.594   4.787   0.078
 4302TIP3    H212850   3.496   4.897   0.044
 4303TIP3   OH212851   1.630   0.243   2.510
 4303TIP3    H112852   1.699   0.208   2.453
 4303TIP3    H212853   1.668   0.242   2.598
 4304TIP3   OH212854   3.990   3.509   6.119
 4304TIP3    H112855   4.033   3.507   6.205
 4304TIP3    H212856   3.898   3.524   6.138
 4305TIP3   OH212857   2.324   4.755   6.529
 4305TIP3    H112858   2.372   4.677   6.555
 4305TIP3    H212859   2.290   4.735   6.442
 4306TIP3   OH212860   6.066   6.197   3.568
 4306TIP3    H112861   6.083   6.103   3.570
 4306TIP3    H212862   6.068   6.220   3.475
 4307TIP3   OH212863   2.338   4.805   2.127
 4307TIP3    H112864   2.303   4.815   2.038
 4307TIP3    H212865   2.420   4.757   2.115
 4308TIP3   OH212866   6.054   3.579   5.500
 4308TIP3    H112867   6.146   3.567   5.477
 4308TIP3    H212868   6.007   3.514   5.449
 4309TIP3   OH212869   4.547   3.152   4.696
 4309TIP3    H112870   4.564   3.063   4.726
 4309TIP3    H212871   4.555   3.147   4.601
 4310TIP3   OH212872   2.922   3.573   1.248
 4310TIP3    H112873   2.833   3.546   1.268
 4310TIP3    H212874   2.976   3.531   1.315
 4311TIP3   OH212875   8.153   0.805   0.294
 4311TIP3    H112876   8.122   0.890   0.264
 4311TIP3    H212877   8.157   0.751   0.215
 4312TIP3   OH212878   0.912   1.956   2.787
 4312TIP3    H112879   0.827   1.911   2.783
 4312TIP3    H212880   0.927   1.985   2.697
 4313TIP3   OH212881   7.023   2.307   1.694
 4313TIP3    H112882   7.080   2.232   1.704
 4313TIP3    H212883   6.935   2.273   1.710
 4314TIP3   OH212884   7.339   4.280   4.740
 4314TIP3    H112885   7.405   4.293   4.808
 4314TIP3    H212886   7.379   4.317   4.661
 4315TIP3   OH212887   4.081   7.069   2.914
 4315TIP3    H112888   4.143   7.130   2.873
 4315TIP3    H212889   4.083   7.092   3.007
 4316TIP3   OH212890   1.172   0.448   4.702
 4316TIP3    H112891   1.247   0.458   4.760
 4316TIP3    H212892   1.195   0.498   4.623
 4317TIP3   OH212893   7.386   6.500   4.459
 4317TIP3    H112894   7.437   6.474   4.382
 4317TIP3    H212895   7.415   6.589   4.478
 4318TIP3   OH212896   7.204   0.693   1.770
 4318TIP3    H112897   7.159   0.622   1.815
 4318TIP3    H212898   7.294   0.662   1.760
 4319TIP3   OH212899   3.615   4.685   2.323
 4319TIP3    H112900   3.676   4.745   2.366
 4319TIP3    H212901   3.627   4.701   2.230
 4320TIP3   OH212902   0.928   4.457   0.014
 4320TIP3    H112903   0.990   4.388   0.039
 4320TIP3    H212904   0.980   4.536   0.010
 4321TIP3   OH212905   6.864   1.753   3.526
 4321TIP3    H112906   6.822   1.669   3.544
 4321TIP3    H212907   6.948   1.749   3.572
 4322TIP3   OH212908   1.370   1.328   6.384
 4322TIP3    H112909   1.373   1.344   6.290
 4322TIP3    H212910   1.277   1.323   6.405
 4323TIP3   OH212911   5.308   2.209   3.690
 4323TIP3    H112912   5.267   2.143   3.634
 4323TIP3    H212913   5.339   2.276   3.630
 4324TIP3   OH212914   2.727   1.314   1.951
 4324TIP3    H112915   2.787   1.250   1.912
 4324TIP3    H212916   2.757   1.399   1.918
 4325TIP3   OH212917   0.618   3.144   4.670
 4325TIP3    H112918   0.658   3.100   4.596
 4325TIP3    H212919   0.666   3.226   4.679
 4326TIP3   OH212920   7.254   0.113   0.879
 4326TIP3    H112921   7.176   0.148   0.836
 4326TIP3    H212922   7.223   0.081   0.964
 4327TIP3   OH212923   0.457   3.035   2.492
 4327TIP3    H112924   0.541   2.993   2.510
 4327TIP3    H212925   0.425   2.990   2.414
 4328TIP3   OH212926   2.405   6.696   0.018
 4328TIP3    H112927   2.497   6.702  -0.010
 4328TIP3    H212928   2.364   6.640  -0.048
 4329TIP3   OH212929   6.231   3.832   0.995
 4329TIP3    H112930   6.201   3.923   0.992
 4329TIP3    H212931   6.185   3.794   1.070
 4330TIP3   OH212932   4.724   5.841   3.664
 4330TIP3    H112933   4.797   5.901   3.644
 4330TIP3    H212934   4.750   5.758   3.624
 4331TIP3   OH212935   3.902   4.425   6.743
 4331TIP3    H112936   3.955   4.347   6.730
 4331TIP3    H212937   3.958   4.485   6.792
 4332TIP3   OH212938   3.796   7.791   6.065
 4332TIP3    H112939   3.882   7.758   6.038
 4332TIP3    H212940   3.807   7.816   6.156
 4333TIP3   OH212941   1.495   3.520   1.772
 4333TIP3    H112942   1.422   3.459   1.762
 4333TIP3    H212943   1.512   3.521   1.866
 4334TIP3   OH212944   1.778   5.254   4.751
 4334TIP3    H112945   1.787   5.265   4.846
 4334TIP3    H212946   1.726   5.174   4.741
 4335TIP3   OH212947   2.937   1.556   6.479
 4335TIP3    H112948   2.991   1.526   6.407
 4335TIP3    H212949   2.981   1.525   6.558
 4336TIP3   OH212950   1.479   3.356   0.617
 4336TIP3    H112951   1.480   3.264   0.591
 4336TIP3    H212952   1.413   3.396   0.560
 4337TIP3   OH212953   7.354   3.844   4.716
 4337TIP3    H112954   7.272   3.796   4.703
 4337TIP3    H212955   7.363   3.897   4.637
 4338TIP3   OH212956   5.438   0.414   3.786
 4338TIP3    H112957   5.344   0.416   3.803
 4338TIP3    H212958   5.450   0.338   3.729
 4339TIP3   OH212959   7.150   0.929   2.043
 4339TIP3    H112960   7.194   0.883   2.114
 4339TIP3    H212961   7.059   0.900   2.047
 4340TIP3   OH212962   1.153   1.733   1.732
 4340TIP3    H112963   1.090   1.669   1.701
 4340TIP3    H212964   1.103   1.815   1.739
 4341TIP3   OH212965   0.060   6.079   2.187
 4341TIP3    H112966  -0.029   6.062   2.155
 4341TIP3    H212967   0.069   6.024   2.265
 4342TIP3   OH212968   1.347   5.181   1.107
 4342TIP3    H112969   1.426   5.197   1.055
 4342TIP3    H212970   1.358   5.091   1.140
 4343TIP3   OH212971   2.574   4.838   3.794
 4343TIP3    H112972   2.554   4.760   3.845
 4343TIP3    H212973   2.584   4.807   3.704
 4344TIP3   OH212974   4.441   1.143   2.250
 4344TIP3    H112975   4.430   1.088   2.327
 4344TIP3    H212976   4.427   1.232   2.281
 4345TIP3   OH212977   6.602   4.936   0.921
 4345TIP3    H112978   6.618   4.965   0.831
 4345TIP3    H212979   6.582   5.017   0.969
 4346TIP3   OH212980   5.358   4.435   5.933
 4346TIP3    H112981   5.285   4.420   5.872
 4346TIP3    H212982   5.347   4.526   5.961
 4347TIP3   OH212983   6.288   7.349   4.454
 4347TIP3    H112984   6.202   7.351   4.498
 4347TIP3    H212985   6.300   7.438   4.422
 4348TIP3   OH212986   2.615   6.898   0.310
 4348TIP3    H112987   2.537   6.932   0.266
 4348TIP3    H212988   2.593   6.901   0.403
 4349TIP3   OH212989   1.431   2.303   0.214
 4349TIP3    H112990   1.440   2.331   0.306
 4349TIP3    H212991   1.348   2.257   0.211
 4350TIP3   OH212992   4.573   1.095   3.031
 4350TIP3    H112993   4.509   1.130   2.969
 4350TIP3    H212994   4.547   1.130   3.116
 4351TIP3   OH212995   5.865   2.918   1.913
 4351TIP3    H112996   5.782   2.959   1.938
 4351TIP3    H212997   5.839   2.842   1.860
 4352TIP3   OH212998   3.131   7.369   3.586
 4352TIP3    H112999   3.177   7.440   3.542
 4352TIP3    H213000   3.040   7.379   3.558
 4353TIP3   OH213001   5.093   4.804   0.050
 4353TIP3    H113002   5.018   4.756   0.087
 4353TIP3    H213003   5.053   4.875  -0.001
 4354TIP3   OH213004   6.351   6.624   4.461
 4354TIP3    H113005   6.368   6.538   4.421
 4354TIP3    H213006   6.256   6.626   4.475
 4355TIP3   OH213007   3.386   3.163   0.996
 4355TIP3    H113008   3.300   3.187   1.032
 4355TIP3    H213009   3.411   3.085   1.046
 4356TIP3   OH213010   6.900   2.639   2.869
 4356TIP3    H113011   6.852   2.623   2.950
 4356TIP3    H213012   6.833   2.663   2.806
 4357TIP3   OH213013   1.281   7.687   1.195
 4357TIP3    H113014   1.300   7.716   1.106
 4357TIP3    H213015   1.344   7.734   1.249
 4358TIP3   OH213016   3.422   1.307   1.753
 4358TIP3    H113017   3.436   1.228   1.700
 4358TIP3    H213018   3.348   1.285   1.810
 4359TIP3   OH213019   1.270   6.802   0.108
 4359TIP3    H113020   1.300   6.883   0.149
 4359TIP3    H213021   1.195   6.775   0.161
 4360TIP3   OH213022   5.720   3.475   4.688
 4360TIP3    H113023   5.658   3.442   4.753
 4360TIP3    H213024   5.732   3.402   4.627
 4361TIP3   OH213025   7.028   1.572   3.156
 4361TIP3    H113026   6.947   1.620   3.139
 4361TIP3    H213027   7.031   1.563   3.252
 4362TIP3   OH213028   6.464   6.723   5.941
 4362TIP3    H113029   6.395   6.657   5.938
 4362TIP3    H213030   6.485   6.732   6.034
 4363TIP3   OH213031   1.390   6.965   3.845
 4363TIP3    H113032   1.316   6.913   3.877
 4363TIP3    H213033   1.465   6.935   3.897
 4364TIP3   OH213034   8.260   5.180   0.699
 4364TIP3    H113035   8.231   5.265   0.665
 4364TIP3    H213036   8.334   5.202   0.756
 4365TIP3   OH213037   1.009   6.025   0.096
 4365TIP3    H113038   0.966   6.082   0.160
 4365TIP3    H213039   1.086   6.074   0.067
 4366TIP3   OH213040   1.666   3.872   1.642
 4366TIP3    H113041   1.582   3.849   1.681
 4366TIP3    H213042   1.729   3.862   1.714
 4367TIP3   OH213043   7.137   2.114   5.215
 4367TIP3    H113044   7.122   2.077   5.128
 4367TIP3    H213045   7.170   2.203   5.198
 4368TIP3   OH213046   5.084   6.269   2.250
 4368TIP3    H113047   5.105   6.302   2.337
 4368TIP3    H213048   5.162   6.220   2.224
 4369TIP3   OH213049   7.204   7.268   5.226
 4369TIP3    H113050   7.195   7.286   5.133
 4369TIP3    H213051   7.188   7.352   5.269
 4370TIP3   OH213052   5.439   1.515   4.574
 4370TIP3    H113053   5.490   1.580   4.622
 4370TIP3    H213054   5.355   1.559   4.558
 4371TIP3   OH213055   5.474   3.611   3.491
 4371TIP3    H113056   5.547   3.577   3.439
 4371TIP3    H213057   5.506   3.609   3.581
 4372TIP3   OH213058   4.144   1.660   4.155
 4372TIP3    H113059   4.210   1.728   4.164
 4372TIP3    H213060   4.176   1.588   4.210
 4373TIP3   OH213061   0.426   2.504   1.844
 4373TIP3    H113062   0.399   2.586   1.885
 4373TIP3    H213063   0.486   2.531   1.774
 4374TIP3   OH213064   8.015   1.238   0.291
 4374TIP3    H113065   7.932   1.285   0.301
 4374TIP3    H213066   8.007   1.193   0.207
 4375TIP3   OH213067   5.169   3.346   0.147
 4375TIP3    H113068   5.082   3.330   0.184
 4375TIP3    H213069   5.206   3.414   0.203
 4376TIP3   OH213070   5.781   6.795   5.259
 4376TIP3    H113071   5.743   6.809   5.172
 4376TIP3    H213072   5.800   6.883   5.292
 4377TIP3   OH213073   5.314   1.778   5.663
 4377TIP3    H113074   5.323   1.735   5.577
 4377TIP3    H213075   5.397   1.824   5.676
 4378TIP3   OH213076   6.294   3.440   4.064
 4378TIP3    H113077   6.326   3.356   4.097
 4378TIP3    H213078   6.373   3.491   4.048
 4379TIP3   OH213079   3.686   7.721   4.030
 4379TIP3    H113080   3.668   7.639   3.983
 4379TIP3    H213081   3.670   7.789   3.965
 4380TIP3   OH213082   0.881   5.669   3.032
 4380TIP3    H113083   0.837   5.644   2.952
 4380TIP3    H213084   0.942   5.597   3.050
 4381TIP3   OH213085   4.140   0.709   2.114
 4381TIP3    H113086   4.103   0.623   2.136
 4381TIP3    H213087   4.112   0.766   2.185
 4382TIP3   OH213088   7.062   1.305   5.202
 4382TIP3    H113089   7.119   1.252   5.147
 4382TIP3    H213090   7.120   1.374   5.236
 4383TIP3   OH213091   7.724   1.271   3.288
 4383TIP3    H113092   7.733   1.281   3.193
 4383TIP3    H213093   7.683   1.353   3.317
 4384TIP3   OH213094   4.236   3.137   0.741
 4384TIP3    H113095   4.175   3.065   0.755
 4384TIP3    H213096   4.192   3.213   0.778
 4385TIP3   OH213097   6.059   5.743   3.800
 4385TIP3    H113098   5.980   5.763   3.750
 4385TIP3    H213099   6.109   5.684   3.743
 4386TIP3   OH213100   4.171   6.325   0.881
 4386TIP3    H113101   4.175   6.266   0.957
 4386TIP3    H213102   4.155   6.267   0.807
 4387TIP3   OH213103   4.273   6.212   5.707
 4387TIP3    H113104   4.216   6.205   5.630
 4387TIP3    H213105   4.258   6.131   5.755
 4388TIP3   OH213106   4.219   6.258   3.602
 4388TIP3    H113107   4.194   6.193   3.667
 4388TIP3    H213108   4.190   6.221   3.518
 4389TIP3   OH213109   0.740   2.947   2.800
 4389TIP3    H113110   0.657   2.995   2.804
 4389TIP3    H213111   0.749   2.923   2.708
 4390TIP3   OH213112   8.014   4.240   2.028
 4390TIP3    H113113   7.994   4.299   1.956
 4390TIP3    H213114   8.020   4.154   1.987
 4391TIP3   OH213115   5.424   7.122   0.896
 4391TIP3    H113116   5.394   7.075   0.819
 4391TIP3    H213117   5.519   7.110   0.896
 4392TIP3   OH213118   3.777   7.690   0.359
 4392TIP3    H113119   3.751   7.640   0.436
 4392TIP3    H213120   3.872   7.686   0.359
 4393TIP3   OH213121   7.184   7.230   1.642
 4393TIP3    H113122   7.131   7.153   1.662
 4393TIP3    H213123   7.130   7.281   1.581
 4394TIP3   OH213124   1.645   7.126   4.659
 4394TIP3    H113125   1.723   7.072   4.670
 4394TIP3    H213126   1.623   7.117   4.566
 4395TIP3   OH213127   7.251   6.298   3.696
 4395TIP3    H113128   7.308   6.221   3.699
 4395TIP3    H213129   7.225   6.305   3.604
 4396TIP3   OH213130   4.757   2.299   3.269
 4396TIP3    H113131   4.677   2.346   3.293
 4396TIP3    H213132   4.816   2.312   3.343
 4397TIP3   OH213133   8.097   1.666   6.708
 4397TIP3    H113134   8.077   1.686   6.617
 4397TIP3    H213135   8.096   1.751   6.753
 4398TIP3   OH213136   5.766   3.328   0.468
 4398TIP3    H113137   5.763   3.238   0.500
 4398TIP3    H213138   5.820   3.375   0.531
 4399TIP3   OH213139   2.842   5.601   5.199
 4399TIP3    H113140   2.881   5.657   5.132
 4399TIP3    H213141   2.915   5.554   5.238
 4400TIP3   OH213142   3.447   2.298   4.265
 4400TIP3    H113143   3.434   2.217   4.315
 4400TIP3    H213144   3.404   2.366   4.317
 4401TIP3   OH213145   6.470   1.569   4.736
 4401TIP3    H113146   6.559   1.580   4.770
 4401TIP3    H213147   6.426   1.513   4.800
 4402TIP3   OH213148   3.155   5.040   4.493
 4402TIP3    H113149   3.164   4.959   4.442
 4402TIP3    H213150   3.108   5.100   4.436
 4403TIP3   OH213151   7.103   0.697   4.194
 4403TIP3    H113152   7.028   0.665   4.244
 4403TIP3    H213153   7.178   0.649   4.228
 4404TIP3   OH213154   7.081   4.476   1.806
 4404TIP3    H113155   7.093   4.393   1.759
 4404TIP3    H213156   7.021   4.455   1.877
 4405TIP3   OH213157   1.267   1.537   3.980
 4405TIP3    H113158   1.361   1.521   3.975
 4405TIP3    H213159   1.259   1.631   3.995
 4406TIP3   OH213160   4.756   3.507   0.301
 4406TIP3    H113161   4.693   3.446   0.338
 4406TIP3    H213162   4.835   3.496   0.354
 4407TIP3   OH213163   7.465   5.497   5.105
 4407TIP3    H113164   7.386   5.464   5.147
 4407TIP3    H213165   7.442   5.585   5.075
 4408TIP3   OH213166   4.271   3.543   2.237
 4408TIP3    H113167   4.242   3.457   2.268
 4408TIP3    H213168   4.330   3.524   2.164
 4409TIP3   OH213169   3.241   3.202   2.029
 4409TIP3    H113170   3.187   3.183   1.952
 4409TIP3    H213171   3.321   3.241   1.993
 4410TIP3   OH213172   1.489   3.835   5.998
 4410TIP3    H113173   1.407   3.886   5.995
 4410TIP3    H213174   1.550   3.887   5.946
 4411TIP3   OH213175   0.771   4.143   0.012
 4411TIP3    H113176   0.698   4.089  -0.016
 4411TIP3    H213177   0.777   4.212  -0.054
 4412TIP3   OH213178   7.944   7.602   4.678
 4412TIP3    H113179   7.960   7.557   4.595
 4412TIP3    H213180   8.026   7.592   4.727
 4413TIP3   OH213181   4.499   7.241   3.028
 4413TIP3    H113182   4.592   7.241   3.009
 4413TIP3    H213183   4.456   7.230   2.943
 4414TIP3   OH213184   0.467   3.523   6.299
 4414TIP3    H113185   0.486   3.489   6.386
 4414TIP3    H213186   0.552   3.547   6.263
 4415TIP3   OH213187   2.186   4.160   5.201
 4415TIP3    H113188   2.235   4.116   5.270
 4415TIP3    H213189   2.102   4.113   5.198
 4416TIP3   OH213190   4.798   2.364   2.107
 4416TIP3    H113191   4.774   2.447   2.066
 4416TIP3    H213192   4.728   2.303   2.081
 4417TIP3   OH213193   1.254   5.541   2.069
 4417TIP3    H113194   1.261   5.448   2.046
 4417TIP3    H213195   1.301   5.587   2.000
 4418TIP3   OH213196   0.936   6.542   2.269
 4418TIP3    H113197   0.911   6.562   2.179
 4418TIP3    H213198   1.005   6.476   2.261
 4419TIP3   OH213199   6.606   7.513   2.882
 4419TIP3    H113200   6.700   7.494   2.873
 4419TIP3    H213201   6.564   7.427   2.883
 4420TIP3   OH213202   7.582   5.940   5.159
 4420TIP3    H113203   7.643   5.959   5.087
 4420TIP3    H213204   7.520   5.878   5.122
 4421TIP3   OH213205   1.498   1.354   3.189
 4421TIP3    H113206   1.464   1.269   3.218
 4421TIP3    H213207   1.459   1.367   3.103
 4422TIP3   OH213208   1.468   3.831   1.961
 4422TIP3    H113209   1.400   3.893   1.936
 4422TIP3    H213210   1.435   3.790   2.042
 4423TIP3   OH213211   8.112   3.392   1.825
 4423TIP3    H113212   8.025   3.424   1.804
 4423TIP3    H213213   8.153   3.463   1.875
 4424TIP3   OH213214   1.415   4.218   5.539
 4424TIP3    H113215   1.485   4.182   5.592
 4424TIP3    H213216   1.450   4.218   5.449
 4425TIP3   OH213217   4.567   4.101   2.118
 4425TIP3    H113218   4.632   4.161   2.084
 4425TIP3    H213219   4.614   4.018   2.129
 4426TIP3   OH213220   2.079   0.625   5.704
 4426TIP3    H113221   2.084   0.532   5.725
 4426TIP3    H213222   1.988   0.639   5.677
 4427TIP3   OH213223   2.778   6.706   6.226
 4427TIP3    H113224   2.735   6.649   6.290
 4427TIP3    H213225   2.707   6.763   6.194
 4428TIP3   OH213226   7.158   5.593   4.697
 4428TIP3    H113227   7.224   5.561   4.636
 4428TIP3    H213228   7.111   5.515   4.725
 4429TIP3   OH213229   2.213   5.542   2.195
 4429TIP3    H113230   2.286   5.489   2.161
 4429TIP3    H213231   2.234   5.631   2.169
 4430TIP3   OH213232   1.532   7.093   1.948
 4430TIP3    H113233   1.567   7.011   1.982
 4430TIP3    H213234   1.439   7.091   1.970
 4431TIP3   OH213235   8.158   2.055   4.274
 4431TIP3    H113236   8.121   2.065   4.361
 4431TIP3    H213237   8.131   2.134   4.227
 4432TIP3   OH213238   7.544   0.052   5.900
 4432TIP3    H113239   7.614   0.041   5.836
 4432TIP3    H213240   7.516  -0.037   5.921
 4433TIP3   OH213241   7.349   0.368   1.099
 4433TIP3    H113242   7.358   0.367   1.194
 4433TIP3    H213243   7.255   0.373   1.084
 4434TIP3   OH213244   4.732   2.775   4.388
 4434TIP3    H113245   4.813   2.790   4.339
 4434TIP3    H213246   4.704   2.687   4.363
 4435TIP3   OH213247   2.279   3.372   1.847
 4435TIP3    H113248   2.225   3.330   1.780
 4435TIP3    H213249   2.355   3.315   1.856
 4436TIP3   OH213250   3.838   3.139   0.558
 4436TIP3    H113251   3.875   3.090   0.485
 4436TIP3    H213252   3.863   3.230   0.542
 4437TIP3   OH213253   3.856   5.462   1.118
 4437TIP3    H113254   3.781   5.405   1.133
 4437TIP3    H213255   3.932   5.404   1.122
 4438TIP3   OH213256   3.212   3.350   1.703
 4438TIP3    H113257   3.298   3.349   1.743
 4438TIP3    H213258   3.181   3.260   1.710
 4439TIP3   OH213259   5.198   2.529   6.251
 4439TIP3    H113260   5.126   2.470   6.275
 4439TIP3    H213261   5.233   2.493   6.170
 4440TIP3   OH213262   3.463   5.915   5.776
 4440TIP3    H113263   3.467   5.905   5.872
 4440TIP3    H213264   3.392   5.977   5.762
 4441TIP3   OH213265   4.675   6.378   0.102
 4441TIP3    H113266   4.763   6.387   0.066
 4441TIP3    H213267   4.634   6.311   0.047
 4442TIP3   OH213268   3.788   6.263   2.068
 4442TIP3    H113269   3.775   6.236   2.159
 4442TIP3    H213270   3.791   6.359   2.071
 4443TIP3   OH213271   1.822   6.008   5.198
 4443TIP3    H113272   1.840   6.075   5.264
 4443TIP3    H213273   1.727   5.997   5.202
 4444TIP3   OH213274   1.081   1.330   3.896
 4444TIP3    H113275   1.147   1.399   3.901
 4444TIP3    H213276   1.103   1.282   3.816
 4445TIP3   OH213277   1.175   4.154   2.172
 4445TIP3    H113278   1.191   4.247   2.187
 4445TIP3    H213279   1.112   4.129   2.240
 4446TIP3   OH213280   4.428   2.305   3.879
 4446TIP3    H113281   4.486   2.372   3.914
 4446TIP3    H213282   4.394   2.343   3.798
 4447TIP3   OH213283   3.097   1.564   6.722
 4447TIP3    H113284   3.043   1.522   6.789
 4447TIP3    H213285   3.186   1.560   6.757
 4448TIP3   OH213286   0.803   0.086   0.160
 4448TIP3    H113287   0.715   0.121   0.147
 4448TIP3    H213288   0.829   0.054   0.074
 4449TIP3   OH213289   0.962   3.873   0.891
 4449TIP3    H113290   0.894   3.940   0.902
 4449TIP3    H213291   0.953   3.817   0.968
 4450TIP3   OH213292   6.677   1.404   4.955
 4450TIP3    H113293   6.620   1.336   4.991
 4450TIP3    H213294   6.707   1.368   4.872
 4451TIP3   OH213295   2.875   7.148   2.224
 4451TIP3    H113296   2.787   7.170   2.252
 4451TIP3    H213297   2.876   7.168   2.130
 4452TIP3   OH213298   3.388   6.140   5.467
 4452TIP3    H113299   3.310   6.086   5.478
 4452TIP3    H213300   3.354   6.228   5.451
 4453TIP3   OH213301   1.025   2.361   3.178
 4453TIP3    H113302   0.937   2.326   3.163
 4453TIP3    H213303   1.061   2.306   3.247
 4454TIP3   OH213304   1.731   6.773   1.393
 4454TIP3    H113305   1.793   6.805   1.327
 4454TIP3    H213306   1.645   6.782   1.351
 4455TIP3   OH213307   0.322   2.579   0.658
 4455TIP3    H113308   0.317   2.507   0.595
 4455TIP3    H213309   0.305   2.658   0.606
 4456TIP3   OH213310   7.593   2.144   4.099
 4456TIP3    H113311   7.556   2.080   4.159
 4456TIP3    H213312   7.616   2.219   4.155
 4457TIP3   OH213313   2.866   6.475   6.646
 4457TIP3    H113314   2.796   6.411   6.645
 4457TIP3    H213315   2.856   6.522   6.729
 4458TIP3   OH213316   7.941   6.044   4.615
 4458TIP3    H113317   7.846   6.056   4.618
 4458TIP3    H213318   7.955   5.954   4.645
 4459TIP3   OH213319   7.853   2.296   5.206
 4459TIP3    H113320   7.834   2.262   5.118
 4459TIP3    H213321   7.840   2.390   5.198
 4460TIP3   OH213322   3.472   0.452   1.848
 4460TIP3    H113323   3.478   0.520   1.781
 4460TIP3    H213324   3.401   0.395   1.818
 4461TIP3   OH213325   5.646   3.051   2.476
 4461TIP3    H113326   5.686   2.982   2.422
 4461TIP3    H213327   5.553   3.047   2.453
 4462TIP3   OH213328   6.163   2.838   0.233
 4462TIP3    H113329   6.133   2.917   0.188
 4462TIP3    H213330   6.131   2.766   0.178
 4463TIP3   OH213331   6.566   2.774   5.403
 4463TIP3    H113332   6.513   2.848   5.373
 4463TIP3    H213333   6.520   2.741   5.480
 4464TIP3   OH213334   0.111   2.338   0.749
 4464TIP3    H113335   0.078   2.325   0.661
 4464TIP3    H213336   0.043   2.387   0.794
 4465TIP3   OH213337   3.302   5.042   1.407
 4465TIP3    H113338   3.307   4.959   1.360
 4465TIP3    H213339   3.341   5.024   1.493
 4466TIP3   OH213340   7.284   0.629   2.843
 4466TIP3    H113341   7.358   0.569   2.852
 4466TIP3    H213342   7.207   0.572   2.844
 4467TIP3   OH213343   6.987   7.738   5.292
 4467TIP3    H113344   6.952   7.658   5.331
 4467TIP3    H213345   7.035   7.708   5.215
 4468TIP3   OH213346   6.696   1.533   6.756
 4468TIP3    H113347   6.715   1.616   6.801
 4468TIP3    H213348   6.636   1.558   6.686
 4469TIP3   OH213349   2.822   3.006   3.327
 4469TIP3    H113350   2.890   2.967   3.272
 4469TIP3    H213351   2.791   3.082   3.277
 4470TIP3   OH213352   0.609   0.270   2.402
 4470TIP3    H113353   0.606   0.179   2.430
 4470TIP3    H213354   0.529   0.309   2.438
 4471TIP3   OH213355   2.008   4.953   0.255
 4471TIP3    H113356   1.949   4.878   0.245
 4471TIP3    H213357   2.085   4.929   0.202
 4472TIP3   OH213358   6.330   6.042   6.189
 4472TIP3    H113359   6.349   6.107   6.256
 4472TIP3    H213360   6.322   5.960   6.237
 4473TIP3   OH213361   1.815   7.066   1.557
 4473TIP3    H113362   1.727   7.084   1.590
 4473TIP3    H213363   1.835   7.139   1.499
 4474TIP3   OH213364   6.497   4.011   0.775
 4474TIP3    H113365   6.566   4.077   0.787
 4474TIP3    H213366   6.499   3.993   0.681
 4475TIP3   OH213367   3.100   3.000   5.109
 4475TIP3    H113368   3.046   3.070   5.072
 4475TIP3    H213369   3.048   2.964   5.180
 4476TIP3   OH213370   0.086   5.785   3.541
 4476TIP3    H113371   0.113   5.876   3.537
 4476TIP3    H213372   0.008   5.780   3.485
 4477TIP3   OH213373   0.827   6.319   5.148
 4477TIP3    H113374   0.868   6.253   5.092
 4477TIP3    H213375   0.740   6.331   5.111
 4478TIP3   OH213376   0.039   6.920   1.251
 4478TIP3    H113377  -0.041   6.868   1.255
 4478TIP3    H213378   0.009   7.011   1.245
 4479TIP3   OH213379   2.634   2.458   5.895
 4479TIP3    H113380   2.727   2.476   5.903
 4479TIP3    H213381   2.605   2.511   5.822
 4480TIP3   OH213382   3.441   3.030   1.808
 4480TIP3    H113383   3.348   3.008   1.820
 4480TIP3    H213384   3.488   2.964   1.859
 4481TIP3   OH213385   7.943   2.507   2.679
 4481TIP3    H113386   7.863   2.457   2.662
 4481TIP3    H213387   7.954   2.503   2.774
 4482TIP3   OH213388   0.359   4.077   1.741
 4482TIP3    H113389   0.383   4.063   1.650
 4482TIP3    H213390   0.382   4.168   1.758
 4483TIP3   OH213391   5.756   2.606   1.876
 4483TIP3    H113392   5.679   2.556   1.850
 4483TIP3    H213393   5.821   2.585   1.809
 4484TIP3   OH213394   3.865   2.996   1.973
 4484TIP3    H113395   3.932   3.065   1.965
 4484TIP3    H213396   3.910   2.925   2.019
 4485TIP3   OH213397   1.519   2.403   1.386
 4485TIP3    H113398   1.476   2.365   1.309
 4485TIP3    H213399   1.597   2.446   1.351
 4486TIP3   OH213400   2.151   7.543   5.338
 4486TIP3    H113401   2.221   7.534   5.402
 4486TIP3    H213402   2.072   7.512   5.383
 4487TIP3   OH213403   4.903   3.221   3.628
 4487TIP3    H113404   4.969   3.254   3.689
 4487TIP3    H213405   4.844   3.295   3.614
 4488TIP3   OH213406   4.219   4.446   2.379
 4488TIP3    H113407   4.305   4.472   2.345
 4488TIP3    H213408   4.170   4.418   2.301
 4489TIP3   OH213409   2.711   6.885   5.478
 4489TIP3    H113410   2.692   6.932   5.396
 4489TIP3    H213411   2.646   6.917   5.540
 4490TIP3   OH213412   7.708   2.822   3.464
 4490TIP3    H113413   7.723   2.820   3.369
 4490TIP3    H213414   7.758   2.748   3.498
 4491TIP3   OH213415   4.054   0.628   6.700
 4491TIP3    H113416   3.963   0.633   6.673
 4491TIP3    H213417   4.052   0.589   6.787
 4492TIP3   OH213418   7.263   6.316   5.174
 4492TIP3    H113419   7.332   6.380   5.188
 4492TIP3    H213420   7.221   6.345   5.092
 4493TIP3   OH213421   2.784   3.740   5.425
 4493TIP3    H113422   2.865   3.694   5.449
 4493TIP3    H213423   2.737   3.752   5.507
 4494TIP3   OH213424   1.617   6.973   3.403
 4494TIP3    H113425   1.539   7.014   3.439
 4494TIP3    H213426   1.646   6.913   3.472
 4495TIP3   OH213427   2.003   7.589   3.512
 4495TIP3    H113428   1.935   7.619   3.572
 4495TIP3    H213429   1.990   7.643   3.433
 4496TIP3   OH213430   2.518   1.063   4.835
 4496TIP3    H113431   2.523   0.989   4.775
 4496TIP3    H213432   2.424   1.076   4.849
 4497TIP3   OH213433   4.667   6.481   1.388
 4497TIP3    H113434   4.612   6.437   1.323
 4497TIP3    H213435   4.731   6.530   1.336
 4498TIP3   OH213436   3.232   7.196   3.224
 4498TIP3    H113437   3.313   7.218   3.270
 4498TIP3    H213438   3.260   7.170   3.137
 4499TIP3   OH213439   6.040   7.129   3.447
 4499TIP3    H113440   5.960   7.092   3.485
 4499TIP3    H213441   6.009   7.183   3.374
 4500TIP3   OH213442   6.013   6.404   5.553
 4500TIP3    H113443   5.918   6.391   5.558
 4500TIP3    H213444   6.041   6.346   5.482
 4501TIP3   OH213445   6.016   3.443   1.771
 4501TIP3    H113446   6.101   3.420   1.808
 4501TIP3    H213447   5.999   3.531   1.805
 4502TIP3   OH213448   4.822   2.879   5.744
 4502TIP3    H113449   4.916   2.888   5.754
 4502TIP3    H213450   4.789   2.970   5.742
 4503TIP3   OH213451   0.257   6.665   3.029
 4503TIP3    H113452   0.230   6.718   2.953
 4503TIP3    H213453   0.183   6.607   3.045
 4504TIP3   OH213454   2.752   5.226   6.035
 4504TIP3    H113455   2.797   5.273   6.105
 4504TIP3    H213456   2.732   5.141   6.073
 4505TIP3   OH213457   3.116   0.843   4.877
 4505TIP3    H113458   3.030   0.844   4.919
 4505TIP3    H213459   3.122   0.757   4.837
 4506TIP3   OH213460   1.825   0.930   4.545
 4506TIP3    H113461   1.831   0.841   4.510
 4506TIP3    H213462   1.794   0.983   4.471
 4507TIP3   OH213463   3.432   5.959   4.345
 4507TIP3    H113464   3.485   5.889   4.383
 4507TIP3    H213465   3.348   5.952   4.390
 4508TIP3   OH213466   5.728   7.409   0.934
 4508TIP3    H113467   5.777   7.491   0.932
 4508TIP3    H213468   5.758   7.365   1.013
 4509TIP3   OH213469   5.002   7.119   3.233
 4509TIP3    H113470   5.030   7.089   3.319
 4509TIP3    H213471   5.074   7.174   3.202
 4510TIP3   OH213472   7.997   1.103   0.995
 4510TIP3    H113473   7.922   1.121   0.939
 4510TIP3    H213474   8.071   1.100   0.934
 4511TIP3   OH213475   7.882   5.136   1.352
 4511TIP3    H113476   7.939   5.133   1.275
 4511TIP3    H213477   7.798   5.102   1.321
 4512TIP3   OH213478   0.708   5.967   2.046
 4512TIP3    H113479   0.703   5.875   2.071
 4512TIP3    H213480   0.632   5.980   1.988
 4513TIP3   OH213481   4.360   7.730   0.079
 4513TIP3    H113482   4.332   7.662   0.016
 4513TIP3    H213483   4.282   7.785   0.090
 4514TIP3   OH213484   7.592   1.343   0.086
 4514TIP3    H113485   7.578   1.344   0.181
 4514TIP3    H213486   7.588   1.251   0.062
 4515TIP3   OH213487   0.352   0.980   1.629
 4515TIP3    H113488   0.311   1.042   1.689
 4515TIP3    H213489   0.361   1.028   1.547
 4516TIP3   OH213490   6.111   6.710   1.493
 4516TIP3    H113491   6.044   6.644   1.477
 4516TIP3    H213492   6.194   6.664   1.479
 4517TIP3   OH213493   2.372   2.074   4.150
 4517TIP3    H113494   2.400   2.138   4.215
 4517TIP3    H213495   2.282   2.052   4.175
 4518TIP3   OH213496   2.073   2.539   5.430
 4518TIP3    H113497   2.007   2.494   5.483
 4518TIP3    H213498   2.109   2.606   5.489
 4519TIP3   OH213499   7.668   0.621   6.185
 4519TIP3    H113500   7.672   0.543   6.130
 4519TIP3    H213501   7.619   0.685   6.132
 4520TIP3   OH213502   7.854   6.760   0.152
 4520TIP3    H113503   7.918   6.748   0.222
 4520TIP3    H213504   7.895   6.719   0.075
 4521TIP3   OH213505   6.445   0.098   0.597
 4521TIP3    H113506   6.363   0.090   0.548
 4521TIP3    H213507   6.421   0.148   0.676
 4522TIP3   OH213508   4.225   1.819   5.213
 4522TIP3    H113509   4.241   1.820   5.307
 4522TIP3    H213510   4.146   1.765   5.203
 4523TIP3   OH213511   6.326   0.263   1.623
 4523TIP3    H113512   6.405   0.297   1.580
 4523TIP3    H213513   6.318   0.316   1.702
 4524TIP3   OH213514   3.405   0.864   3.469
 4524TIP3    H113515   3.371   0.779   3.496
 4524TIP3    H213516   3.483   0.844   3.418
 4525TIP3   OH213517   6.980   6.839   5.713
 4525TIP3    H113518   6.977   6.859   5.620
 4525TIP3    H213519   6.922   6.903   5.754
 4526TIP3   OH213520   1.818   6.081   0.878
 4526TIP3    H113521   1.892   6.133   0.846
 4526TIP3    H213522   1.858   6.013   0.931
 4527TIP3   OH213523   5.543   5.188   0.799
 4527TIP3    H113524   5.616   5.182   0.738
 4527TIP3    H213525   5.476   5.237   0.751
 4528TIP3   OH213526   2.748   6.450   2.425
 4528TIP3    H113527   2.751   6.494   2.510
 4528TIP3    H213528   2.679   6.496   2.377
 4529TIP3   OH213529   4.419   4.216   5.239
 4529TIP3    H113530   4.382   4.199   5.152
 4529TIP3    H213531   4.346   4.251   5.289
 4530TIP3   OH213532   4.497   2.702   5.204
 4530TIP3    H113533   4.428   2.741   5.257
 4530TIP3    H213534   4.558   2.774   5.187
 4531TIP3   OH213535   1.502   4.047   2.725
 4531TIP3    H113536   1.496   3.955   2.751
 4531TIP3    H213537   1.590   4.056   2.688
 4532TIP3   OH213538   1.743   1.660   5.376
 4532TIP3    H113539   1.809   1.595   5.354
 4532TIP3    H213540   1.700   1.625   5.454
 4533TIP3   OH213541   5.582   5.970   5.227
 4533TIP3    H113542   5.667   6.014   5.218
 4533TIP3    H213543   5.546   5.970   5.138
 4534TIP3   OH213544   7.349   7.656   2.464
 4534TIP3    H113545   7.316   7.713   2.394
 4534TIP3    H213546   7.275   7.602   2.489
 4535TIP3   OH213547   1.806   1.224   5.173
 4535TIP3    H113548   1.810   1.143   5.224
 4535TIP3    H213549   1.735   1.209   5.110
 4536TIP3   OH213550   1.767   2.521   0.434
 4536TIP3    H113551   1.820   2.601   0.429
 4536TIP3    H213552   1.758   2.493   0.343
 4537TIP3   OH213553   7.854   0.785   1.116
 4537TIP3    H113554   7.777   0.834   1.146
 4537TIP3    H213555   7.842   0.697   1.153
 4538TIP3   OH213556   4.796   2.704   0.797
 4538TIP3    H113557   4.873   2.760   0.807
 4538TIP3    H213558   4.811   2.632   0.857
 4539TIP3   OH213559   1.665   1.572   4.336
 4539TIP3    H113560   1.662   1.559   4.242
 4539TIP3    H213561   1.653   1.485   4.374
 4540TIP3   OH213562   2.591   3.806   6.420
 4540TIP3    H113563   2.545   3.833   6.499
 4540TIP3    H213564   2.522   3.795   6.354
 4541TIP3   OH213565   3.759   2.654   1.057
 4541TIP3    H113566   3.700   2.613   1.120
 4541TIP3    H213567   3.776   2.586   0.992
 4542TIP3   OH213568   5.912   6.903   0.613
 4542TIP3    H113569   5.834   6.868   0.655
 4542TIP3    H213570   5.885   6.918   0.522
 4543TIP3   OH213571   2.947   4.688   4.350
 4543TIP3    H113572   2.979   4.690   4.441
 4543TIP3    H213573   2.853   4.669   4.359
 4544TIP3   OH213574   8.102   1.455   3.384
 4544TIP3    H113575   8.085   1.545   3.354
 4544TIP3    H213576   8.060   1.400   3.319
 4545TIP3   OH213577   0.513   3.432   6.583
 4545TIP3    H113578   0.517   3.524   6.610
 4545TIP3    H213579   0.474   3.387   6.658
 4546TIP3   OH213580   0.115   7.776   4.933
 4546TIP3    H113581   0.166   7.820   4.866
 4546TIP3    H213582   0.067   7.846   4.977
 4547TIP3   OH213583   0.463   5.557   2.520
 4547TIP3    H113584   0.420   5.641   2.532
 4547TIP3    H213585   0.462   5.517   2.607
 4548TIP3   OH213586   4.006   7.764   4.737
 4548TIP3    H113587   3.990   7.711   4.659
 4548TIP3    H213588   3.945   7.837   4.729
 4549TIP3   OH213589   1.426   2.524   0.049
 4549TIP3    H113590   1.381   2.593   0.097
 4549TIP3    H213591   1.425   2.448   0.108
 4550TIP3   OH213592   7.048   2.968   4.486
 4550TIP3    H113593   6.991   2.972   4.409
 4550TIP3    H213594   7.113   3.037   4.471
 4551TIP3   OH213595   3.131   5.387   2.339
 4551TIP3    H113596   3.169   5.387   2.426
 4551TIP3    H213597   3.057   5.448   2.345
 4552TIP3   OH213598   5.236   3.897   5.759
 4552TIP3    H113599   5.325   3.923   5.781
 4552TIP3    H213600   5.228   3.808   5.793
 4553TIP3   OH213601   4.153   1.504   4.968
 4553TIP3    H113602   4.087   1.465   5.026
 4553TIP3    H213603   4.126   1.478   4.880
 4554TIP3   OH213604   8.142   7.526   4.474
 4554TIP3    H113605   8.236   7.535   4.492
 4554TIP3    H213606   8.122   7.601   4.417
 4555TIP3   OH213607   6.458   4.264   1.437
 4555TIP3    H113608   6.451   4.193   1.373
 4555TIP3    H213609   6.409   4.231   1.513
 4556TIP3   OH213610   0.475   6.925   1.135
 4556TIP3    H113611   0.527   6.981   1.192
 4556TIP3    H213612   0.520   6.841   1.136
 4557TIP3   OH213613   0.568   6.695   3.514
 4557TIP3    H113614   0.631   6.720   3.582
 4557TIP3    H213615   0.608   6.726   3.433
 4558TIP3   OH213616   7.575   0.829   4.610
 4558TIP3    H113617   7.579   0.876   4.526
 4558TIP3    H213618   7.482   0.813   4.624
 4559TIP3   OH213619   3.339   7.454   1.876
 4559TIP3    H113620   3.328   7.494   1.962
 4559TIP3    H213621   3.397   7.514   1.828
 4560TIP3   OH213622   1.984   1.916   6.280
 4560TIP3    H113623   1.988   1.987   6.344
 4560TIP3    H213624   2.074   1.908   6.247
 4561TIP3   OH213625   1.154   0.114   6.303
 4561TIP3    H113626   1.130   0.205   6.317
 4561TIP3    H213627   1.110   0.066   6.373
 4562TIP3   OH213628   3.161   7.177   2.774
 4562TIP3    H113629   3.074   7.200   2.805
 4562TIP3    H213630   3.146   7.129   2.693
 4563TIP3   OH213631   6.415   6.067   1.115
 4563TIP3    H113632   6.368   6.021   1.185
 4563TIP3    H213633   6.436   6.153   1.152
 4564TIP3   OH213634   3.521   0.564   0.877
 4564TIP3    H113635   3.527   0.626   0.804
 4564TIP3    H213636   3.427   0.546   0.884
 4565TIP3   OH213637   5.890   5.261   2.017
 4565TIP3    H113638   5.830   5.327   2.052
 4565TIP3    H213639   5.901   5.198   2.088
 4566TIP3   OH213640   1.833   2.759   5.866
 4566TIP3    H113641   1.751   2.778   5.910
 4566TIP3    H213642   1.826   2.668   5.838
 4567TIP3   OH213643   3.952   6.467   4.720
 4567TIP3    H113644   3.917   6.446   4.633
 4567TIP3    H213645   3.954   6.383   4.766
 4568TIP3   OH213646   3.303   0.690   2.489
 4568TIP3    H113647   3.222   0.682   2.440
 4568TIP3    H213648   3.286   0.646   2.572
 4569TIP3   OH213649   5.333   1.910   0.941
 4569TIP3    H113650   5.399   1.852   0.979
 4569TIP3    H213651   5.254   1.856   0.935
 4570TIP3   OH213652   5.102   3.802   2.062
 4570TIP3    H113653   5.145   3.870   2.010
 4570TIP3    H213654   5.173   3.760   2.110
 4571TIP3   OH213655   5.765   0.238   3.353
 4571TIP3    H113656   5.847   0.275   3.320
 4571TIP3    H213657   5.793   0.173   3.418
 4572TIP3   OH213658   4.851   4.223   5.793
 4572TIP3    H113659   4.814   4.135   5.782
 4572TIP3    H213660   4.776   4.282   5.790
 4573TIP3   OH213661   1.187   7.152   3.190
 4573TIP3    H113662   1.114   7.169   3.250
 4573TIP3    H213663   1.265   7.183   3.236
 4574TIP3   OH213664   7.181   3.918   0.202
 4574TIP3    H113665   7.109   3.857   0.184
 4574TIP3    H213666   7.138   4.003   0.211
 4575TIP3   OH213667   5.179   0.096   2.451
 4575TIP3    H113668   5.193   0.009   2.413
 4575TIP3    H213669   5.161   0.078   2.544
 4576TIP3   OH213670   5.466   2.803   0.798
 4576TIP3    H113671   5.415   2.721   0.797
 4576TIP3    H213672   5.502   2.810   0.709
 4577TIP3   OH213673   6.737   2.941   3.717
 4577TIP3    H113674   6.675   2.869   3.709
 4577TIP3    H213675   6.788   2.920   3.795
 4578TIP3   OH213676   3.894   2.037   0.585
 4578TIP3    H113677   3.892   2.012   0.678
 4578TIP3    H213678   3.962   2.105   0.581
 4579TIP3   OH213679   7.639   2.255   3.618
 4579TIP3    H113680   7.671   2.270   3.707
 4579TIP3    H213681   7.711   2.209   3.574
 4580TIP3   OH213682   2.532   6.654   2.990
 4580TIP3    H113683   2.476   6.656   2.912
 4580TIP3    H213684   2.621   6.664   2.957
 4581TIP3   OH213685   7.218   3.569   6.591
 4581TIP3    H113686   7.171   3.488   6.572
 4581TIP3    H213687   7.151   3.637   6.585
 4582TIP3   OH213688   5.439   3.625   6.455
 4582TIP3    H113689   5.514   3.662   6.501
 4582TIP3    H213690   5.450   3.653   6.364
 4583TIP3   OH213691   3.577   2.681   5.823
 4583TIP3    H113692   3.602   2.635   5.743
 4583TIP3    H213693   3.482   2.690   5.817
 4584TIP3   OH213694   2.141   2.914   1.470
 4584TIP3    H113695   2.182   2.998   1.452
 4584TIP3    H213696   2.048   2.933   1.482
 4585TIP3   OH213697   1.821   3.693   6.634
 4585TIP3    H113698   1.778   3.608   6.646
 4585TIP3    H213699   1.752   3.751   6.601
 4586TIP3   OH213700   2.954   2.852   3.125
 4586TIP3    H113701   2.927   2.900   3.046
 4586TIP3    H213702   2.936   2.760   3.104
 4587TIP3   OH213703   3.161   5.500   3.767
 4587TIP3    H113704   3.159   5.570   3.833
 4587TIP3    H213705   3.224   5.436   3.802
 4588TIP3   OH213706   6.079   1.652   2.504
 4588TIP3    H113707   6.133   1.602   2.444
 4588TIP3    H213708   6.063   1.735   2.459
 4589TIP3   OH213709   2.329   2.713   3.855
 4589TIP3    H113710   2.395   2.644   3.842
 4589TIP3    H213711   2.368   2.791   3.814
 4590TIP3   OH213712   7.079   5.369   6.164
 4590TIP3    H113713   7.039   5.284   6.185
 4590TIP3    H213714   7.114   5.357   6.076
 4591TIP3   OH213715   2.509   3.807   2.487
 4591TIP3    H113716   2.561   3.793   2.567
 4591TIP3    H213717   2.467   3.891   2.501
 4592TIP3   OH213718   2.728   0.712   5.461
 4592TIP3    H113719   2.726   0.624   5.498
 4592TIP3    H213720   2.812   0.748   5.490
 4593TIP3   OH213721   3.947   2.325   0.736
 4593TIP3    H113722   3.992   2.319   0.820
 4593TIP3    H213723   4.007   2.373   0.679
 4594TIP3   OH213724   1.412   6.328   3.624
 4594TIP3    H113725   1.359   6.405   3.644
 4594TIP3    H213726   1.394   6.310   3.531
 4595TIP3   OH213727   8.091   5.196   5.378
 4595TIP3    H113728   8.179   5.231   5.385
 4595TIP3    H213729   8.037   5.271   5.354
 4596TIP3   OH213730   4.168   4.868   5.590
 4596TIP3    H113731   4.096   4.902   5.537
 4596TIP3    H213732   4.238   4.851   5.528
 4597TIP3   OH213733   0.638   4.895   1.648
 4597TIP3    H113734   0.692   4.838   1.702
 4597TIP3    H213735   0.687   4.905   1.567
 4598TIP3   OH213736   1.017   2.679   5.078
 4598TIP3    H113737   0.927   2.705   5.057
 4598TIP3    H213738   1.012   2.642   5.166
 4599TIP3   OH213739   0.810   3.236   3.169
 4599TIP3    H113740   0.787   3.193   3.252
 4599TIP3    H213741   0.880   3.297   3.193
 4600TIP3   OH213742   5.389   5.526   1.047
 4600TIP3    H113743   5.353   5.522   0.958
 4600TIP3    H213744   5.484   5.533   1.034
 4601TIP3   OH213745   7.084   1.855   2.576
 4601TIP3    H113746   7.113   1.865   2.666
 4601TIP3    H213747   7.053   1.764   2.571
 4602TIP3   OH213748   3.489   6.609   4.804
 4602TIP3    H113749   3.570   6.560   4.816
 4602TIP3    H213750   3.470   6.644   4.891
 4603TIP3   OH213751   5.176   1.203   5.102
 4603TIP3    H113752   5.234   1.230   5.031
 4603TIP3    H213753   5.177   1.277   5.163
 4604TIP3   OH213754   6.836   3.682   2.649
 4604TIP3    H113755   6.782   3.659   2.724
 4604TIP3    H213756   6.861   3.598   2.610
 4605TIP3   OH213757   3.100   6.878   5.320
 4605TIP3    H113758   3.041   6.932   5.267
 4605TIP3    H213759   3.176   6.863   5.263
 4606TIP3   OH213760   4.976   6.463   4.629
 4606TIP3    H113761   5.058   6.469   4.581
 4606TIP3    H213762   4.917   6.416   4.570
 4607TIP3   OH213763   7.437   4.382   4.501
 4607TIP3    H113764   7.508   4.415   4.446
 4607TIP3    H213765   7.369   4.449   4.495
 4608TIP3   OH213766   0.535   0.772   4.382
 4608TIP3    H113767   0.586   0.716   4.323
 4608TIP3    H213768   0.550   0.736   4.469
 4609TIP3   OH213769   3.476   1.021   0.107
 4609TIP3    H113770   3.381   1.020   0.117
 4609TIP3    H213771   3.509   1.063   0.187
 4610TIP3   OH213772   5.442   2.773   6.027
 4610TIP3    H113773   5.515   2.741   6.080
 4610TIP3    H213774   5.401   2.841   6.081
 4611TIP3   OH213775   1.117   4.696   2.683
 4611TIP3    H113776   1.040   4.662   2.638
 4611TIP3    H213777   1.192   4.660   2.634
 4612TIP3   OH213778   6.060   5.536   4.300
 4612TIP3    H113779   6.148   5.570   4.317
 4612TIP3    H213780   6.046   5.552   4.207
 4613TIP3   OH213781   7.740   6.552   5.607
 4613TIP3    H113782   7.669   6.566   5.545
 4613TIP3    H213783   7.789   6.634   5.607
 4614TIP3   OH213784   4.349   3.501   6.752
 4614TIP3    H113785   4.346   3.513   6.657
 4614TIP3    H213786   4.380   3.412   6.764
 4615TIP3   OH213787   1.921   3.432   4.147
 4615TIP3    H113788   1.928   3.519   4.186
 4615TIP3    H213789   1.827   3.413   4.145
 4616TIP3   OH213790   7.396   2.830   2.831
 4616TIP3    H113791   7.439   2.912   2.807
 4616TIP3    H213792   7.303   2.852   2.836
 4617TIP3   OH213793   1.662   3.189   3.451
 4617TIP3    H113794   1.692   3.224   3.535
 4617TIP3    H213795   1.741   3.189   3.396
 4618TIP3   OH213796   6.262   2.853   4.253
 4618TIP3    H113797   6.280   2.798   4.178
 4618TIP3    H213798   6.326   2.827   4.319
 4619TIP3   OH213799   5.691   5.171   6.050
 4619TIP3    H113800   5.640   5.251   6.039
 4619TIP3    H213801   5.639   5.117   6.110
 4620TIP3   OH213802   4.729   5.449   5.318
 4620TIP3    H113803   4.732   5.436   5.412
 4620TIP3    H213804   4.695   5.366   5.283
 4621TIP3   OH213805   0.260   3.800   6.263
 4621TIP3    H113806   0.330   3.766   6.319
 4621TIP3    H213807   0.275   3.757   6.179
 4622TIP3   OH213808   0.008   3.423   3.661
 4622TIP3    H113809  -0.024   3.350   3.714
 4622TIP3    H213810   0.048   3.482   3.724
 4623TIP3   OH213811   1.451   4.178   1.910
 4623TIP3    H113812   1.410   4.263   1.891
 4623TIP3    H213813   1.389   4.134   1.968
 4624TIP3   OH213814   1.417   7.597   4.023
 4624TIP3    H113815   1.456   7.596   3.936
 4624TIP3    H213816   1.345   7.534   4.018
 4625TIP3   OH213817   0.582   6.749   6.456
 4625TIP3    H113818   0.586   6.768   6.550
 4625TIP3    H213819   0.618   6.827   6.414
 4626TIP3   OH213820   5.593   0.257   0.358
 4626TIP3    H113821   5.590   0.247   0.263
 4626TIP3    H213822   5.606   0.351   0.371
 4627TIP3   OH213823   3.491   0.753   0.671
 4627TIP3    H113824   3.399   0.776   0.684
 4627TIP3    H213825   3.524   0.817   0.607
 4628TIP3   OH213826   8.279   7.076   2.453
 4628TIP3    H113827   8.248   7.167   2.455
 4628TIP3    H213828   8.367   7.080   2.491
 4629TIP3   OH213829   1.312   3.191   6.278
 4629TIP3    H113830   1.321   3.184   6.183
 4629TIP3    H213831   1.340   3.280   6.298
 4630TIP3   OH213832   0.642   5.923   0.156
 4630TIP3    H113833   0.687   5.840   0.170
 4630TIP3    H213834   0.674   5.980   0.227
 4631TIP3   OH213835   0.053   3.513   6.678
 4631TIP3    H113836   0.082   3.598   6.710
 4631TIP3    H213837  -0.038   3.506   6.709
 4632TIP3   OH213838   1.817   6.881   2.981
 4632TIP3    H113839   1.737   6.833   2.959
 4632TIP3    H213840   1.846   6.918   2.898
 4633TIP3   OH213841   3.875   1.444   4.236
 4633TIP3    H113842   3.863   1.494   4.316
 4633TIP3    H213843   3.796   1.391   4.228
 4634TIP3   OH213844   1.712   0.908   6.167
 4634TIP3    H113845   1.701   0.902   6.262
 4634TIP3    H213846   1.787   0.853   6.148
 4635TIP3   OH213847   5.110   4.878   3.393
 4635TIP3    H113848   5.071   4.864   3.479
 4635TIP3    H213849   5.200   4.848   3.402
 4636TIP3   OH213850   6.964   4.236   2.954
 4636TIP3    H113851   6.927   4.323   2.965
 4636TIP3    H213852   6.927   4.185   3.026
 4637TIP3   OH213853   6.741   2.206   2.529
 4637TIP3    H113854   6.670   2.164   2.577
 4637TIP3    H213855   6.772   2.276   2.588
 4638TIP3   OH213856   2.996   6.946   2.054
 4638TIP3    H113857   2.941   6.873   2.083
 4638TIP3    H213858   2.935   7.013   2.025
 4639TIP3   OH213859   3.594   5.473   3.546
 4639TIP3    H113860   3.627   5.543   3.603
 4639TIP3    H213861   3.572   5.517   3.464
 4640TIP3   OH213862   7.259   3.197   4.211
 4640TIP3    H113863   7.263   3.180   4.305
 4640TIP3    H213864   7.220   3.119   4.173
 4641TIP3   OH213865   1.599   2.933   4.767
 4641TIP3    H113866   1.543   2.856   4.774
 4641TIP3    H213867   1.596   2.955   4.674
 4642TIP3   OH213868   2.100   0.902   0.379
 4642TIP3    H113869   2.137   0.846   0.447
 4642TIP3    H213870   2.173   0.918   0.319
 4643TIP3   OH213871   7.513   1.949   4.289
 4643TIP3    H113872   7.442   1.899   4.249
 4643TIP3    H213873   7.485   1.963   4.379
 4644TIP3   OH213874   5.510   0.662   4.134
 4644TIP3    H113875   5.523   0.641   4.041
 4644TIP3    H213876   5.580   0.616   4.179
 4645TIP3   OH213877   7.747   1.415   1.055
 4645TIP3    H113878   7.763   1.343   0.995
 4645TIP3    H213879   7.727   1.373   1.139
 4646TIP3   OH213880   1.113   4.187   6.232
 4646TIP3    H113881   1.116   4.270   6.184
 4646TIP3    H213882   1.042   4.138   6.190
 4647TIP3   OH213883   3.945   2.777   1.745
 4647TIP3    H113884   3.978   2.723   1.674
 4647TIP3    H213885   4.009   2.848   1.753
 4648TIP3   OH213886   1.618   3.596   3.534
 4648TIP3    H113887   1.696   3.652   3.540
 4648TIP3    H213888   1.624   3.539   3.611
 4649TIP3   OH213889   5.167   3.534   2.929
 4649TIP3    H113890   5.185   3.487   2.847
 4649TIP3    H213891   5.115   3.610   2.902
 4650TIP3   OH213892   0.498   3.077   4.930
 4650TIP3    H113893   0.504   3.113   4.842
 4650TIP3    H213894   0.506   3.153   4.988
 4651TIP3   OH213895   4.773   0.692   0.152
 4651TIP3    H113896   4.716   0.659   0.083
 4651TIP3    H213897   4.734   0.775   0.177
 4652TIP3   OH213898   3.737   1.584   0.539
 4652TIP3    H113899   3.737   1.628   0.624
 4652TIP3    H213900   3.829   1.567   0.520
 4653TIP3   OH213901   8.280   7.482   0.627
 4653TIP3    H113902   8.243   7.562   0.662
 4653TIP3    H213903   8.346   7.456   0.691
 4654TIP3   OH213904   0.853   6.598   2.709
 4654TIP3    H113905   0.819   6.683   2.739
 4654TIP3    H213906   0.822   6.591   2.619
 4655TIP3   OH213907   3.394   1.267   0.017
 4655TIP3    H113908   3.388   1.295  -0.074
 4655TIP3    H213909   3.446   1.187   0.015
 4656TIP3   OH213910   6.292   3.095   6.449
 4656TIP3    H113911   6.255   3.152   6.382
 4656TIP3    H213912   6.312   3.014   6.403
 4657TIP3   OH213913   6.608   4.592   4.465
 4657TIP3    H113914   6.618   4.515   4.522
 4657TIP3    H213915   6.540   4.566   4.402
 4658TIP3   OH213916   4.577   5.694   0.076
 4658TIP3    H113917   4.579   5.773   0.131
 4658TIP3    H213918   4.506   5.711   0.014
 4659TIP3   OH213919   1.773   2.503   6.097
 4659TIP3    H113920   1.830   2.436   6.134
 4659TIP3    H213921   1.708   2.519   6.165
 4660TIP3   OH213922   7.010   6.438   6.359
 4660TIP3    H113923   7.076   6.407   6.422
 4660TIP3    H213924   6.958   6.360   6.339
 4661TIP3   OH213925   8.192   3.264   5.343
 4661TIP3    H113926   8.133   3.260   5.267
 4661TIP3    H213927   8.164   3.192   5.399
 4662TIP3   OH213928   4.007   5.539   0.505
 4662TIP3    H113929   3.913   5.538   0.526
 4662TIP3    H213930   4.049   5.501   0.582
 4663TIP3   OH213931   6.052   5.042   2.552
 4663TIP3    H113932   6.067   5.089   2.634
 4663TIP3    H213933   6.021   5.110   2.492
 4664TIP3   OH213934   4.402   3.419   3.559
 4664TIP3    H113935   4.343   3.492   3.537
 4664TIP3    H213936   4.415   3.373   3.477
 4665TIP3   OH213937   3.863   5.714   0.186
 4665TIP3    H113938   3.886   5.745   0.274
 4665TIP3    H213939   3.873   5.791   0.130
 4666TIP3   OH213940   0.587   7.137   6.646
 4666TIP3    H113941   0.592   7.232   6.640
 4666TIP3    H213942   0.512   7.113   6.592
 4667TIP3   OH213943   6.558   7.802   2.944
 4667TIP3    H113944   6.542   7.708   2.939
 4667TIP3    H213945   6.564   7.831   2.853
 4668TIP3   OH213946   4.330   4.577   5.002
 4668TIP3    H113947   4.404   4.527   5.037
 4668TIP3    H213948   4.255   4.552   5.056
 4669TIP3   OH213949   2.004   7.348   3.125
 4669TIP3    H113950   1.970   7.304   3.203
 4669TIP3    H213951   1.958   7.307   3.052
 4670TIP3   OH213952   2.108   5.919   1.488
 4670TIP3    H113953   2.140   5.831   1.473
 4670TIP3    H213954   2.118   5.932   1.583
 4671TIP3   OH213955   3.710   3.628   6.705
 4671TIP3    H113956   3.724   3.565   6.634
 4671TIP3    H213957   3.637   3.590   6.756
 4672TIP3   OH213958   6.924   7.744   6.522
 4672TIP3    H113959   6.843   7.694   6.509
 4672TIP3    H213960   6.981   7.685   6.572
 4673TIP3   OH213961   0.819   2.960   4.523
 4673TIP3    H113962   0.854   2.952   4.435
 4673TIP3    H213963   0.753   2.891   4.529
 4674TIP3   OH213964   6.392   2.041   2.857
 4674TIP3    H113965   6.410   2.071   2.946
 4674TIP3    H213966   6.307   2.079   2.835
 4675TIP3   OH213967   3.332   7.574   4.731
 4675TIP3    H113968   3.249   7.565   4.684
 4675TIP3    H213969   3.362   7.662   4.709
 4676TIP3   OH213970   5.438   6.669   2.720
 4676TIP3    H113971   5.521   6.689   2.677
 4676TIP3    H213972   5.422   6.743   2.778
 4677TIP3   OH213973   2.687   2.005   4.509
 4677TIP3    H113974   2.693   2.056   4.590
 4677TIP3    H213975   2.737   1.926   4.526
 4678TIP3   OH213976   6.953   2.151   0.899
 4678TIP3    H113977   6.961   2.211   0.826
 4678TIP3    H213978   6.997   2.195   0.972
 4679TIP3   OH213979   0.313   5.552   6.564
 4679TIP3    H113980   0.352   5.468   6.541
 4679TIP3    H213981   0.384   5.600   6.607
 4680TIP3   OH213982   6.684   3.688   4.497
 4680TIP3    H113983   6.735   3.613   4.527
 4680TIP3    H213984   6.600   3.680   4.543
 4681TIP3   OH213985   5.590   2.406   5.210
 4681TIP3    H113986   5.612   2.485   5.160
 4681TIP3    H213987   5.625   2.422   5.297
 4682TIP3   OH213988   0.436   1.017   6.595
 4682TIP3    H113989   0.365   1.081   6.602
 4682TIP3    H213990   0.503   1.050   6.654
 4683TIP3   OH213991   3.713   4.583   1.713
 4683TIP3    H113992   3.807   4.602   1.719
 4683TIP3    H213993   3.708   4.508   1.654
 4684TIP3   OH213994   7.236   6.676   0.964
 4684TIP3    H113995   7.182   6.599   0.947
 4684TIP3    H213996   7.320   6.640   0.993
 4685TIP3   OH213997   3.517   1.006   4.224
 4685TIP3    H113998   3.465   1.030   4.147
 4685TIP3    H213999   3.600   0.976   4.188
 4686TIP3   OH214000   4.111   6.715   2.208
 4686TIP3    H114001   4.066   6.793   2.242
 4686TIP3    H214002   4.089   6.714   2.115
 4687TIP3   OH214003   5.875   3.745   5.633
 4687TIP3    H114004   5.807   3.702   5.685
 4687TIP3    H214005   5.934   3.674   5.607
 4688TIP3   OH214006   2.474   3.796   0.522
 4688TIP3    H114007   2.486   3.786   0.617
 4688TIP3    H214008   2.452   3.708   0.492
 4689TIP3   OH214009   2.001   1.025   1.248
 4689TIP3    H114010   2.053   1.047   1.170
 4689TIP3    H214011   1.950   0.948   1.221
 4690TIP3   OH214012   8.083   5.589   6.750
 4690TIP3    H114013   8.155   5.552   6.700
 4690TIP3    H214014   8.057   5.519   6.810
 4691TIP3   OH214015   3.294   2.598   1.123
 4691TIP3    H114016   3.269   2.528   1.182
 4691TIP3    H214017   3.212   2.638   1.096
 4692TIP3   OH214018   5.777   0.909   1.108
 4692TIP3    H114019   5.859   0.955   1.124
 4692TIP3    H214020   5.781   0.832   1.165
 4693TIP3   OH214021   4.758   0.121   6.232
 4693TIP3    H114022   4.692   0.147   6.296
 4693TIP3    H214023   4.841   0.154   6.269
 4694TIP3   OH214024   8.057   7.674   6.226
 4694TIP3    H114025   8.079   7.767   6.221
 4694TIP3    H214026   8.114   7.639   6.294
 4695TIP3   OH214027   3.209   7.667   5.304
 4695TIP3    H114028   3.116   7.688   5.295
 4695TIP3    H214029   3.242   7.666   5.214
 4696TIP3   OH214030   6.527   5.616   1.874
 4696TIP3    H114031   6.536   5.569   1.792
 4696TIP3    H214032   6.582   5.567   1.936
 4697TIP3   OH214033   6.396   3.889   0.532
 4697TIP3    H114034   6.344   3.917   0.607
 4697TIP3    H214035   6.377   3.796   0.523
 4698TIP3   OH214036   5.785   5.748   4.673
 4698TIP3    H114037   5.699   5.789   4.687
 4698TIP3    H214038   5.848   5.817   4.696
 4699TIP3   OH214039   2.513   7.238   0.435
 4699TIP3    H114040   2.457   7.278   0.368
 4699TIP3    H214041   2.515   7.303   0.506
 4700TIP3   OH214042   0.852   4.471   2.172
 4700TIP3    H114043   0.795   4.478   2.095
 4700TIP3    H214044   0.814   4.532   2.235
 4701TIP3   OH214045   6.037   0.445   6.710
 4701TIP3    H114046   6.106   0.444   6.643
 4701TIP3    H214047   6.003   0.534   6.708
 4702TIP3   OH214048   6.472   6.292   2.748
 4702TIP3    H114049   6.506   6.289   2.659
 4702TIP3    H214050   6.406   6.362   2.747
 4703TIP3   OH214051   5.385   5.274   1.590
 4703TIP3    H114052   5.346   5.222   1.660
 4703TIP3    H214053   5.429   5.346   1.635
 4704TIP3   OH214054   3.710   4.955   3.092
 4704TIP3    H114055   3.736   4.889   3.027
 4704TIP3    H214056   3.786   5.013   3.098
 4705TIP3   OH214057   6.681   4.597   2.946
 4705TIP3    H114058   6.685   4.574   2.853
 4705TIP3    H214059   6.753   4.548   2.986
 4706TIP3   OH214060   6.292   0.028   4.230
 4706TIP3    H114061   6.239  -0.030   4.286
 4706TIP3    H214062   6.336  -0.032   4.170
 4707TIP3   OH214063   4.464   2.434   5.140
 4707TIP3    H114064   4.452   2.524   5.171
 4707TIP3    H214065   4.548   2.435   5.093
 4708TIP3   OH214066   7.904   6.299   5.531
 4708TIP3    H114067   7.834   6.352   5.493
 4708TIP3    H214068   7.914   6.333   5.620
 4709TIP3   OH214069   5.480   4.989   6.096
 4709TIP3    H114070   5.386   4.983   6.078
 4709TIP3    H214071   5.520   4.994   6.009
 4710TIP3   OH214072   5.156   6.534   4.266
 4710TIP3    H114073   5.129   6.442   4.257
 4710TIP3    H214074   5.178   6.543   4.359
 4711TIP3   OH214075   5.987   1.063   1.155
 4711TIP3    H114076   5.959   1.153   1.166
 4711TIP3    H214077   6.075   1.069   1.118
 4712TIP3   OH214078   5.191   7.155   3.463
 4712TIP3    H114079   5.115   7.208   3.485
 4712TIP3    H214080   5.247   7.212   3.411
 4713TIP3   OH214081   3.049   7.790   1.503
 4713TIP3    H114082   3.103   7.711   1.505
 4713TIP3    H214083   3.099   7.856   1.551
 4714TIP3   OH214084   5.301   7.398   3.399
 4714TIP3    H114085   5.271   7.473   3.451
 4714TIP3    H214086   5.393   7.389   3.423
 4715TIP3   OH214087   4.184   0.080   6.088
 4715TIP3    H114088   4.253   0.015   6.070
 4715TIP3    H214089   4.190   0.094   6.183
 4716TIP3   OH214090   4.008   1.863   5.517
 4716TIP3    H114091   4.001   1.955   5.492
 4716TIP3    H214092   4.062   1.864   5.596
 4717TIP3   OH214093   6.751   6.222   2.011
 4717TIP3    H114094   6.685   6.227   2.080
 4717TIP3    H214095   6.719   6.154   1.951
 4718TIP3   OH214096   7.917   1.577   4.221
 4718TIP3    H114097   7.971   1.561   4.298
 4718TIP3    H214098   7.953   1.519   4.154
 4719TIP3   OH214099   2.894   5.255   1.730
 4719TIP3    H114100   2.974   5.304   1.751
 4719TIP3    H214101   2.917   5.164   1.749
 4720TIP3   OH214102   6.195   7.760   2.274
 4720TIP3    H114103   6.113   7.721   2.243
 4720TIP3    H214104   6.229   7.806   2.197
 4721TIP3   OH214105   6.967   1.962   5.621
 4721TIP3    H114106   6.986   1.905   5.547
 4721TIP3    H214107   7.029   1.934   5.689
 4722TIP3   OH214108   4.788   6.508   5.279
 4722TIP3    H114109   4.759   6.438   5.220
 4722TIP3    H214110   4.750   6.485   5.364
 4723TIP3   OH214111   5.792   5.828   4.985
 4723TIP3    H114112   5.735   5.796   5.055
 4723TIP3    H214113   5.760   5.783   4.907
 4724TIP3   OH214114   4.414   6.107   5.080
 4724TIP3    H114115   4.471   6.161   5.025
 4724TIP3    H214116   4.325   6.134   5.056
 4725TIP3   OH214117   1.773   4.887   3.125
 4725TIP3    H114118   1.716   4.946   3.174
 4725TIP3    H214119   1.845   4.942   3.096
 4726TIP3   OH214120   1.187   2.547   6.365
 4726TIP3    H114121   1.258   2.598   6.326
 4726TIP3    H214122   1.112   2.561   6.307
 4727TIP3   OH214123   1.882   2.596   3.687
 4727TIP3    H114124   1.816   2.533   3.655
 4727TIP3    H214125   1.952   2.592   3.623
 4728TIP3   OH214126   3.659   5.183   0.892
 4728TIP3    H114127   3.752   5.164   0.876
 4728TIP3    H214128   3.637   5.246   0.823
 4729TIP3   OH214129   0.218   2.510   6.139
 4729TIP3    H114130   0.167   2.474   6.212
 4729TIP3    H214131   0.309   2.491   6.161
 4730TIP3   OH214132   2.373   4.851   1.313
 4730TIP3    H114133   2.384   4.852   1.218
 4730TIP3    H214134   2.436   4.785   1.344
 4731TIP3   OH214135   5.428   1.615   2.678
 4731TIP3    H114136   5.454   1.694   2.725
 4731TIP3    H214137   5.507   1.561   2.675
 4732TIP3   OH214138   8.267   7.222   5.608
 4732TIP3    H114139   8.231   7.307   5.583
 4732TIP3    H214140   8.255   7.218   5.703
 4733TIP3   OH214141   1.096   4.818   6.450
 4733TIP3    H114142   1.012   4.787   6.483
 4733TIP3    H214143   1.147   4.739   6.435
 4734TIP3   OH214144   3.729   2.625   0.774
 4734TIP3    H114145   3.822   2.610   0.789
 4734TIP3    H214146   3.725   2.712   0.734
 4735TIP3   OH214147   6.378   1.398   6.027
 4735TIP3    H114148   6.343   1.470   6.080
 4735TIP3    H214149   6.308   1.332   6.028
 4736TIP3   OH214150   6.942   7.032   3.371
 4736TIP3    H114151   6.883   6.962   3.345
 4736TIP3    H214152   6.890   7.087   3.430
 4737TIP3   OH214153   6.847   0.683   0.641
 4737TIP3    H114154   6.886   0.749   0.584
 4737TIP3    H214155   6.871   0.710   0.730
 4738TIP3   OH214156   8.190   0.977   0.837
 4738TIP3    H114157   8.191   0.961   0.742
 4738TIP3    H214158   8.260   1.040   0.852
 4739TIP3   OH214159   2.245   3.945   3.855
 4739TIP3    H114160   2.195   3.936   3.774
 4739TIP3    H214161   2.331   3.910   3.834
 4740TIP3   OH214162   6.588   5.791   5.077
 4740TIP3    H114163   6.551   5.766   5.162
 4740TIP3    H214164   6.682   5.800   5.094
 4741TIP3   OH214165   6.305   7.258   3.971
 4741TIP3    H114166   6.383   7.211   3.943
 4741TIP3    H214167   6.232   7.200   3.947
 4742TIP3   OH214168   4.505   4.531   6.080
 4742TIP3    H114169   4.567   4.571   6.019
 4742TIP3    H214170   4.555   4.520   6.162
 4743TIP3   OH214171   7.463   6.290   0.553
 4743TIP3    H114172   7.500   6.277   0.466
 4743TIP3    H214173   7.370   6.269   0.543
 4744TIP3   OH214174   1.344   1.960   6.626
 4744TIP3    H114175   1.333   1.874   6.666
 4744TIP3    H214176   1.289   2.019   6.677
 4745TIP3   OH214177   3.758   6.732   5.795
 4745TIP3    H114178   3.682   6.678   5.814
 4745TIP3    H214179   3.726   6.822   5.802
 4746TIP3   OH214180   2.006   0.373   0.135
 4746TIP3    H114181   2.031   0.430   0.209
 4746TIP3    H214182   2.060   0.404   0.062
 4747TIP3   OH214183   2.915   3.616   0.529
 4747TIP3    H114184   2.864   3.694   0.507
 4747TIP3    H214185   2.969   3.643   0.604
 4748TIP3   OH214186   4.740   3.606   2.384
 4748TIP3    H114187   4.744   3.619   2.479
 4748TIP3    H214188   4.662   3.654   2.356
 4749TIP3   OH214189   6.200   2.361   0.177
 4749TIP3    H114190   6.265   2.431   0.184
 4749TIP3    H214191   6.167   2.350   0.266
 4750TIP3   OH214192   7.267   6.238   3.090
 4750TIP3    H114193   7.351   6.196   3.074
 4750TIP3    H214194   7.267   6.315   3.033
 4751TIP3   OH214195   0.984   0.209   0.325
 4751TIP3    H114196   0.915   0.195   0.260
 4751TIP3    H214197   1.065   0.201   0.275
 4752TIP3   OH214198   1.775   6.601   3.152
 4752TIP3    H114199   1.729   6.610   3.235
 4752TIP3    H214200   1.711   6.560   3.094
 4753TIP3   OH214201   2.807   2.044   2.953
 4753TIP3    H114202   2.738   2.111   2.956
 4753TIP3    H214203   2.767   1.967   2.993
 4754TIP3   OH214204   6.197   2.437   4.468
 4754TIP3    H114205   6.185   2.532   4.472
 4754TIP3    H214206   6.179   2.415   4.377
 4755TIP3   OH214207   6.696   0.476   1.833
 4755TIP3    H114208   6.725   0.475   1.924
 4755TIP3    H214209   6.607   0.441   1.835
 4756TIP3   OH214210   0.892   5.126   2.720
 4756TIP3    H114211   0.824   5.173   2.769
 4756TIP3    H214212   0.932   5.194   2.665
 4757TIP3   OH214213   3.530   3.210   2.921
 4757TIP3    H114214   3.487   3.290   2.953
 4757TIP3    H214215   3.622   3.223   2.942
 4758TIP3   OH214216   2.699   2.286   6.516
 4758TIP3    H114217   2.746   2.291   6.432
 4758TIP3    H214218   2.660   2.372   6.526
 4759TIP3   OH214219   1.043   2.482   3.877
 4759TIP3    H114220   1.058   2.549   3.944
 4759TIP3    H214221   1.067   2.400   3.919
 4760TIP3   OH214222   0.311   6.236   2.248
 4760TIP3    H114223   0.387   6.181   2.268
 4760TIP3    H214224   0.236   6.177   2.254
 4761TIP3   OH214225   6.896   6.440   3.575
 4761TIP3    H114226   6.829   6.377   3.547
 4761TIP3    H214227   6.975   6.415   3.527
 4762TIP3   OH214228   8.221   4.768   5.964
 4762TIP3    H114229   8.192   4.697   6.023
 4762TIP3    H214230   8.278   4.724   5.901
 4763TIP3   OH214231   4.955   5.349   2.086
 4763TIP3    H114232   4.890   5.402   2.132
 4763TIP3    H214233   4.956   5.384   1.997
 4764TIP3   OH214234   2.446   6.774   2.389
 4764TIP3    H114235   2.360   6.776   2.345
 4764TIP3    H214236   2.441   6.699   2.447
 4765TIP3   OH214237   6.334   4.288   4.799
 4765TIP3    H114238   6.247   4.263   4.832
 4765TIP3    H214239   6.379   4.205   4.786
 4766TIP3   OH214240   2.745   2.614   3.544
 4766TIP3    H114241   2.819   2.640   3.488
 4766TIP3    H214242   2.738   2.685   3.608
 4767TIP3   OH214243   4.248   2.932   5.254
 4767TIP3    H114244   4.281   2.965   5.170
 4767TIP3    H214245   4.186   2.864   5.230
 4768TIP3   OH214246   6.489   5.827   3.041
 4768TIP3    H114247   6.582   5.834   3.023
 4768TIP3    H214248   6.471   5.897   3.103
 4769TIP3   OH214249   0.239   5.892   0.879
 4769TIP3    H114250   0.246   5.937   0.963
 4769TIP3    H214251   0.330   5.872   0.856
 4770TIP3   OH214252   3.070   1.686   5.611
 4770TIP3    H114253   3.071   1.780   5.597
 4770TIP3    H214254   3.159   1.658   5.590
 4771TIP3   OH214255   5.711   4.359   3.799
 4771TIP3    H114256   5.797   4.364   3.842
 4771TIP3    H214257   5.664   4.436   3.830
 4772TIP3   OH214258   4.489   4.427   0.319
 4772TIP3    H114259   4.549   4.366   0.276
 4772TIP3    H214260   4.508   4.511   0.278
 4773TIP3   OH214261   2.308   4.803   3.134
 4773TIP3    H114262   2.356   4.771   3.057
 4773TIP3    H214263   2.218   4.773   3.119
 4774TIP3   OH214264   2.413   2.432   3.063
 4774TIP3    H114265   2.507   2.418   3.060
 4774TIP3    H214266   2.390   2.427   3.156
 4775TIP3   OH214267   1.972   2.712   2.181
 4775TIP3    H114268   1.949   2.802   2.158
 4775TIP3    H214269   2.067   2.714   2.196
 4776TIP3   OH214270   1.932   1.383   3.672
 4776TIP3    H114271   1.949   1.353   3.582
 4776TIP3    H214272   1.893   1.307   3.715
 4777TIP3   OH214273   4.024   0.672   6.133
 4777TIP3    H114274   3.943   0.636   6.099
 4777TIP3    H214275   4.091   0.643   6.070
 4778TIP3   OH214276   2.441   7.385   2.521
 4778TIP3    H114277   2.449   7.346   2.608
 4778TIP3    H214278   2.355   7.357   2.490
 4779TIP3   OH214279   6.079   1.560   4.443
 4779TIP3    H114280   6.111   1.472   4.425
 4779TIP3    H214281   6.051   1.559   4.534
 4780TIP3   OH214282   6.674   2.689   2.694
 4780TIP3    H114283   6.594   2.639   2.678
 4780TIP3    H214284   6.643   2.771   2.733
 4781TIP3   OH214285   3.606   7.495   5.390
 4781TIP3    H114286   3.637   7.468   5.303
 4781TIP3    H214287   3.513   7.472   5.390
 4782TIP3   OH214288   7.888   0.359   3.175
 4782TIP3    H114289   7.933   0.275   3.190
 4782TIP3    H214290   7.814   0.358   3.235
 4783TIP3   OH214291   7.687   1.140   2.198
 4783TIP3    H114292   7.675   1.181   2.112
 4783TIP3    H214293   7.621   1.181   2.253
 4784TIP3   OH214294   4.125   7.362   4.421
 4784TIP3    H114295   4.214   7.384   4.446
 4784TIP3    H214296   4.070   7.415   4.478
 4785TIP3   OH214297   8.175   1.856   0.050
 4785TIP3    H114298   8.122   1.888   0.123
 4785TIP3    H214299   8.246   1.807   0.091
 4786TIP3   OH214300   7.500   5.641   0.126
 4786TIP3    H114301   7.484   5.553   0.092
 4786TIP3    H214302   7.580   5.633   0.178
 4787TIP3   OH214303   0.551   3.419   5.992
 4787TIP3    H114304   0.517   3.378   5.912
 4787TIP3    H214305   0.475   3.427   6.049
 4788TIP3   OH214306   4.028   0.861   0.344
 4788TIP3    H114307   4.071   0.810   0.275
 4788TIP3    H214308   4.095   0.870   0.412
 4789TIP3   OH214309   4.281   6.918   2.744
 4789TIP3    H114310   4.273   6.947   2.653
 4789TIP3    H214311   4.205   6.861   2.757
 4790TIP3   OH214312   0.444   5.139   5.646
 4790TIP3    H114313   0.465   5.103   5.560
 4790TIP3    H214314   0.380   5.077   5.683
 4791TIP3   OH214315   3.238   4.866   3.343
 4791TIP3    H114316   3.233   4.866   3.439
 4791TIP3    H214317   3.230   4.773   3.320
 4792TIP3   OH214318   4.837   7.714   6.686
 4792TIP3    H114319   4.769   7.770   6.648
 4792TIP3    H214320   4.887   7.683   6.611
 4793TIP3   OH214321   1.206   2.213   3.765
 4793TIP3    H114322   1.241   2.190   3.852
 4793TIP3    H214323   1.120   2.172   3.763
 4794TIP3   OH214324   6.082   3.302   4.258
 4794TIP3    H114325   6.126   3.267   4.180
 4794TIP3    H214326   6.065   3.393   4.237
 4795TIP3   OH214327   3.346   2.215   0.456
 4795TIP3    H114328   3.297   2.133   0.466
 4795TIP3    H214329   3.298   2.279   0.509
 4796TIP3   OH214330   1.138   3.626   5.753
 4796TIP3    H114331   1.055   3.577   5.757
 4796TIP3    H214332   1.119   3.710   5.794
 4797TIP3   OH214333   7.194   3.446   4.176
 4797TIP3    H114334   7.251   3.497   4.119
 4797TIP3    H214335   7.217   3.355   4.157
 4798TIP3   OH214336   4.779   6.109   0.715
 4798TIP3    H114337   4.859   6.161   0.709
 4798TIP3    H214338   4.809   6.018   0.716
 4799TIP3   OH214339   3.122   5.032   0.166
 4799TIP3    H114340   3.072   5.027   0.247
 4799TIP3    H214341   3.204   5.075   0.190
 4800TIP3   OH214342   1.484   3.601   4.870
 4800TIP3    H114343   1.506   3.595   4.963
 4800TIP3    H214344   1.560   3.643   4.830
 4801TIP3   OH214345   2.074   5.088   2.318
 4801TIP3    H114346   2.051   5.010   2.269
 4801TIP3    H214347   2.004   5.150   2.298
 4802TIP3   OH214348   8.288   6.657   0.617
 4802TIP3    H114349   8.373   6.633   0.579
 4802TIP3    H214350   8.229   6.588   0.588
 4803TIP3   OH214351   1.129   3.675   1.794
 4803TIP3    H114352   1.053   3.729   1.772
 4803TIP3    H214353   1.144   3.690   1.887
 4804TIP3   OH214354   7.200   7.475   4.344
 4804TIP3    H114355   7.141   7.458   4.271
 4804TIP3    H214356   7.148   7.456   4.423
 4805TIP3   OH214357   6.918   3.165   0.268
 4805TIP3    H114358   6.912   3.171   0.173
 4805TIP3    H214359   7.009   3.142   0.285
 4806TIP3   OH214360   3.088   3.896   5.615
 4806TIP3    H114361   3.063   3.938   5.532
 4806TIP3    H214362   3.046   3.950   5.682
 4807TIP3   OH214363   2.784   6.082   4.606
 4807TIP3    H114364   2.729   6.093   4.529
 4807TIP3    H214365   2.768   5.991   4.634
 4808TIP3   OH214366   7.089   1.478   3.798
 4808TIP3    H114367   7.117   1.428   3.722
 4808TIP3    H214368   7.051   1.413   3.857
 4809TIP3   OH214369   7.670   0.520   0.699
 4809TIP3    H114370   7.693   0.592   0.758
 4809TIP3    H214371   7.581   0.496   0.724
 4810TIP3   OH214372   0.546   4.635   3.415
 4810TIP3    H114373   0.597   4.711   3.385
 4810TIP3    H214374   0.455   4.659   3.397
 4811TIP3   OH214375   3.173   5.741   3.961
 4811TIP3    H114376   3.219   5.817   3.927
 4811TIP3    H214377   3.081   5.755   3.938
 4812TIP3   OH214378   7.330   7.782   3.026
 4812TIP3    H114379   7.403   7.832   2.988
 4812TIP3    H214380   7.372   7.703   3.060
 4813TIP3   OH214381   3.307   6.677   3.729
 4813TIP3    H114382   3.386   6.660   3.779
 4813TIP3    H214383   3.291   6.771   3.738
 4814TIP3   OH214384   3.364   1.572   2.652
 4814TIP3    H114385   3.344   1.597   2.742
 4814TIP3    H214386   3.283   1.589   2.604
 4815TIP3   OH214387   1.336   3.660   0.577
 4815TIP3    H114388   1.325   3.573   0.616
 4815TIP3    H214389   1.312   3.721   0.647
 4816TIP3   OH214390   2.016   7.423   3.799
 4816TIP3    H114391   1.993   7.337   3.834
 4816TIP3    H214392   2.017   7.480   3.876
 4817TIP3   OH214393   6.720   5.915   2.868
 4817TIP3    H114394   6.643   5.871   2.831
 4817TIP3    H214395   6.791   5.851   2.859
 4818TIP3   OH214396   6.523   5.866   4.314
 4818TIP3    H114397   6.574   5.788   4.338
 4818TIP3    H214398   6.460   5.834   4.249
 4819TIP3   OH214399   7.074   4.937   5.852
 4819TIP3    H114400   7.055   5.031   5.853
 4819TIP3    H214401   6.989   4.895   5.838
 4820TIP3   OH214402   2.202   5.437   3.436
 4820TIP3    H114403   2.248   5.516   3.464
 4820TIP3    H214404   2.269   5.369   3.434
 4821TIP3   OH214405   1.726   5.832   6.351
 4821TIP3    H114406   1.643   5.876   6.372
 4821TIP3    H214407   1.700   5.741   6.333
 4822TIP3   OH214408   0.551   1.338   1.858
 4822TIP3    H114409   0.475   1.369   1.809
 4822TIP3    H214410   0.539   1.243   1.861
 4823TIP3   OH214411   7.017   7.552   2.261
 4823TIP3    H114412   7.108   7.530   2.279
 4823TIP3    H214413   7.014   7.648   2.263
 4824TIP3   OH214414   3.460   0.526   5.756
 4824TIP3    H114415   3.505   0.469   5.819
 4824TIP3    H214416   3.439   0.468   5.683
 4825TIP3   OH214417   7.326   5.932   0.530
 4825TIP3    H114418   7.263   5.860   0.532
 4825TIP3    H214419   7.407   5.893   0.561
 4826TIP3   OH214420   5.627   7.460   6.289
 4826TIP3    H114421   5.618   7.549   6.256
 4826TIP3    H214422   5.707   7.461   6.342
 4827TIP3   OH214423   3.642   7.135   5.247
 4827TIP3    H114424   3.629   7.116   5.154
 4827TIP3    H214425   3.553   7.147   5.282
 4828TIP3   OH214426   2.641   0.943   3.914
 4828TIP3    H114427   2.624   1.032   3.883
 4828TIP3    H214428   2.583   0.888   3.861
 4829TIP3   OH214429   3.515   6.191   2.919
 4829TIP3    H114430   3.449   6.160   2.981
 4829TIP3    H214431   3.469   6.195   2.835
 4830TIP3   OH214432   6.027   6.903   2.273
 4830TIP3    H114433   5.971   6.923   2.198
 4830TIP3    H214434   5.992   6.957   2.344
 4831TIP3   OH214435   6.714   7.619   6.413
 4831TIP3    H114436   6.694   7.650   6.325
 4831TIP3    H214437   6.629   7.606   6.454
 4832TIP3   OH214438   7.978   4.004   3.925
 4832TIP3    H114439   7.963   4.078   3.865
 4832TIP3    H214440   7.922   3.934   3.892
 4833TIP3   OH214441   6.957   1.278   2.547
 4833TIP3    H114442   6.981   1.202   2.600
 4833TIP3    H214443   6.862   1.275   2.542
 4834TIP3   OH214444   2.436   1.191   5.278
 4834TIP3    H114445   2.344   1.168   5.281
 4834TIP3    H214446   2.453   1.234   5.362
 4835TIP3   OH214447   1.959   7.810   5.320
 4835TIP3    H114448   1.901   7.780   5.390
 4835TIP3    H214449   1.952   7.743   5.252
 4836TIP3   OH214450   3.376   0.077   0.076
 4836TIP3    H114451   3.319   0.079   0.152
 4836TIP3    H214452   3.465   0.084   0.112
 4837TIP3   OH214453   1.307   4.706   4.673
 4837TIP3    H114454   1.317   4.791   4.629
 4837TIP3    H214455   1.249   4.655   4.616
 4838TIP3   OH214456   2.440   6.180   1.271
 4838TIP3    H114457   2.356   6.142   1.297
 4838TIP3    H214458   2.485   6.110   1.224
 4839TIP3   OH214459   6.770   6.617   0.661
 4839TIP3    H114460   6.678   6.591   0.653
 4839TIP3    H214461   6.767   6.708   0.693
 4840TIP3   OH214462   5.700   1.315   4.858
 4840TIP3    H114463   5.660   1.381   4.915
 4840TIP3    H214464   5.627   1.257   4.834
 4841TIP3   OH214465   7.747   3.764   5.273
 4841TIP3    H114466   7.706   3.727   5.195
 4841TIP3    H214467   7.827   3.805   5.241
 4842TIP3   OH214468   5.423   7.349   5.047
 4842TIP3    H114469   5.439   7.433   5.091
 4842TIP3    H214470   5.328   7.346   5.036
 4843TIP3   OH214471   3.670   6.819   0.336
 4843TIP3    H114472   3.662   6.882   0.407
 4843TIP3    H214473   3.759   6.830   0.304
 4844TIP3   OH214474   5.691   1.872   3.237
 4844TIP3    H114475   5.770   1.860   3.185
 4844TIP3    H214476   5.660   1.783   3.254
 4845TIP3   OH214477   2.458   5.503   3.192
 4845TIP3    H114478   2.457   5.484   3.286
 4845TIP3    H214479   2.409   5.430   3.152
 4846TIP3   OH214480   0.671   2.753   3.013
 4846TIP3    H114481   0.729   2.718   3.080
 4846TIP3    H214482   0.728   2.802   2.954
 4847TIP3   OH214483   5.245   1.051   2.155
 4847TIP3    H114484   5.263   1.122   2.217
 4847TIP3    H214485   5.217   1.095   2.075
 4848TIP3   OH214486   2.305   7.400   3.870
 4848TIP3    H114487   2.219   7.402   3.830
 4848TIP3    H214488   2.300   7.463   3.942
 4849TIP3   OH214489   1.301   3.498   1.175
 4849TIP3    H114490   1.389   3.474   1.202
 4849TIP3    H214491   1.262   3.416   1.144
 4850TIP3   OH214492   8.138   6.731   5.587
 4850TIP3    H114493   8.216   6.783   5.606
 4850TIP3    H214494   8.165   6.641   5.603
 4851TIP3   OH214495   4.066   4.408   0.625
 4851TIP3    H114496   3.980   4.446   0.640
 4851TIP3    H214497   4.110   4.468   0.565
 4852TIP3   OH214498   5.196   2.886   2.633
 4852TIP3    H114499   5.118   2.914   2.681
 4852TIP3    H214500   5.254   2.963   2.635
 4853TIP3   OH214501   7.684   1.103   3.655
 4853TIP3    H114502   7.727   1.185   3.631
 4853TIP3    H214503   7.737   1.068   3.726
 4854TIP3   OH214504   8.179   4.619   5.490
 4854TIP3    H114505   8.267   4.605   5.453
 4854TIP3    H214506   8.139   4.532   5.488
 4855TIP3   OH214507   5.852   6.885   0.324
 4855TIP3    H114508   5.933   6.864   0.279
 4855TIP3    H214509   5.786   6.885   0.255
 4856TIP3   OH214510   2.288   2.474   5.263
 4856TIP3    H114511   2.311   2.387   5.297
 4856TIP3    H214512   2.216   2.503   5.320
 4857TIP3   OH214513   6.207   4.460   4.431
 4857TIP3    H114514   6.150   4.436   4.505
 4857TIP3    H214515   6.263   4.383   4.418
 4858TIP3   OH214516   8.056   2.934   0.825
 4858TIP3    H114517   7.960   2.929   0.822
 4858TIP3    H214518   8.085   2.876   0.754
 4859TIP3   OH214519   3.545   3.687   0.751
 4859TIP3    H114520   3.601   3.615   0.780
 4859TIP3    H214521   3.558   3.691   0.656
 4860TIP3   OH214522   2.846   4.478   5.848
 4860TIP3    H114523   2.832   4.386   5.826
 4860TIP3    H214524   2.787   4.495   5.921
 4861TIP3   OH214525   6.688   5.256   1.589
 4861TIP3    H114526   6.765   5.229   1.639
 4861TIP3    H214527   6.681   5.192   1.519
 4862TIP3   OH214528   2.179   4.692   6.307
 4862TIP3    H114529   2.159   4.603   6.279
 4862TIP3    H214530   2.169   4.745   6.228
 4863TIP3   OH214531   5.658   6.461   6.507
 4863TIP3    H114532   5.670   6.376   6.464
 4863TIP3    H214533   5.587   6.446   6.570
 4864TIP3   OH214534   6.456   1.006   4.338
 4864TIP3    H114535   6.539   1.013   4.291
 4864TIP3    H214536   6.393   1.049   4.280
 4865TIP3   OH214537   3.807   4.727   0.421
 4865TIP3    H114538   3.802   4.796   0.355
 4865TIP3    H214539   3.887   4.679   0.401
 4866TIP3   OH214540   1.421   1.368   4.213
 4866TIP3    H114541   1.332   1.340   4.188
 4866TIP3    H214542   1.434   1.449   4.164
 4867TIP3   OH214543   2.951   4.897   6.704
 4867TIP3    H114544   2.965   4.973   6.762
 4867TIP3    H214545   2.931   4.936   6.619
 4868TIP3   OH214546   6.157   0.024   0.979
 4868TIP3    H114547   6.197   0.103   1.016
 4868TIP3    H214548   6.063   0.036   0.994
 4869TIP3   OH214549   0.701   0.946   2.355
 4869TIP3    H114550   0.693   0.958   2.450
 4869TIP3    H214551   0.753   0.866   2.346
 4870TIP3   OH214552   1.653   2.141   4.505
 4870TIP3    H114553   1.706   2.180   4.576
 4870TIP3    H214554   1.718   2.103   4.446
 4871TIP3   OH214555   3.700   4.655   5.401
 4871TIP3    H114556   3.695   4.744   5.365
 4871TIP3    H214557   3.626   4.650   5.462
 4872TIP3   OH214558   4.657   0.833   0.521
 4872TIP3    H114559   4.642   0.915   0.568
 4872TIP3    H214560   4.742   0.802   0.554
 4873TIP3   OH214561   4.843   5.143   5.497
 4873TIP3    H114562   4.915   5.162   5.557
 4873TIP3    H214563   4.773   5.109   5.553
 4874TIP3   OH214564   8.276   1.989   5.977
 4874TIP3    H114565   8.286   1.936   6.056
 4874TIP3    H214566   8.257   1.926   5.908
 4875TIP3   OH214567   7.566   2.837   6.480
 4875TIP3    H114568   7.607   2.869   6.561
 4875TIP3    H214569   7.479   2.808   6.507
 4876TIP3   OH214570   2.856   3.552   0.150
 4876TIP3    H114571   2.823   3.493   0.218
 4876TIP3    H214572   2.948   3.565   0.172
 4877TIP3   OH214573   0.905   0.360   5.640
 4877TIP3    H114574   0.933   0.281   5.686
 4877TIP3    H214575   0.843   0.402   5.700
 4878TIP3   OH214576   7.882   5.215   3.728
 4878TIP3    H114577   7.927   5.236   3.809
 4878TIP3    H214578   7.817   5.284   3.718
 4879TIP3   OH214579   7.764   5.067   3.362
 4879TIP3    H114580   7.787   5.159   3.353
 4879TIP3    H214581   7.715   5.062   3.444
 4880TIP3   OH214582   6.571   0.904   5.473
 4880TIP3    H114583   6.549   0.963   5.545
 4880TIP3    H214584   6.667   0.906   5.470
 4881TIP3   OH214585   3.987   3.543   3.303
 4881TIP3    H114586   3.938   3.463   3.283
 4881TIP3    H214587   4.015   3.531   3.394
 4882TIP3   OH214588   7.363   2.102   2.707
 4882TIP3    H114589   7.270   2.084   2.716
 4882TIP3    H214590   7.377   2.111   2.613
 4883TIP3   OH214591   4.886   2.106   6.152
 4883TIP3    H114592   4.818   2.171   6.167
 4883TIP3    H214593   4.892   2.057   6.234
 4884TIP3   OH214594   6.675   4.236   0.757
 4884TIP3    H114595   6.645   4.323   0.731
 4884TIP3    H214596   6.761   4.251   0.797
 4885TIP3   OH214597   3.558   1.730   4.771
 4885TIP3    H114598   3.463   1.740   4.773
 4885TIP3    H214599   3.591   1.819   4.777
 4886TIP3   OH214600   8.177   3.557   2.464
 4886TIP3    H114601   8.244   3.624   2.456
 4886TIP3    H214602   8.226   3.476   2.481
 4887TIP3   OH214603   3.510   6.336   3.642
 4887TIP3    H114604   3.502   6.425   3.675
 4887TIP3    H214605   3.454   6.284   3.699
 4888TIP3   OH214606   7.633   7.726   2.167
 4888TIP3    H114607   7.548   7.686   2.189
 4888TIP3    H214608   7.610   7.803   2.116
 4889TIP3   OH214609   2.208   2.564   4.943
 4889TIP3    H114610   2.137   2.525   4.994
 4889TIP3    H214611   2.283   2.564   5.002
 4890TIP3   OH214612   6.144   4.265   5.523
 4890TIP3    H114613   6.116   4.351   5.490
 4890TIP3    H214614   6.064   4.227   5.559
 4891TIP3   OH214615   7.073   4.386   0.086
 4891TIP3    H114616   7.161   4.365   0.118
 4891TIP3    H214617   7.087   4.449   0.015
 4892TIP3   OH214618   5.516   4.410   2.799
 4892TIP3    H114619   5.455   4.347   2.761
 4892TIP3    H214620   5.545   4.463   2.724
 4893TIP3   OH214621   5.037   7.326   4.055
 4893TIP3    H114622   5.072   7.298   3.970
 4893TIP3    H214623   4.954   7.279   4.064
 4894TIP3   OH214624   0.722   0.186   0.709
 4894TIP3    H114625   0.793   0.131   0.742
 4894TIP3    H214626   0.684   0.225   0.788
 4895TIP3   OH214627   1.014   5.804   4.556
 4895TIP3    H114628   1.104   5.832   4.543
 4895TIP3    H214629   0.983   5.855   4.631
 4896TIP3   OH214630   3.687   7.379   3.402
 4896TIP3    H114631   3.754   7.445   3.422
 4896TIP3    H214632   3.737   7.304   3.369
 4897TIP3   OH214633   2.505   3.780   4.210
 4897TIP3    H114634   2.575   3.722   4.181
 4897TIP3    H214635   2.442   3.778   4.138
 4898TIP3   OH214636   5.199   1.089   3.953
 4898TIP3    H114637   5.292   1.067   3.951
 4898TIP3    H214638   5.185   1.141   3.874
 4899TIP3   OH214639   7.699   6.506   0.368
 4899TIP3    H114640   7.733   6.583   0.413
 4899TIP3    H214641   7.684   6.534   0.278
 4900TIP3   OH214642   0.178   6.758   0.217
 4900TIP3    H114643   0.149   6.829   0.275
 4900TIP3    H214644   0.103   6.742   0.159
 4901TIP3   OH214645   3.791   0.220   0.200
 4901TIP3    H114646   3.798   0.243   0.107
 4901TIP3    H214647   3.882   0.214   0.229
 4902TIP3   OH214648   5.913   4.739   2.854
 4902TIP3    H114649   5.867   4.821   2.837
 4902TIP3    H214650   5.988   4.740   2.794
 4903TIP3   OH214651   4.833   1.752   5.845
 4903TIP3    H114652   4.928   1.757   5.834
 4903TIP3    H214653   4.818   1.667   5.886
 4904TIP3   OH214654   6.922   7.374   6.107
 4904TIP3    H114655   6.932   7.467   6.127
 4904TIP3    H214656   6.997   7.353   6.051
 4905TIP3   OH214657   4.646   6.358   3.932
 4905TIP3    H114658   4.726   6.315   3.962
 4905TIP3    H214659   4.632   6.428   3.997
 4906TIP3   OH214660   3.823   7.244   5.409
 4906TIP3    H114661   3.848   7.211   5.495
 4906TIP3    H214662   3.738   7.203   5.391
 4907TIP3   OH214663   4.365   5.996   6.399
 4907TIP3    H114664   4.304   6.007   6.473
 4907TIP3    H214665   4.405   6.082   6.389
 4908TIP3   OH214666   0.567   4.256   4.938
 4908TIP3    H114667   0.635   4.288   4.997
 4908TIP3    H214668   0.507   4.331   4.927
 4909TIP3   OH214669   6.285   7.347   6.541
 4909TIP3    H114670   6.201   7.315   6.510
 4909TIP3    H214671   6.329   7.270   6.576
 4910TIP3   OH214672   4.505   2.967   3.444
 4910TIP3    H114673   4.590   2.973   3.487
 4910TIP3    H214674   4.442   2.993   3.511
 4911TIP3   OH214675   2.096   6.557   2.696
 4911TIP3    H114676   2.067   6.589   2.781
 4911TIP3    H214677   2.191   6.551   2.703
 4912TIP3   OH214678   2.367   5.301   2.556
 4912TIP3    H114679   2.331   5.386   2.584
 4912TIP3    H214680   2.428   5.323   2.486
 4913TIP3   OH214681   1.024   0.169   6.621
 4913TIP3    H114682   0.999   0.080   6.646
 4913TIP3    H214683   0.945   0.221   6.635
 4914TIP3   OH214684   1.346   4.517   4.896
 4914TIP3    H114685   1.350   4.562   4.812
 4914TIP3    H214686   1.337   4.587   4.960
 4915TIP3   OH214687   3.352   7.775   0.729
 4915TIP3    H114688   3.337   7.776   0.823
 4915TIP3    H214689   3.323   7.861   0.699
 4916TIP3   OH214690   7.573   4.827   2.050
 4916TIP3    H114691   7.604   4.737   2.049
 4916TIP3    H214692   7.620   4.868   2.122
 4917TIP3   OH214693   5.303   4.997   0.234
 4917TIP3    H114694   5.221   4.994   0.184
 4917TIP3    H214695   5.357   4.928   0.195
 4918TIP3   OH214696   1.805   4.326   5.215
 4918TIP3    H114697   1.779   4.305   5.125
 4918TIP3    H214698   1.811   4.421   5.217
 4919TIP3   OH214699   3.927   1.831   4.239
 4919TIP3    H114700   3.962   1.766   4.178
 4919TIP3    H214701   3.832   1.824   4.231
 4920TIP3   OH214702   4.294   0.778   4.168
 4920TIP3    H114703   4.234   0.827   4.112
 4920TIP3    H214704   4.365   0.840   4.187
 4921TIP3   OH214705   5.360   4.413   3.884
 4921TIP3    H114706   5.367   4.465   3.964
 4921TIP3    H214707   5.393   4.327   3.908
 4922TIP3   OH214708   7.391   3.473   6.058
 4922TIP3    H114709   7.353   3.487   6.144
 4922TIP3    H214710   7.321   3.434   6.006
 4923TIP3   OH214711   1.934   5.529   2.178
 4923TIP3    H114712   2.029   5.541   2.175
 4923TIP3    H214713   1.899   5.603   2.129
 4924TIP3   OH214714   2.541   3.197   4.709
 4924TIP3    H114715   2.612   3.213   4.647
 4924TIP3    H214716   2.481   3.271   4.697
 4925TIP3   OH214717   5.250   7.776   4.394
 4925TIP3    H114718   5.313   7.846   4.381
 4925TIP3    H214719   5.272   7.711   4.327
 4926TIP3   OH214720   5.346   7.549   4.252
 4926TIP3    H114721   5.356   7.552   4.157
 4926TIP3    H214722   5.434   7.529   4.285
 4927TIP3   OH214723   2.757   1.568   5.928
 4927TIP3    H114724   2.763   1.607   6.016
 4927TIP3    H214725   2.844   1.533   5.911
 4928TIP3   OH214726   5.554   4.075   0.844
 4928TIP3    H114727   5.494   4.075   0.770
 4928TIP3    H214728   5.598   4.160   0.840
 4929TIP3   OH214729   2.638   3.099   2.488
 4929TIP3    H114730   2.609   3.060   2.571
 4929TIP3    H214731   2.616   3.192   2.496
 4930TIP3   OH214732   7.087   0.931   5.188
 4930TIP3    H114733   7.082   0.836   5.198
 4930TIP3    H214734   7.140   0.961   5.261
 4931TIP3   OH214735   5.194   5.734   3.231
 4931TIP3    H114736   5.158   5.776   3.153
 4931TIP3    H214737   5.126   5.745   3.298
 4932TIP3   OH214738   7.666   5.701   1.912
 4932TIP3    H114739   7.633   5.690   1.823
 4932TIP3    H214740   7.716   5.621   1.929
 4933TIP3   OH214741   0.197   2.570   5.363
 4933TIP3    H114742   0.204   2.605   5.452
 4933TIP3    H214743   0.127   2.621   5.323
 4934TIP3   OH214744   1.598   1.611   1.588
 4934TIP3    H114745   1.523   1.626   1.645
 4934TIP3    H214746   1.607   1.516   1.585
 4935TIP3   OH214747   2.110   5.568   0.895
 4935TIP3    H114748   2.018   5.595   0.887
 4935TIP3    H214749   2.135   5.595   0.983
 4936TIP3   OH214750   6.646   1.233   3.276
 4936TIP3    H114751   6.728   1.279   3.294
 4936TIP3    H214752   6.598   1.236   3.359
 4937TIP3   OH214753   5.602   4.235   5.470
 4937TIP3    H114754   5.561   4.222   5.385
 4937TIP3    H214755   5.635   4.325   5.467
 4938TIP3   OH214756   6.166   2.436   1.471
 4938TIP3    H114757   6.251   2.458   1.433
 4938TIP3    H214758   6.102   2.465   1.406
 4939TIP3   OH214759   7.375   5.437   4.562
 4939TIP3    H114760   7.370   5.420   4.656
 4939TIP3    H214761   7.441   5.375   4.530
 4940TIP3   OH214762   7.653   1.774   2.094
 4940TIP3    H114763   7.558   1.791   2.095
 4940TIP3    H214764   7.659   1.679   2.096
 4941TIP3   OH214765   7.834   4.824   1.476
 4941TIP3    H114766   7.828   4.843   1.570
 4941TIP3    H214767   7.914   4.868   1.448
 4942TIP3   OH214768   2.493   5.321   0.961
 4942TIP3    H114769   2.533   5.384   1.021
 4942TIP3    H214770   2.564   5.264   0.935
 4943TIP3   OH214771   4.475   6.847   2.039
 4943TIP3    H114772   4.452   6.940   2.030
 4943TIP3    H214773   4.571   6.847   2.038
 4944TIP3   OH214774   1.504   2.889   2.054
 4944TIP3    H114775   1.465   2.802   2.053
 4944TIP3    H214776   1.590   2.877   2.013
 4945TIP3   OH214777   5.045   2.028   5.200
 4945TIP3    H114778   4.962   2.028   5.246
 4945TIP3    H214779   5.109   2.058   5.265
 4946TIP3   OH214780   0.734   0.896   5.101
 4946TIP3    H114781   0.738   0.932   5.012
 4946TIP3    H214782   0.800   0.827   5.102
 4947TIP3   OH214783   0.928   4.160   3.330
 4947TIP3    H114784   0.926   4.140   3.237
 4947TIP3    H214785   0.991   4.097   3.367
 4948TIP3   OH214786   6.703   6.902   6.194
 4948TIP3    H114787   6.760   6.828   6.212
 4948TIP3    H214788   6.744   6.976   6.239
 4949TIP3   OH214789   3.015   5.528   1.474
 4949TIP3    H114790   3.069   5.605   1.456
 4949TIP3    H214791   3.067   5.454   1.441
 4950TIP3   OH214792   2.894   7.615   4.130
 4950TIP3    H114793   2.952   7.687   4.104
 4950TIP3    H214794   2.947   7.564   4.192
 4951TIP3   OH214795   4.525   1.019   5.696
 4951TIP3    H114796   4.581   1.027   5.773
 4951TIP3    H214797   4.571   1.068   5.627
 4952TIP3   OH214798   6.176   2.560   1.747
 4952TIP3    H114799   6.157   2.511   1.667
 4952TIP3    H214800   6.253   2.613   1.725
 4953TIP3   OH214801   8.280   2.149   2.737
 4953TIP3    H114802   8.237   2.230   2.713
 4953TIP3    H214803   8.240   2.125   2.821
 4954TIP3   OH214804   6.595   5.813   4.809
 4954TIP3    H114805   6.575   5.806   4.902
 4954TIP3    H214806   6.616   5.906   4.796
 4955TIP3   OH214807   8.084   0.250   3.525
 4955TIP3    H114808   8.106   0.325   3.469
 4955TIP3    H214809   8.167   0.225   3.565
 4956TIP3   OH214810   2.199   0.695   3.783
 4956TIP3    H114811   2.112   0.661   3.763
 4956TIP3    H214812   2.184   0.779   3.824
 4957TIP3   OH214813   4.296   6.437   1.415
 4957TIP3    H114814   4.271   6.349   1.444
 4957TIP3    H214815   4.354   6.422   1.341
 4958TIP3   OH214816   8.038   7.017   5.426
 4958TIP3    H114817   7.972   7.037   5.492
 4958TIP3    H214818   8.064   7.102   5.392
 4959TIP3   OH214819   3.098   2.990   3.673
 4959TIP3    H114820   3.169   2.984   3.737
 4959TIP3    H214821   3.134   3.044   3.602
 4960TIP3   OH214822   7.823   7.352   6.345
 4960TIP3    H114823   7.733   7.384   6.358
 4960TIP3    H214824   7.829   7.275   6.401
 4961TIP3   OH214825   3.116   5.519   1.063
 4961TIP3    H114826   3.108   5.482   0.975
 4961TIP3    H214827   3.176   5.459   1.109
 4962TIP3   OH214828   3.227   5.313   0.011
 4962TIP3    H114829   3.188   5.384  -0.040
 4962TIP3    H214830   3.304   5.288  -0.039
 4963TIP3   OH214831   5.257   4.592   2.540
 4963TIP3    H114832   5.276   4.674   2.586
 4963TIP3    H214833   5.161   4.591   2.532
 4964TIP3   OH214834   7.259   1.142   4.367
 4964TIP3    H114835   7.199   1.137   4.442
 4964TIP3    H214836   7.256   1.234   4.341
 4965TIP3   OH214837   6.666   2.652   3.691
 4965TIP3    H114838   6.742   2.646   3.748
 4965TIP3    H214839   6.691   2.601   3.613
 4966TIP3   OH214840   4.357   2.022   0.487
 4966TIP3    H114841   4.326   1.961   0.419
 4966TIP3    H214842   4.410   1.967   0.545
 4967TIP3   OH214843   0.006   7.582   2.501
 4967TIP3    H114844   0.064   7.628   2.441
 4967TIP3    H214845  -0.080   7.624   2.489
 4968TIP3   OH214846   0.481   1.583   6.288
 4968TIP3    H114847   0.522   1.669   6.283
 4968TIP3    H214848   0.389   1.601   6.303
 4969TIP3   OH214849   0.816   4.819   2.102
 4969TIP3    H114850   0.804   4.879   2.175
 4969TIP3    H214851   0.908   4.827   2.078
 4970TIP3   OH214852   0.407   4.269   1.178
 4970TIP3    H114853   0.342   4.262   1.108
 4970TIP3    H214854   0.486   4.301   1.133
 4971TIP3   OH214855   6.924   4.719   5.031
 4971TIP3    H114856   6.836   4.723   5.068
 4971TIP3    H214857   6.972   4.658   5.087
 4972TIP3   OH214858   1.267   7.469   1.460
 4972TIP3    H114859   1.347   7.426   1.429
 4972TIP3    H214860   1.206   7.398   1.476
 4973TIP3   OH214861   4.012   3.784   5.214
 4973TIP3    H114862   3.926   3.773   5.254
 4973TIP3    H214863   3.993   3.801   5.122
 4974TIP3   OH214864   8.218   1.429   0.101
 4974TIP3    H114865   8.241   1.337   0.090
 4974TIP3    H214866   8.125   1.428   0.122
 4975TIP3   OH214867   4.299   3.018   4.996
 4975TIP3    H114868   4.293   2.945   4.934
 4975TIP3    H214869   4.307   3.096   4.940
 4976TIP3   OH214870   7.984   0.754   0.564
 4976TIP3    H114871   7.913   0.763   0.628
 4976TIP3    H214872   8.051   0.702   0.609
 4977TIP3   OH214873   6.071   4.865   2.308
 4977TIP3    H114874   6.050   4.898   2.221
 4977TIP3    H214875   6.058   4.939   2.366
 4978TIP3   OH214876   0.964   0.871   1.239
 4978TIP3    H114877   1.050   0.831   1.243
 4978TIP3    H214878   0.965   0.939   1.306
 4979TIP3   OH214879   1.624   6.354   0.209
 4979TIP3    H114880   1.603   6.283   0.270
 4979TIP3    H214881   1.715   6.375   0.228
 4980TIP3   OH214882   0.043   5.786   5.088
 4980TIP3    H114883  -0.002   5.707   5.118
 4980TIP3    H214884   0.058   5.837   5.167
 4981TIP3   OH214885   2.202   7.320   5.172
 4981TIP3    H114886   2.203   7.248   5.235
 4981TIP3    H214887   2.170   7.395   5.221
 4982TIP3   OH214888   5.715   5.205   4.294
 4982TIP3    H114889   5.706   5.294   4.326
 4982TIP3    H214890   5.664   5.152   4.355
 4983TIP3   OH214891   2.046   2.614   4.054
 4983TIP3    H114892   2.079   2.680   3.993
 4983TIP3    H214893   1.989   2.559   4.001
 4984TIP3   OH214894   6.256   2.895   0.480
 4984TIP3    H114895   6.211   2.879   0.397
 4984TIP3    H214896   6.348   2.874   0.462
 4985TIP3   OH214897   5.884   3.451   5.356
 4985TIP3    H114898   5.878   3.357   5.376
 4985TIP3    H214899   5.795   3.476   5.334
 4986TIP3   OH214900   2.477   5.545   0.398
 4986TIP3    H114901   2.479   5.552   0.493
 4986TIP3    H214902   2.541   5.608   0.367
 4987TIP3   OH214903   7.635   6.391   6.308
 4987TIP3    H114904   7.703   6.385   6.375
 4987TIP3    H214905   7.595   6.304   6.307
 4988TIP3   OH214906   6.129   2.457   6.664
 4988TIP3    H114907   6.112   2.366   6.686
 4988TIP3    H214908   6.211   2.455   6.615
 4989TIP3   OH214909   4.554   4.200   3.886
 4989TIP3    H114910   4.535   4.286   3.924
 4989TIP3    H214911   4.648   4.188   3.899
 4990TIP3   OH214912   1.564   4.272   3.786
 4990TIP3    H114913   1.538   4.317   3.867
 4990TIP3    H214914   1.492   4.211   3.769
 4991TIP3   OH214915   2.523   5.048   1.573
 4991TIP3    H114916   2.617   5.060   1.576
 4991TIP3    H214917   2.510   4.974   1.514
 4992TIP3   OH214918   6.320   5.643   3.190
 4992TIP3    H114919   6.397   5.697   3.169
 4992TIP3    H214920   6.352   5.582   3.256
 4993TIP3   OH214921   2.002   2.514   1.279
 4993TIP3    H114922   2.046   2.445   1.228
 4993TIP3    H214923   2.048   2.515   1.363
 4994TIP3   OH214924   5.448   0.177   3.628
 4994TIP3    H114925   5.461   0.194   3.535
 4994TIP3    H214926   5.381   0.108   3.631
 4995TIP3   OH214927   2.913   3.984   5.393
 4995TIP3    H114928   2.877   3.896   5.394
 4995TIP3    H214929   2.857   4.034   5.452
 4996TIP3   OH214930   2.912   2.561   4.571
 4996TIP3    H114931   2.903   2.487   4.510
 4996TIP3    H214932   2.823   2.579   4.600
 4997TIP3   OH214933   1.738   2.407   5.269
 4997TIP3    H114934   1.745   2.452   5.185
 4997TIP3    H214935   1.679   2.463   5.321
 4998TIP3   OH214936   7.203   3.923   1.648
 4998TIP3    H114937   7.180   3.946   1.738
 4998TIP3    H214938   7.144   3.851   1.626
 4999TIP3   OH214939   6.032   5.160   0.928
 4999TIP3    H114940   6.024   5.224   0.999
 4999TIP3    H214941   5.942   5.150   0.895
 5000TIP3   OH214942   4.059   4.501   3.338
 5000TIP3    H114943   4.078   4.468   3.426
 5000TIP3    H214944   4.003   4.578   3.353
 5001TIP3   OH214945   4.242   4.217   1.168
 5001TIP3    H114946   4.253   4.129   1.205
 5001TIP3    H214947   4.148   4.223   1.150
 5002TIP3   OH214948   1.403   6.606   1.986
 5002TIP3    H114949   1.495   6.580   1.991
 5002TIP3    H214950   1.354   6.529   2.014
 5003TIP3   OH214951   6.606   7.144   6.111
 5003TIP3    H114952   6.627   7.059   6.150
 5003TIP3    H214953   6.572   7.196   6.183
 5004TIP3   OH214954   7.872   0.452   4.770
 5004TIP3    H114955   7.823   0.514   4.716
 5004TIP3    H214956   7.807   0.416   4.829
 5005TIP3   OH214957   2.052   6.208   0.816
 5005TIP3    H114958   2.044   6.212   0.721
 5005TIP3    H214959   2.036   6.298   0.846
 5006TIP3   OH214960   4.805   6.491   5.988
 5006TIP3    H114961   4.712   6.506   5.999
 5006TIP3    H214962   4.820   6.492   5.893
 5007TIP3   OH214963   1.044   6.607   1.268
 5007TIP3    H114964   1.058   6.631   1.359
 5007TIP3    H214965   0.969   6.548   1.270
 5008TIP3   OH214966   0.206   0.091   5.354
 5008TIP3    H114967   0.115   0.093   5.323
 5008TIP3    H214968   0.250   0.158   5.303
 5009TIP3   OH214969   5.497   5.761   3.001
 5009TIP3    H114970   5.491   5.765   2.905
 5009TIP3    H214971   5.412   5.726   3.029
 5010TIP3   OH214972   6.363   6.536   4.074
 5010TIP3    H114973   6.289   6.560   4.018
 5010TIP3    H214974   6.382   6.616   4.124
 5011TIP3   OH214975   4.196   4.973   3.036
 5011TIP3    H114976   4.193   4.953   2.942
 5011TIP3    H214977   4.206   5.068   3.040
 5012TIP3   OH214978   3.699   5.628   4.961
 5012TIP3    H114979   3.638   5.696   4.933
 5012TIP3    H214980   3.644   5.558   4.995
 5013TIP3   OH214981   1.437   6.029   4.057
 5013TIP3    H114982   1.480   6.073   3.983
 5013TIP3    H214983   1.364   6.088   4.080
 5014TIP3   OH214984   8.152   1.837   5.742
 5014TIP3    H114985   8.057   1.838   5.756
 5014TIP3    H214986   8.174   1.744   5.739
 5015TIP3   OH214987   5.670   3.502   2.475
 5015TIP3    H114988   5.597   3.446   2.503
 5015TIP3    H214989   5.746   3.443   2.474
 5016TIP3   OH214990   3.332   1.132   0.716
 5016TIP3    H114991   3.426   1.131   0.697
 5016TIP3    H214992   3.297   1.057   0.669
 5017TIP3   OH214993   1.539   7.300   4.057
 5017TIP3    H114994   1.535   7.343   3.972
 5017TIP3    H214995   1.620   7.334   4.097
 5018TIP3   OH214996   4.361   2.603   0.064
 5018TIP3    H114997   4.439   2.656   0.081
 5018TIP3    H214998   4.300   2.628   0.134
 5019TIP3   OH214999   6.436   4.252   6.223
 5019TIP3    H115000   6.431   4.157   6.220
 5019TIP3    H215001   6.513   4.271   6.277
 5020TIP3   OH215002   1.944   6.804   3.196
 5020TIP3    H115003   1.874   6.739   3.192
 5020TIP3    H215004   1.942   6.847   3.110
 5021TIP3   OH215005   5.250   0.500   4.170
 5021TIP3    H115006   5.329   0.553   4.164
 5021TIP3    H215007   5.281   0.410   4.171
 5022TIP3   OH215008   0.701   7.529   1.322
 5022TIP3    H115009   0.663   7.483   1.397
 5022TIP3    H215010   0.760   7.465   1.283
 5023TIP3   OH215011   7.421   1.102   3.788
 5023TIP3    H115012   7.432   1.179   3.844
 5023TIP3    H215013   7.499   1.102   3.732
 5024TIP3   OH215014   7.002   0.302   0.040
 5024TIP3    H115015   6.960   0.217   0.042
 5024TIP3    H215016   6.968   0.349   0.116
 5025TIP3   OH215017   6.809   4.111   3.624
 5025TIP3    H115018   6.797   4.200   3.590
 5025TIP3    H215019   6.827   4.058   3.546
 5026TIP3   OH215020   0.392   7.303   3.715
 5026TIP3    H115021   0.450   7.227   3.713
 5026TIP3    H215022   0.385   7.330   3.624
 5027TIP3   OH215023   8.214   3.867   5.922
 5027TIP3    H115024   8.246   3.797   5.865
 5027TIP3    H215025   8.203   3.824   6.007
 5028TIP3   OH215026   7.931   7.282   4.043
 5028TIP3    H115027   7.875   7.276   3.966
 5028TIP3    H215028   7.943   7.191   4.071
 5029TIP3   OH215029   5.539   1.250   1.922
 5029TIP3    H115030   5.464   1.231   1.866
 5029TIP3    H215031   5.515   1.329   1.971
 5030TIP3   OH215032   0.302   4.772   3.408
 5030TIP3    H115033   0.309   4.824   3.488
 5030TIP3    H215034   0.213   4.789   3.376
 5031TIP3   OH215035   3.286   2.107   4.022
 5031TIP3    H115036   3.309   2.200   4.012
 5031TIP3    H215037   3.194   2.108   4.048
 5032TIP3   OH215038   4.523   0.026   3.406
 5032TIP3    H115039   4.597   0.085   3.419
 5032TIP3    H215040   4.473   0.030   3.487
 5033TIP3   OH215041   5.615   2.933   4.832
 5033TIP3    H115042   5.610   2.865   4.899
 5033TIP3    H215043   5.627   2.885   4.750
 5034TIP3   OH215044   2.099   6.990   5.577
 5034TIP3    H115045   2.121   6.973   5.668
 5034TIP3    H215046   2.120   6.909   5.531
 5035TIP3   OH215047   1.009   6.938   4.242
 5035TIP3    H115048   0.979   6.850   4.266
 5035TIP3    H215049   1.103   6.928   4.228
 5036TIP3   OH215050   1.161   4.001   4.027
 5036TIP3    H115051   1.120   4.075   3.983
 5036TIP3    H215052   1.100   3.928   4.013
 5037TIP3   OH215053   5.911   3.353   3.432
 5037TIP3    H115054   5.909   3.271   3.481
 5037TIP3    H215055   6.000   3.360   3.399
 5038TIP3   OH215056   3.044   3.423   4.295
 5038TIP3    H115057   3.110   3.450   4.359
 5038TIP3    H215058   2.975   3.489   4.302
 5039TIP3   OH215059   0.133   3.252   6.529
 5039TIP3    H115060   0.098   3.329   6.574
 5039TIP3    H215061   0.204   3.287   6.475
 5040TIP3   OH215062   3.144   6.933   2.662
 5040TIP3    H115063   3.187   6.881   2.730
 5040TIP3    H215064   3.200   6.923   2.585
 5041TIP3   OH215065   1.942   3.027   2.232
 5041TIP3    H115066   2.027   3.049   2.270
 5041TIP3    H215067   1.925   3.098   2.170
 5042TIP3   OH215068   3.253   7.805   4.449
 5042TIP3    H115069   3.245   7.883   4.395
 5042TIP3    H215070   3.186   7.745   4.414
 5043TIP3   OH215071   7.787   1.400   4.384
 5043TIP3    H115072   7.820   1.459   4.317
 5043TIP3    H215073   7.698   1.378   4.356
 5044TIP3   OH215074   3.960   3.783   4.939
 5044TIP3    H115075   3.896   3.783   4.868
 5044TIP3    H215076   4.032   3.837   4.906
 5045TIP3   OH215077   5.060   5.162   5.926
 5045TIP3    H115078   5.044   5.163   5.831
 5045TIP3    H215079   5.114   5.239   5.942
 5046TIP3   OH215080   2.638   5.376   5.479
 5046TIP3    H115081   2.549   5.395   5.508
 5046TIP3    H215082   2.693   5.401   5.553
 5047TIP3   OH215083   3.766   5.312   5.436
 5047TIP3    H115084   3.855   5.337   5.412
 5047TIP3    H215085   3.709   5.367   5.382
 5048TIP3   OH215086   4.694   6.284   2.336
 5048TIP3    H115087   4.692   6.191   2.313
 5048TIP3    H215088   4.761   6.321   2.279
 5049TIP3   OH215089   5.084   7.156   0.078
 5049TIP3    H115090   5.112   7.171  -0.012
 5049TIP3    H215091   5.153   7.101   0.116
 5050TIP3   OH215092   3.045   4.786   1.400
 5050TIP3    H115093   3.029   4.857   1.462
 5050TIP3    H215094   3.022   4.706   1.449
 5051TIP3   OH215095   5.926   2.197   2.733
 5051TIP3    H115096   5.877   2.266   2.687
 5051TIP3    H215097   6.017   2.224   2.725
 5052TIP3   OH215098   0.372   3.588   1.944
 5052TIP3    H115099   0.425   3.530   1.999
 5052TIP3    H215100   0.432   3.657   1.917
 5053TIP3   OH215101   6.744   2.825   1.108
 5053TIP3    H115102   6.714   2.912   1.135
 5053TIP3    H215103   6.821   2.841   1.054
 5054TIP3   OH215104   7.077   5.644   2.071
 5054TIP3    H115105   7.046   5.593   1.996
 5054TIP3    H215106   7.172   5.637   2.067
 5055TIP3   OH215107   2.133   6.880   3.797
 5055TIP3    H115108   2.079   6.952   3.765
 5055TIP3    H215109   2.223   6.911   3.787
 5056TIP3   OH215110   3.837   0.692   4.923
 5056TIP3    H115111   3.788   0.764   4.883
 5056TIP3    H215112   3.803   0.613   4.881
 5057TIP3   OH215113   5.326   4.090   5.412
 5057TIP3    H115114   5.250   4.129   5.369
 5057TIP3    H215115   5.385   4.067   5.340
 5058TIP3   OH215116   0.896   6.970   2.104
 5058TIP3    H115117   0.928   7.027   2.034
 5058TIP3    H215118   0.827   6.918   2.063
 5059TIP3   OH215119   2.417   7.036   0.170
 5059TIP3    H115120   2.361   6.964   0.139
 5059TIP3    H215121   2.477   7.052   0.097
 5060TIP3   OH215122   1.764   3.906   2.528
 5060TIP3    H115123   1.710   3.906   2.449
 5060TIP3    H215124   1.824   3.979   2.515
 5061TIP3   OH215125   3.440   2.636   5.005
 5061TIP3    H115126   3.434   2.688   4.925
 5061TIP3    H215127   3.394   2.687   5.071
 5062TIP3   OH215128   6.928   7.135   4.372
 5062TIP3    H115129   6.845   7.121   4.418
 5062TIP3    H215130   6.958   7.047   4.350
 5063TIP3   OH215131   6.136   1.533   5.067
 5063TIP3    H115132   6.085   1.596   5.118
 5063TIP3    H215133   6.213   1.515   5.120
 5064TIP3   OH215134   5.768   0.395   4.777
 5064TIP3    H115135   5.830   0.467   4.772
 5064TIP3    H215136   5.695   0.429   4.829
 5065TIP3   OH215137   4.983   7.326   3.518
 5065TIP3    H115138   4.954   7.357   3.432
 5065TIP3    H215139   4.945   7.389   3.580
 5066TIP3   OH215140   5.075   7.259   1.922
 5066TIP3    H115141   5.134   7.212   1.981
 5066TIP3    H215142   5.129   7.281   1.846
 5067TIP3   OH215143   0.358   3.355   3.532
 5067TIP3    H115144   0.307   3.426   3.572
 5067TIP3    H215145   0.426   3.399   3.482
 5068TIP3   OH215146   1.835   1.382   4.034
 5068TIP3    H115147   1.898   1.442   3.994
 5068TIP3    H215148   1.813   1.320   3.965
 5069TIP3   OH215149   2.188   1.246   0.481
 5069TIP3    H115150   2.222   1.197   0.406
 5069TIP3    H215151   2.130   1.312   0.442
 5070TIP3   OH215152   6.255   6.599   3.843
 5070TIP3    H115153   6.261   6.506   3.823
 5070TIP3    H215154   6.162   6.614   3.861
 5071TIP3   OH215155   5.578   2.925   3.607
 5071TIP3    H115156   5.625   2.872   3.543
 5071TIP3    H215157   5.487   2.926   3.576
 5072TIP3   OH215158   3.384   7.031   2.031
 5072TIP3    H115159   3.349   6.976   2.101
 5072TIP3    H215160   3.321   7.103   2.024
 5073TIP3   OH215161   7.264   4.667   5.780
 5073TIP3    H115162   7.184   4.617   5.767
 5073TIP3    H215163   7.255   4.743   5.723
 5074TIP3   OH215164   6.203   6.168   0.948
 5074TIP3    H115165   6.170   6.097   0.894
 5074TIP3    H215166   6.269   6.127   1.005
 5075TIP3   OH215167   0.373   0.982   4.735
 5075TIP3    H115168   0.404   0.894   4.713
 5075TIP3    H215169   0.285   0.968   4.770
 5076TIP3   OH215170   2.425   3.143   3.971
 5076TIP3    H115171   2.435   3.235   3.945
 5076TIP3    H215172   2.411   3.146   4.065
 5077TIP3   OH215173   2.961   3.628   1.917
 5077TIP3    H115174   3.044   3.602   1.957
 5077TIP3    H215175   2.919   3.546   1.892
 5078TIP3   OH215176   7.055   0.108   2.875
 5078TIP3    H115177   7.041   0.137   2.785
 5078TIP3    H215178   6.997   0.164   2.927
 5079TIP3   OH215179   1.660   7.504   2.646
 5079TIP3    H115180   1.659   7.597   2.667
 5079TIP3    H215181   1.745   7.473   2.676
 5080TIP3   OH215182   0.225   0.235   3.148
 5080TIP3    H115183   0.212   0.329   3.160
 5080TIP3    H215184   0.208   0.220   3.055
 5081TIP3   OH215185   4.905   5.049   0.441
 5081TIP3    H115186   4.990   5.069   0.480
 5081TIP3    H215187   4.919   5.060   0.347
 5082TIP3   OH215188   3.544   3.526   1.202
 5082TIP3    H115189   3.530   3.460   1.270
 5082TIP3    H215190   3.634   3.513   1.174
 5083TIP3   OH215191   1.311   4.386   0.439
 5083TIP3    H115192   1.229   4.378   0.390
 5083TIP3    H215193   1.378   4.357   0.378
 5084TIP3   OH215194   4.638   1.597   0.301
 5084TIP3    H115195   4.543   1.584   0.297
 5084TIP3    H215196   4.674   1.509   0.290
 5085TIP3   OH215197   7.977   5.394   0.434
 5085TIP3    H115198   8.042   5.425   0.497
 5085TIP3    H215199   7.898   5.381   0.486
 5086TIP3   OH215200   7.115   6.710   5.450
 5086TIP3    H115201   7.067   6.637   5.411
 5086TIP3    H215202   7.137   6.679   5.538
 5087TIP3   OH215203   2.393   6.647   3.735
 5087TIP3    H115204   2.380   6.643   3.640
 5087TIP3    H215205   2.322   6.703   3.767
 5088TIP3   OH215206   6.000   2.105   1.084
 5088TIP3    H115207   5.932   2.173   1.090
 5088TIP3    H215208   6.011   2.090   0.991
 5089TIP3   OH215209   7.312   2.358   1.554
 5089TIP3    H115210   7.359   2.401   1.625
 5089TIP3    H215211   7.220   2.378   1.569
 5090TIP3   OH215212   1.702   5.819   4.477
 5090TIP3    H115213   1.680   5.803   4.385
 5090TIP3    H215214   1.757   5.898   4.475
 5091TIP3   OH215215   7.246   6.893   5.861
 5091TIP3    H115216   7.319   6.835   5.882
 5091TIP3    H215217   7.170   6.853   5.904
 5092TIP3   OH215218   4.079   6.442   0.423
 5092TIP3    H115219   4.114   6.491   0.349
 5092TIP3    H215220   4.082   6.351   0.395
 5093TIP3   OH215221   5.594   4.734   5.764
 5093TIP3    H115222   5.637   4.653   5.790
 5093TIP3    H215223   5.539   4.709   5.690
 5094TIP3   OH215224   2.148   0.065   4.850
 5094TIP3    H115225   2.170   0.130   4.783
 5094TIP3    H215226   2.099  -0.003   4.803
 5095TIP3   OH215227   6.365   3.417   4.409
 5095TIP3    H115228   6.295   3.481   4.424
 5095TIP3    H215229   6.345   3.380   4.323
 5096TIP3   OH215230   2.705   5.556   2.770
 5096TIP3    H115231   2.657   5.483   2.732
 5096TIP3    H215232   2.711   5.535   2.863
 5097TIP3   OH215233   2.932   5.431   0.512
 5097TIP3    H115234   2.873   5.444   0.585
 5097TIP3    H215235   2.901   5.492   0.445
 5098TIP3   OH215236   3.139   7.221   1.165
 5098TIP3    H115237   3.081   7.147   1.148
 5098TIP3    H215238   3.223   7.195   1.126
 5099TIP3   OH215239   0.528   5.460   4.708
 5099TIP3    H115240   0.474   5.518   4.654
 5099TIP3    H215241   0.492   5.373   4.691
 5100TIP3   OH215242   6.635   1.361   1.289
 5100TIP3    H115243   6.601   1.303   1.221
 5100TIP3    H215244   6.729   1.365   1.273
 5101TIP3   OH215245   4.795   7.084   1.569
 5101TIP3    H115246   4.884   7.119   1.570
 5101TIP3    H215247   4.792   7.023   1.642
 5102TIP3   OH215248   6.498   5.147   0.282
 5102TIP3    H115249   6.475   5.161   0.374
 5102TIP3    H215250   6.588   5.177   0.274
 5103TIP3   OH215251   0.687   5.294   0.739
 5103TIP3    H115252   0.644   5.242   0.672
 5103TIP3    H215253   0.774   5.255   0.748
 5104TIP3   OH215254   0.785   5.385   4.745
 5104TIP3    H115255   0.693   5.410   4.747
 5104TIP3    H215256   0.820   5.429   4.668
 5105TIP3   OH215257   6.755   0.113   0.854
 5105TIP3    H115258   6.809   0.124   0.933
 5105TIP3    H215259   6.763   0.196   0.808
 5106TIP3   OH215260   1.697   4.628   1.188
 5106TIP3    H115261   1.621   4.627   1.130
 5106TIP3    H215262   1.719   4.536   1.200
 5107TIP3   OH215263   2.143   2.621   1.520
 5107TIP3    H115264   2.182   2.706   1.498
 5107TIP3    H215265   2.206   2.579   1.577
 5108TIP3   OH215266   8.041   0.031   5.585
 5108TIP3    H115267   8.125   0.076   5.589
 5108TIP3    H215268   8.014   0.022   5.676
 5109TIP3   OH215269   2.633   0.545   0.232
 5109TIP3    H115270   2.691   0.620   0.217
 5109TIP3    H215271   2.673   0.497   0.305
 5110TIP3   OH215272   5.509   3.593   3.783
 5110TIP3    H115273   5.513   3.608   3.877
 5110TIP3    H215274   5.417   3.610   3.760
 5111TIP3   OH215275   7.020   4.799   2.868
 5111TIP3    H115276   7.056   4.868   2.812
 5111TIP3    H215277   6.989   4.733   2.807
 5112TIP3   OH215278   2.630   3.337   4.314
 5112TIP3    H115279   2.719   3.302   4.316
 5112TIP3    H215280   2.576   3.265   4.281
 5113TIP3   OH215281   0.383   4.994   1.721
 5113TIP3    H115282   0.392   4.935   1.796
 5113TIP3    H215283   0.459   4.975   1.666
 5114TIP3   OH215284   5.642   4.318   3.072
 5114TIP3    H115285   5.569   4.347   3.018
 5114TIP3    H215286   5.616   4.233   3.106
 5115TIP3   OH215287   4.351   7.277   1.121
 5115TIP3    H115288   4.337   7.190   1.158
 5115TIP3    H215289   4.433   7.270   1.073
 5116TIP3   OH215290   6.107   0.221   1.469
 5116TIP3    H115291   6.045   0.224   1.542
 5116TIP3    H215292   6.193   0.216   1.510
 5117TIP3   OH215293   5.495   1.236   2.383
 5117TIP3    H115294   5.425   1.268   2.326
 5117TIP3    H215295   5.564   1.303   2.377
 5118TIP3   OH215296   4.812   6.266   5.703
 5118TIP3    H115297   4.848   6.309   5.625
 5118TIP3    H215298   4.796   6.176   5.674
 5119TIP3   OH215299   4.248   7.558   2.329
 5119TIP3    H115300   4.288   7.580   2.413
 5119TIP3    H215301   4.241   7.463   2.330
 5120TIP3   OH215302   1.157   0.635   1.915
 5120TIP3    H115303   1.088   0.693   1.950
 5120TIP3    H215304   1.236   0.661   1.961
 5121TIP3   OH215305   7.115   3.134   5.204
 5121TIP3    H115306   7.123   3.071   5.276
 5121TIP3    H215307   7.078   3.083   5.132
 5122TIP3   OH215308   2.755   2.075   6.231
 5122TIP3    H115309   2.813   2.009   6.268
 5122TIP3    H215310   2.809   2.154   6.226
 5123TIP3   OH215311   6.610   1.882   1.056
 5123TIP3    H115312   6.541   1.815   1.063
 5123TIP3    H215313   6.691   1.833   1.046
 5124TIP3   OH215314   3.819   4.560   4.374
 5124TIP3    H115315   3.738   4.532   4.417
 5124TIP3    H215316   3.873   4.596   4.444
 5125TIP3   OH215317   7.241   0.603   0.283
 5125TIP3    H115318   7.259   0.554   0.203
 5125TIP3    H215319   7.168   0.661   0.260
 5126TIP3   OH215320   7.864   5.475   2.264
 5126TIP3    H115321   7.912   5.548   2.224
 5126TIP3    H215322   7.858   5.497   2.356
 5127TIP3   OH215323   1.564   4.163   1.338
 5127TIP3    H115324   1.648   4.132   1.373
 5127TIP3    H215325   1.522   4.206   1.412
 5128TIP3   OH215326   8.101   0.449   1.579
 5128TIP3    H115327   8.086   0.365   1.622
 5128TIP3    H215328   8.042   0.449   1.504
 5129TIP3   OH215329   1.648   1.863   2.600
 5129TIP3    H115330   1.660   1.820   2.685
 5129TIP3    H215331   1.589   1.936   2.619
 5130TIP3   OH215332   0.110   0.601   1.737
 5130TIP3    H115333   0.190   0.570   1.778
 5130TIP3    H215334   0.045   0.601   1.807
 5131TIP3   OH215335   5.911   4.025   2.728
 5131TIP3    H115336   5.833   4.027   2.784
 5131TIP3    H215337   5.933   4.117   2.714
 5132TIP3   OH215338   5.518   5.070   5.484
 5132TIP3    H115339   5.528   5.078   5.579
 5132TIP3    H215340   5.454   5.001   5.471
 5133TIP3   OH215341   1.711   0.831   1.440
 5133TIP3    H115342   1.749   0.780   1.512
 5133TIP3    H215343   1.694   0.766   1.372
 5134TIP3   OH215344   3.198   1.690   1.386
 5134TIP3    H115345   3.121   1.747   1.391
 5134TIP3    H215346   3.185   1.626   1.456
 5135TIP3   OH215347   0.282   7.619   3.690
 5135TIP3    H115348   0.273   7.557   3.618
 5135TIP3    H215349   0.336   7.572   3.755
 5136TIP3   OH215350   3.671   2.212   1.057
 5136TIP3    H115351   3.640   2.259   0.980
 5136TIP3    H215352   3.608   2.234   1.126
 5137TIP3   OH215353   6.974   4.659   5.410
 5137TIP3    H115354   6.929   4.575   5.397
 5137TIP3    H215355   6.904   4.722   5.426
 5138TIP3   OH215356   4.824   7.735   5.169
 5138TIP3    H115357   4.737   7.733   5.208
 5138TIP3    H215358   4.878   7.681   5.227
 5139TIP3   OH215359   2.515   2.760   3.020
 5139TIP3    H115360   2.486   2.675   3.053
 5139TIP3    H215361   2.464   2.773   2.940
 5140TIP3   OH215362   0.473   5.778   3.390
 5140TIP3    H115363   0.522   5.751   3.312
 5140TIP3    H215364   0.441   5.866   3.369
 5141TIP3   OH215365   5.854   0.432   0.187
 5141TIP3    H115366   5.853   0.488   0.109
 5141TIP3    H215367   5.767   0.444   0.226
 5142TIP3   OH215368   3.709   3.761   5.983
 5142TIP3    H115369   3.786   3.816   5.996
 5142TIP3    H215370   3.635   3.814   6.014
 5143TIP3   OH215371   1.145   3.906   5.879
 5143TIP3    H115372   1.219   3.965   5.888
 5143TIP3    H215373   1.112   3.894   5.968
 5144TIP3   OH215374   2.760   3.018   4.027
 5144TIP3    H115375   2.707   3.004   4.105
 5144TIP3    H215376   2.697   3.017   3.955
 5145TIP3   OH215377   6.375   4.115   5.468
 5145TIP3    H115378   6.326   4.190   5.503
 5145TIP3    H215379   6.307   4.053   5.442
 5146TIP3   OH215380   7.431   2.023   5.792
 5146TIP3    H115381   7.370   2.053   5.725
 5146TIP3    H215382   7.415   2.080   5.867
 5147TIP3   OH215383   3.302   3.187   4.561
 5147TIP3    H115384   3.244   3.262   4.578
 5147TIP3    H215385   3.313   3.145   4.647
 5148TIP3   OH215386   7.046   7.617   5.597
 5148TIP3    H115387   7.089   7.612   5.683
 5148TIP3    H215388   7.003   7.702   5.597
 5149TIP3   OH215389   2.012   5.914   0.539
 5149TIP3    H115390   2.040   5.910   0.448
 5149TIP3    H215391   2.058   5.841   0.581
 5150TIP3   OH215392   1.372   4.523   5.554
 5150TIP3    H115393   1.322   4.543   5.634
 5150TIP3    H215394   1.379   4.428   5.553
 5151TIP3   OH215395   3.307   5.513   0.241
 5151TIP3    H115396   3.273   5.444   0.184
 5151TIP3    H215397   3.388   5.476   0.277
 5152TIP3   OH215398   2.137   7.036   6.357
 5152TIP3    H115399   2.079   7.108   6.334
 5152TIP3    H215400   2.179   7.011   6.275
 5153TIP3   OH215401   3.791   7.144   4.950
 5153TIP3    H115402   3.731   7.154   4.876
 5153TIP3    H215403   3.784   7.052   4.974
 5154TIP3   OH215404   1.089   6.394   4.964
 5154TIP3    H115405   1.145   6.446   4.906
 5154TIP3    H215406   1.020   6.362   4.907
 5155TIP3   OH215407   3.630   3.941   2.059
 5155TIP3    H115408   3.720   3.938   2.091
 5155TIP3    H215409   3.590   4.014   2.106
 5156TIP3   OH215410   2.985   3.339   0.485
 5156TIP3    H115411   2.965   3.333   0.578
 5156TIP3    H215412   2.980   3.432   0.465
 5157TIP3   OH215413   0.342   6.371   1.988
 5157TIP3    H115414   0.320   6.359   2.080
 5157TIP3    H215415   0.426   6.327   1.977
 5158TIP3   OH215416   6.330   6.012   4.858
 5158TIP3    H115417   6.311   5.919   4.873
 5158TIP3    H215418   6.383   6.013   4.778
 5159TIP3   OH215419   4.115   7.815   5.064
 5159TIP3    H115420   4.174   7.855   5.128
 5159TIP3    H215421   4.155   7.730   5.045
 5160TIP3   OH215422   2.287   4.584   0.148
 5160TIP3    H115423   2.316   4.596   0.058
 5160TIP3    H215424   2.343   4.515   0.183
 5161TIP3   OH215425   6.018   7.728   0.657
 5161TIP3    H115426   6.095   7.744   0.602
 5161TIP3    H215427   6.003   7.634   0.651
 5162TIP3   OH215428   2.560   0.490   5.577
 5162TIP3    H115429   2.507   0.569   5.592
 5162TIP3    H215430   2.574   0.454   5.665
 5163TIP3   OH215431   4.763   0.526   5.337
 5163TIP3    H115432   4.761   0.447   5.282
 5163TIP3    H215433   4.749   0.598   5.276
 5164TIP3   OH215434   1.056   2.982   5.108
 5164TIP3    H115435   1.027   3.037   5.180
 5164TIP3    H215436   1.102   2.909   5.150
 5165TIP3   OH215437   5.442   6.749   4.286
 5165TIP3    H115438   5.425   6.838   4.253
 5165TIP3    H215439   5.400   6.692   4.222
 5166TIP3   OH215440   7.618   4.559   5.735
 5166TIP3    H115441   7.675   4.599   5.670
 5166TIP3    H215442   7.561   4.502   5.685
 5167TIP3   OH215443   2.529   1.677   0.998
 5167TIP3    H115444   2.502   1.637   1.081
 5167TIP3    H215445   2.607   1.627   0.972
 5168TIP3   OH215446   0.868   0.715   2.290
 5168TIP3    H115447   0.813   0.684   2.218
 5168TIP3    H215448   0.947   0.661   2.285
 5169TIP3   OH215449   3.002   3.826   1.209
 5169TIP3    H115450   3.090   3.790   1.202
 5169TIP3    H215451   2.952   3.757   1.253
 5170TIP3   OH215452   6.185   2.868   2.256
 5170TIP3    H115453   6.151   2.856   2.167
 5170TIP3    H215454   6.194   2.780   2.291
 5171TIP3   OH215455   1.423   1.518   2.195
 5171TIP3    H115456   1.421   1.462   2.273
 5171TIP3    H215457   1.333   1.516   2.162
 5172TIP3   OH215458   1.362   0.601   6.348
 5172TIP3    H115459   1.394   0.665   6.284
 5172TIP3    H215460   1.316   0.536   6.295
 5173TIP3   OH215461   5.368   5.692   1.509
 5173TIP3    H115462   5.372   5.727   1.420
 5173TIP3    H215463   5.276   5.673   1.523
 5174TIP3   OH215464   1.476   3.670   4.448
 5174TIP3    H115465   1.423   3.732   4.498
 5174TIP3    H215466   1.556   3.660   4.500
 5175TIP3   OH215467   7.255   4.612   1.227
 5175TIP3    H115468   7.280   4.542   1.287
 5175TIP3    H215469   7.172   4.582   1.189
 5176TIP3   OH215470   6.609   5.015   5.123
 5176TIP3    H115471   6.657   5.066   5.058
 5176TIP3    H215472   6.568   5.080   5.180
 5177TIP3   OH215473   0.375   0.035   3.572
 5177TIP3    H115474   0.383   0.128   3.595
 5177TIP3    H215475   0.378   0.034   3.476
 5178TIP3   OH215476   7.300   4.610   1.882
 5178TIP3    H115477   7.213   4.573   1.869
 5178TIP3    H215478   7.333   4.566   1.961
 5179TIP3   OH215479   5.571   4.196   2.464
 5179TIP3    H115480   5.648   4.232   2.508
 5179TIP3    H215481   5.498   4.216   2.523
 5180TIP3   OH215482   2.979   2.861   4.837
 5180TIP3    H115483   3.036   2.932   4.867
 5180TIP3    H215484   3.034   2.811   4.776
 5181TIP3   OH215485   6.238   5.032   6.320
 5181TIP3    H115486   6.151   5.028   6.281
 5181TIP3    H215487   6.264   5.124   6.312
 5182TIP3   OH215488   0.850   6.275   4.836
 5182TIP3    H115489   0.843   6.362   4.797
 5182TIP3    H215490   0.775   6.227   4.801
 5183TIP3   OH215491   5.607   3.111   5.217
 5183TIP3    H115492   5.543   3.165   5.264
 5183TIP3    H215493   5.583   3.121   5.124
 5184TIP3   OH215494   8.129   5.514   5.530
 5184TIP3    H115495   8.170   5.519   5.617
 5184TIP3    H215496   8.187   5.459   5.478
 5185TIP3   OH215497   5.977   4.651   6.598
 5185TIP3    H115498   6.014   4.730   6.637
 5185TIP3    H215499   6.005   4.653   6.507
 5186TIP3   OH215500   3.747   3.922   2.892
 5186TIP3    H115501   3.768   3.837   2.852
 5186TIP3    H215502   3.676   3.957   2.839
 5187TIP3   OH215503   3.476   1.575   0.602
 5187TIP3    H115504   3.570   1.592   0.589
 5187TIP3    H215505   3.433   1.641   0.548
 5188TIP3   OH215506   8.230   1.205   3.085
 5188TIP3    H115507   8.273   1.131   3.042
 5188TIP3    H215508   8.288   1.227   3.157
 5189TIP3   OH215509   1.243   6.147   0.070
 5189TIP3    H115510   1.313   6.178   0.013
 5189TIP3    H215511   1.287   6.126   0.153
 5190TIP3   OH215512   7.830   5.757   2.772
 5190TIP3    H115513   7.814   5.698   2.699
 5190TIP3    H215514   7.746   5.800   2.787
 5191TIP3   OH215515   4.467   3.043   0.197
 5191TIP3    H115516   4.520   3.123   0.198
 5191TIP3    H215517   4.379   3.073   0.174
 5192TIP3   OH215518   2.544   3.671   3.556
 5192TIP3    H115519   2.620   3.652   3.501
 5192TIP3    H215520   2.504   3.586   3.572
 5193TIP3   OH215521   4.593   5.486   1.734
 5193TIP3    H115522   4.498   5.479   1.734
 5193TIP3    H215523   4.615   5.514   1.823
 5194TIP3   OH215524   5.821   6.788   0.915
 5194TIP3    H115525   5.837   6.739   0.995
 5194TIP3    H215526   5.891   6.854   0.913
 5195TIP3   OH215527   7.757   0.299   2.486
 5195TIP3    H115528   7.721   0.293   2.398
 5195TIP3    H215529   7.807   0.381   2.486
 5196TIP3   OH215530   0.583   7.444   6.609
 5196TIP3    H115531   0.576   7.456   6.514
 5196TIP3    H215532   0.585   7.533   6.644
 5197TIP3   OH215533   2.309   0.865   0.157
 5197TIP3    H115534   2.301   0.908   0.071
 5197TIP3    H215535   2.341   0.777   0.137
 5198TIP3   OH215536   4.854   5.882   0.379
 5198TIP3    H115537   4.830   5.802   0.331
 5198TIP3    H215538   4.791   5.947   0.348
 5199TIP3   OH215539   4.484   1.912   0.971
 5199TIP3    H115540   4.517   1.872   1.051
 5199TIP3    H215541   4.389   1.915   0.983
 5200TIP3   OH215542   1.750   6.811   3.607
 5200TIP3    H115543   1.726   6.731   3.561
 5200TIP3    H215544   1.792   6.781   3.688
 5201TIP3   OH215545   1.229   6.855   6.766
 5201TIP3    H115546   1.184   6.937   6.787
 5201TIP3    H215547   1.215   6.844   6.672
 5202TIP3   OH215548   4.446   7.455   3.450
 5202TIP3    H115549   4.523   7.454   3.506
 5202TIP3    H215550   4.378   7.411   3.501
 5203TIP3   OH215551   2.451   2.279   4.562
 5203TIP3    H115552   2.382   2.220   4.531
 5203TIP3    H215553   2.406   2.340   4.620
 5204TIP3   OH215554   6.876   7.523   2.008
 5204TIP3    H115555   6.928   7.538   2.087
 5204TIP3    H215556   6.813   7.455   2.032
 5205TIP3   OH215557   2.069   6.362   4.913
 5205TIP3    H115558   2.006   6.290   4.916
 5205TIP3    H215559   2.040   6.416   4.840
 5206TIP3   OH215560   4.834   3.321   4.068
 5206TIP3    H115561   4.908   3.366   4.027
 5206TIP3    H215562   4.787   3.389   4.115
 5207TIP3   OH215563   0.151   5.424   1.613
 5207TIP3    H115564   0.183   5.507   1.646
 5207TIP3    H215565   0.216   5.360   1.642
 5208TIP3   OH215566   7.337   0.213   0.094
 5208TIP3    H115567   7.274   0.160   0.143
 5208TIP3    H215568   7.311   0.204   0.003
 5209TIP3   OH215569   6.560   2.146   1.464
 5209TIP3    H115570   6.479   2.115   1.504
 5209TIP3    H215571   6.535   2.227   1.419
 5210TIP3   OH215572   7.696   2.796   6.235
 5210TIP3    H115573   7.696   2.700   6.234
 5210TIP3    H215574   7.699   2.819   6.328
 5211TIP3   OH215575   0.545   3.061   5.288
 5211TIP3    H115576   0.460   3.017   5.292
 5211TIP3    H215577   0.603   2.996   5.247
 5212TIP3   OH215578   6.902   5.452   5.664
 5212TIP3    H115579   6.857   5.440   5.747
 5212TIP3    H215580   6.934   5.543   5.667
 5213TIP3   OH215581   2.166   1.620   3.689
 5213TIP3    H115582   2.084   1.583   3.658
 5213TIP3    H215583   2.227   1.605   3.617
 5214TIP3   OH215584   1.377   3.364   3.380
 5214TIP3    H115585   1.288   3.398   3.395
 5214TIP3    H215586   1.401   3.398   3.294
 5215TIP3   OH215587   6.981   3.069   4.852
 5215TIP3    H115588   6.944   3.004   4.791
 5215TIP3    H215589   6.981   3.024   4.937
 5216TIP3   OH215590   6.645   2.201   6.239
 5216TIP3    H115591   6.575   2.249   6.195
 5216TIP3    H215592   6.620   2.109   6.230
 5217TIP3   OH215593   0.619   2.388   5.970
 5217TIP3    H115594   0.591   2.477   5.992
 5217TIP3    H215595   0.673   2.361   6.045
 5218TIP3   OH215596   3.413   6.043   1.419
 5218TIP3    H115597   3.347   6.104   1.453
 5218TIP3    H215598   3.492   6.095   1.408
 5219TIP3   OH215599   8.164   6.982   4.315
 5219TIP3    H115600   8.176   6.914   4.248
 5219TIP3    H215601   8.097   6.947   4.373
 5220TIP3   OH215602   5.056   0.442   3.002
 5220TIP3    H115603   5.003   0.514   2.968
 5220TIP3    H215604   5.036   0.440   3.096
 5221TIP3   OH215605   1.360   6.519   0.217
 5221TIP3    H115606   1.440   6.471   0.194
 5221TIP3    H215607   1.390   6.609   0.229
 5222TIP3   OH215608   0.516   3.722   3.811
 5222TIP3    H115609   0.572   3.779   3.864
 5222TIP3    H215610   0.577   3.669   3.760
 5223TIP3   OH215611   6.208   5.592   1.478
 5223TIP3    H115612   6.292   5.638   1.471
 5223TIP3    H215613   6.197   5.578   1.573
 5224TIP3   OH215614   5.531   2.121   1.589
 5224TIP3    H115615   5.452   2.090   1.547
 5224TIP3    H215616   5.575   2.042   1.620
 5225TIP3   OH215617   8.175   3.685   0.675
 5225TIP3    H115618   8.196   3.594   0.653
 5225TIP3    H215619   8.154   3.726   0.591
 5226TIP3   OH215620   8.232   0.786   1.941
 5226TIP3    H115621   8.214   0.694   1.956
 5226TIP3    H215622   8.146   0.829   1.949
 5227TIP3   OH215623   3.378  -0.002   2.681
 5227TIP3    H115624   3.424   0.071   2.723
 5227TIP3    H215625   3.413  -0.006   2.592
 5228TIP3   OH215626   3.775   1.282   0.715
 5228TIP3    H115627   3.800   1.205   0.664
 5228TIP3    H215628   3.858   1.314   0.751
 5229TIP3   OH215629   1.048   4.272   3.927
 5229TIP3    H115630   1.061   4.337   3.996
 5229TIP3    H215631   1.040   4.323   3.846
 5230TIP3   OH215632   5.401   4.693   6.081
 5230TIP3    H115633   5.468   4.753   6.115
 5230TIP3    H215634   5.327   4.750   6.060
 5231TIP3   OH215635   7.873   3.535   6.005
 5231TIP3    H115636   7.959   3.500   5.983
 5231TIP3    H215637   7.811   3.477   5.961
 5232TIP3   OH215638   5.091   4.282   3.382
 5232TIP3    H115639   5.067   4.366   3.344
 5232TIP3    H215640   5.149   4.304   3.454
 5233TIP3   OH215641   1.100   2.828   5.800
 5233TIP3    H115642   1.063   2.858   5.883
 5233TIP3    H215643   1.193   2.819   5.816
 5234TIP3   OH215644   6.324   4.318   0.933
 5234TIP3    H115645   6.310   4.400   0.981
 5234TIP3    H215646   6.379   4.344   0.858
 5235TIP3   OH215647   1.485   1.807   6.260
 5235TIP3    H115648   1.446   1.893   6.276
 5235TIP3    H215649   1.428   1.746   6.308
 5236TIP3   OH215650   4.879   5.089   4.170
 5236TIP3    H115651   4.843   5.158   4.114
 5236TIP3    H215652   4.804   5.034   4.192
 5237TIP3   OH215653   1.921   5.413   4.026
 5237TIP3    H115654   1.967   5.402   3.943
 5237TIP3    H215655   1.928   5.328   4.069
 5238TIP3   OH215656   7.896   7.740   4.912
 5238TIP3    H115657   7.823   7.801   4.903
 5238TIP3    H215658   7.911   7.706   4.824
 5239TIP3   OH215659   3.348   5.862   3.118
 5239TIP3    H115660   3.389   5.899   3.196
 5239TIP3    H215661   3.317   5.938   3.069
 5240TIP3   OH215662   1.025   4.350   5.100
 5240TIP3    H115663   1.043   4.444   5.101
 5240TIP3    H215664   1.097   4.311   5.150
 5241TIP3   OH215665   3.446   1.997   5.936
 5241TIP3    H115666   3.493   1.916   5.918
 5241TIP3    H215667   3.364   1.988   5.887
 5242TIP3   OH215668   4.970   7.533   5.923
 5242TIP3    H115669   5.011   7.526   5.836
 5242TIP3    H215670   5.042   7.554   5.982
 5243TIP3   OH215671   3.904   1.593   2.695
 5243TIP3    H115672   3.919   1.640   2.613
 5243TIP3    H215673   3.989   1.557   2.718
 5244TIP3   OH215674   0.794   2.035   5.130
 5244TIP3    H115675   0.858   2.055   5.062
 5244TIP3    H215676   0.843   2.044   5.212
 5245TIP3   OH215677   5.273   7.255   6.387
 5245TIP3    H115678   5.327   7.244   6.308
 5245TIP3    H215679   5.333   7.233   6.459
 5246TIP3   OH215680   2.759   4.827   5.908
 5246TIP3    H115681   2.792   4.888   5.842
 5246TIP3    H215682   2.745   4.880   5.986
 5247TIP3   OH215683   1.367   4.328   6.560
 5247TIP3    H115684   1.395   4.363   6.644
 5247TIP3    H215685   1.440   4.345   6.501
 5248TIP3   OH215686   4.913   4.984   3.231
 5248TIP3    H115687   4.839   4.979   3.292
 5248TIP3    H215688   4.975   4.919   3.264
 5249TIP3   OH215689   7.679   1.463   2.518
 5249TIP3    H115690   7.719   1.466   2.605
 5249TIP3    H215691   7.589   1.493   2.532
 5250TIP3   OH215692   5.571   2.311   1.351
 5250TIP3    H115693   5.546   2.316   1.443
 5250TIP3    H215694   5.488   2.321   1.303
 5251TIP3   OH215695   7.179   6.029   4.602
 5251TIP3    H115696   7.148   6.120   4.596
 5251TIP3    H215697   7.124   5.990   4.670
 5252TIP3   OH215698   2.192   3.144   5.601
 5252TIP3    H115699   2.113   3.091   5.588
 5252TIP3    H215700   2.178   3.187   5.686
 5253TIP3   OH215701   4.046   4.715   2.506
 5253TIP3    H115702   4.032   4.626   2.475
 5253TIP3    H215703   4.141   4.727   2.502
 5254TIP3   OH215704   4.507   5.455   3.385
 5254TIP3    H115705   4.445   5.446   3.457
 5254TIP3    H215706   4.452   5.461   3.307
 5255TIP3   OH215707   0.685   6.502   2.456
 5255TIP3    H115708   0.616   6.542   2.404
 5255TIP3    H215709   0.758   6.493   2.395
 5256TIP3   OH215710   8.241   6.401   5.479
 5256TIP3    H115711   8.190   6.461   5.425
 5256TIP3    H215712   8.213   6.314   5.451
 5257TIP3   OH215713   6.566   3.828   6.124
 5257TIP3    H115714   6.630   3.887   6.084
 5257TIP3    H215715   6.620   3.762   6.168
 5258TIP3   OH215716   5.209   1.557   1.852
 5258TIP3    H115717   5.157   1.492   1.805
 5258TIP3    H215718   5.209   1.633   1.795
 5259TIP3   OH215719   1.085   3.522   6.157
 5259TIP3    H115720   1.082   3.614   6.131
 5259TIP3    H215721   1.021   3.479   6.100
 5260TIP3   OH215722   7.974   3.445   1.558
 5260TIP3    H115723   8.023   3.521   1.590
 5260TIP3    H215724   7.909   3.427   1.626
 5261TIP3   OH215725   2.552   6.378   0.053
 5261TIP3    H115726   2.495   6.404   0.125
 5261TIP3    H215727   2.506   6.307   0.010
 5262TIP3   OH215728   5.950   3.075   2.209
 5262TIP3    H115729   6.040   3.107   2.208
 5262TIP3    H215730   5.896   3.154   2.199
 5263TIP3   OH215731   5.517   2.057   3.366
 5263TIP3    H115732   5.568   1.989   3.323
 5263TIP3    H215733   5.438   2.012   3.397
 5264TIP3   OH215734   7.640   2.163   3.208
 5264TIP3    H115735   7.609   2.234   3.264
 5264TIP3    H215736   7.577   2.158   3.137
 5265TIP3   OH215737   5.735   5.887   5.631
 5265TIP3    H115738   5.743   5.968   5.581
 5265TIP3    H215739   5.793   5.825   5.586
 5266TIP3   OH215740   1.762   0.512   4.659
 5266TIP3    H115741   1.758   0.514   4.563
 5266TIP3    H215742   1.692   0.454   4.685
 5267TIP3   OH215743   2.839   1.994   1.183
 5267TIP3    H115744   2.791   2.009   1.265
 5267TIP3    H215745   2.834   1.900   1.169
 5268TIP3   OH215746   1.924   0.396   6.562
 5268TIP3    H115747   1.949   0.480   6.524
 5268TIP3    H215748   1.971   0.331   6.510
 5269TIP3   OH215749   7.700   2.674   5.875
 5269TIP3    H115750   7.776   2.688   5.932
 5269TIP3    H215751   7.728   2.706   5.789
 5270TIP3   OH215752   6.986   1.093   0.341
 5270TIP3    H115753   6.896   1.122   0.324
 5270TIP3    H215754   7.012   1.047   0.262
 5271TIP3   OH215755   3.196   2.644   3.660
 5271TIP3    H115756   3.258   2.618   3.729
 5271TIP3    H215757   3.247   2.701   3.603
 5272TIP3   OH215758   8.262   7.290   1.957
 5272TIP3    H115759   8.239   7.355   2.023
 5272TIP3    H215760   8.322   7.230   2.002
 5273TIP3   OH215761   3.931   1.420   5.098
 5273TIP3    H115762   3.899   1.350   5.042
 5273TIP3    H215763   3.870   1.422   5.171
 5274TIP3   OH215764   0.030   4.019   1.109
 5274TIP3    H115765   0.008   3.972   1.028
 5274TIP3    H215766  -0.045   4.002   1.167
 5275TIP3   OH215767   5.902   7.734   1.333
 5275TIP3    H115768   5.810   7.730   1.307
 5275TIP3    H215769   5.903   7.710   1.425
 5276TIP3   OH215770   7.042   5.036   0.298
 5276TIP3    H115771   7.020   5.009   0.209
 5276TIP3    H215772   7.062   5.129   0.291
 5277TIP3   OH215773   3.380   2.291   3.667
 5277TIP3    H115774   3.297   2.245   3.683
 5277TIP3    H215775   3.405   2.327   3.752
 5278TIP3   OH215776   5.858   3.131   3.593
 5278TIP3    H115777   5.777   3.182   3.599
 5278TIP3    H215778   5.829   3.045   3.563
 5279TIP3   OH215779   7.894   6.829   6.762
 5279TIP3    H115780   7.926   6.879   6.687
 5279TIP3    H215781   7.962   6.764   6.780
 5280TIP3   OH215782   6.161   5.772   4.943
 5280TIP3    H115783   6.129   5.850   4.988
 5280TIP3    H215784   6.181   5.710   5.012
 5281TIP3   OH215785   3.937   6.592   3.760
 5281TIP3    H115786   3.882   6.660   3.800
 5281TIP3    H215787   3.922   6.514   3.814
 5282TIP3   OH215788   4.981   7.180   1.086
 5282TIP3    H115789   5.042   7.188   1.013
 5282TIP3    H215790   4.992   7.261   1.136
 5283TIP3   OH215791   5.111   0.377   0.372
 5283TIP3    H115792   5.100   0.465   0.406
 5283TIP3    H215793   5.180   0.338   0.426
 5284TIP3   OH215794   3.174   1.542   6.053
 5284TIP3    H115795   3.135   1.628   6.070
 5284TIP3    H215796   3.122   1.507   5.979
 5285TIP3   OH215797   1.672   2.861   2.629
 5285TIP3    H115798   1.607   2.815   2.681
 5285TIP3    H215799   1.722   2.792   2.586
 5286TIP3   OH215800   0.336   6.363   4.985
 5286TIP3    H115801   0.290   6.319   4.913
 5286TIP3    H215802   0.272   6.426   5.019
 5287TIP3   OH215803   4.354   2.137   2.439
 5287TIP3    H115804   4.405   2.195   2.495
 5287TIP3    H215805   4.289   2.194   2.398
 5288TIP3   OH215806   2.414   0.314   2.497
 5288TIP3    H115807   2.493   0.308   2.444
 5288TIP3    H215808   2.361   0.238   2.470
 5289TIP3   OH215809   2.104   2.174   6.127
 5289TIP3    H115810   2.143   2.098   6.169
 5289TIP3    H215811   2.072   2.228   6.199
 5290TIP3   OH215812   6.758   2.833   3.360
 5290TIP3    H115813   6.684   2.825   3.301
 5290TIP3    H215814   6.763   2.749   3.405
 5291TIP3   OH215815   2.174   4.060   3.571
 5291TIP3    H115816   2.207   4.137   3.523
 5291TIP3    H215817   2.108   4.022   3.513
 5292TIP3   OH215818   7.716   5.201   0.090
 5292TIP3    H115819   7.804   5.172   0.112
 5292TIP3    H215820   7.659   5.147   0.144
 5293TIP3   OH215821   2.099   5.704   4.660
 5293TIP3    H115822   2.061   5.781   4.704
 5293TIP3    H215823   2.104   5.729   4.568
 5294TIP3   OH215824   5.290   1.268   4.199
 5294TIP3    H115825   5.220   1.266   4.265
 5294TIP3    H215826   5.251   1.224   4.123
 5295TIP3   OH215827   5.884   7.084   6.486
 5295TIP3    H115828   5.944   7.147   6.445
 5295TIP3    H215829   5.826   7.057   6.414
 5296TIP3   OH215830   8.028   2.444   5.542
 5296TIP3    H115831   8.048   2.359   5.581
 5296TIP3    H215832   8.080   2.446   5.462
 5297TIP3   OH215833   4.057   5.105   6.468
 5297TIP3    H115834   4.018   5.192   6.466
 5297TIP3    H215835   4.066   5.084   6.561
 5298TIP3   OH215836   7.116   5.682   6.054
 5298TIP3    H115837   7.115   5.775   6.074
 5298TIP3    H215838   7.208   5.656   6.064
 5299TIP3   OH215839   1.241   4.429   3.298
 5299TIP3    H115840   1.190   4.371   3.241
 5299TIP3    H215841   1.286   4.369   3.359
 5300TIP3   OH215842   2.007   6.496   5.957
 5300TIP3    H115843   1.987   6.446   6.036
 5300TIP3    H215844   1.947   6.571   5.961
 5301TIP3   OH215845   3.242   6.190   6.122
 5301TIP3    H115846   3.203   6.107   6.098
 5301TIP3    H215847   3.287   6.220   6.043
 5302TIP3   OH215848   6.507   2.607   0.879
 5302TIP3    H115849   6.499   2.679   0.941
 5302TIP3    H215850   6.450   2.631   0.807
 5303TIP3   OH215851   3.735   7.718   3.229
 5303TIP3    H115852   3.781   7.783   3.282
 5303TIP3    H215853   3.736   7.638   3.282
 5304TIP3   OH215854   2.577   4.872   4.608
 5304TIP3    H115855   2.537   4.791   4.641
 5304TIP3    H215856   2.667   4.869   4.640
 5305TIP3   OH215857   3.541   7.471   4.982
 5305TIP3    H115858   3.603   7.468   5.054
 5305TIP3    H215859   3.582   7.527   4.916
 5306TIP3   OH215860   5.334   7.308   5.530
 5306TIP3    H115861   5.325   7.388   5.582
 5306TIP3    H215862   5.424   7.310   5.498
 5307TIP3   OH215863   3.536   5.620   4.254
 5307TIP3    H115864   3.590   5.549   4.220
 5307TIP3    H215865   3.576   5.642   4.338
 5308TIP3   OH215866   8.257   0.044   1.416
 5308TIP3    H115867   8.299   0.025   1.332
 5308TIP3    H215868   8.182  -0.015   1.419
 5309TIP3   OH215869   3.737   0.533   6.137
 5309TIP3    H115870   3.687   0.605   6.174
 5309TIP3    H215871   3.749   0.472   6.209
 5310TIP3   OH215872   6.107   1.358   4.243
 5310TIP3    H115873   6.186   1.359   4.190
 5310TIP3    H215874   6.039   1.324   4.185
 5311TIP3   OH215875   4.369   6.500   2.794
 5311TIP3    H115876   4.352   6.416   2.838
 5311TIP3    H215877   4.298   6.557   2.824
 5312TIP3   OH215878   4.684   4.661   2.882
 5312TIP3    H115879   4.606   4.712   2.907
 5312TIP3    H215880   4.757   4.719   2.902
 5313TIP3   OH215881   0.161   0.285   4.034
 5313TIP3    H115882   0.069   0.269   4.011
 5313TIP3    H215883   0.194   0.340   3.964
 5314TIP3   OH215884   0.301   3.319   6.280
 5314TIP3    H115885   0.360   3.394   6.293
 5314TIP3    H215886   0.265   3.333   6.192
 5315TIP3   OH215887   5.998   3.255   3.992
 5315TIP3    H115888   6.019   3.250   3.898
 5315TIP3    H215889   6.004   3.348   4.013
 5316TIP3   OH215890   5.743   6.804   4.186
 5316TIP3    H115891   5.795   6.882   4.166
 5316TIP3    H215892   5.717   6.769   4.101
 5317TIP3   OH215893   3.723   4.248   2.407
 5317TIP3    H115894   3.817   4.232   2.421
 5317TIP3    H215895   3.684   4.161   2.403
 5318TIP3   OH215896   2.533   1.729   0.270
 5318TIP3    H115897   2.507   1.646   0.311
 5318TIP3    H215898   2.488   1.729   0.185
 5319TIP3   OH215899   4.123   3.488   5.567
 5319TIP3    H115900   4.146   3.423   5.634
 5319TIP3    H215901   4.158   3.452   5.486
 5320TIP3   OH215902   7.973   1.886   1.050
 5320TIP3    H115903   7.951   1.901   1.142
 5320TIP3    H215904   7.912   1.942   1.002
 5321TIP3   OH215905   2.911   4.590   0.224
 5321TIP3    H115906   2.946   4.511   0.264
 5321TIP3    H215907   2.987   4.646   0.210
 5322TIP3   OH215908   2.078   2.928   4.159
 5322TIP3    H115909   2.090   2.912   4.253
 5322TIP3    H215910   1.983   2.941   4.149
 5323TIP3   OH215911   0.793   0.195   1.331
 5323TIP3    H115912   0.750   0.270   1.290
 5323TIP3    H215913   0.741   0.119   1.305
 5324TIP3   OH215914   1.602   6.062   6.717
 5324TIP3    H115915   1.610   6.029   6.806
 5324TIP3    H215916   1.573   6.152   6.726
 5325TIP3   OH215917   3.857   1.103   3.880
 5325TIP3    H115918   3.869   1.178   3.939
 5325TIP3    H215919   3.790   1.132   3.818
 5326TIP3   OH215920   2.598   6.511   4.452
 5326TIP3    H115921   2.527   6.449   4.469
 5326TIP3    H215922   2.580   6.584   4.512
 5327TIP3   OH215923   4.456   0.871   3.335
 5327TIP3    H115924   4.366   0.860   3.365
 5327TIP3    H215925   4.508   0.826   3.401
 5328TIP3   OH215926   0.027   1.674   1.044
 5328TIP3    H115927   0.118   1.702   1.045
 5328TIP3    H215928  -0.015   1.732   0.981
 5329TIP3   OH215929   1.849   6.731   4.668
 5329TIP3    H115930   1.886   6.792   4.732
 5329TIP3    H215931   1.809   6.787   4.601
 5330TIP3   OH215932   6.240   3.983   1.826
 5330TIP3    H115933   6.280   3.903   1.792
 5330TIP3    H215934   6.258   3.981   1.920
 5331TIP3   OH215935   5.455   3.098   4.422
 5331TIP3    H115936   5.412   3.066   4.501
 5331TIP3    H215937   5.385   3.135   4.369
 5332TIP3   OH215938   1.138   6.371   5.656
 5332TIP3    H115939   1.072   6.351   5.722
 5332TIP3    H215940   1.094   6.429   5.594
 5333TIP3   OH215941   2.121   4.355   4.239
 5333TIP3    H115942   2.135   4.315   4.153
 5333TIP3    H215943   2.209   4.380   4.269
 5334TIP3   OH215944   3.733   3.673   3.427
 5334TIP3    H115945   3.780   3.590   3.421
 5334TIP3    H215946   3.797   3.736   3.459
 5335TIP3   OH215947   7.390   5.020   6.441
 5335TIP3    H115948   7.449   4.968   6.496
 5335TIP3    H215949   7.440   5.036   6.361
 5336TIP3   OH215950   6.799   4.619   4.265
 5336TIP3    H115951   6.732   4.632   4.332
 5336TIP3    H215952   6.856   4.551   4.301
 5337TIP3   OH215953   1.789   6.131   1.426
 5337TIP3    H115954   1.726   6.121   1.497
 5337TIP3    H215955   1.871   6.096   1.461
 5338TIP3   OH215956   1.977   7.152   3.344
 5338TIP3    H115957   1.900   7.145   3.288
 5338TIP3    H215958   2.038   7.088   3.308
 5339TIP3   OH215959   7.818   1.331   2.744
 5339TIP3    H115960   7.911   1.311   2.760
 5339TIP3    H215961   7.800   1.406   2.800
 5340TIP3   OH215962   6.554   2.633   0.474
 5340TIP3    H115963   6.490   2.576   0.517
 5340TIP3    H215964   6.517   2.650   0.387
 5341TIP3   OH215965   0.947   0.492   4.308
 5341TIP3    H115966   1.002   0.516   4.382
 5341TIP3    H215967   0.867   0.544   4.320
 5342TIP3   OH215968   5.863   5.790   6.343
 5342TIP3    H115969   5.947   5.801   6.299
 5342TIP3    H215970   5.872   5.839   6.425
 5343TIP3   OH215971   1.078   5.247   3.439
 5343TIP3    H115972   1.112   5.287   3.358
 5343TIP3    H215973   1.099   5.154   3.430
 5344TIP3   OH215974   4.451   5.115   5.554
 5344TIP3    H115975   4.420   5.063   5.628
 5344TIP3    H215976   4.491   5.051   5.495
 5345TIP3   OH215977   2.568   7.135   6.084
 5345TIP3    H115978   2.647   7.173   6.122
 5345TIP3    H215979   2.593   7.115   5.993
 5346TIP3   OH215980   4.462   5.720   3.636
 5346TIP3    H115981   4.553   5.690   3.631
 5346TIP3    H215982   4.426   5.672   3.711
 5347TIP3   OH215983   6.554   2.124   2.145
 5347TIP3    H115984   6.467   2.162   2.136
 5347TIP3    H215985   6.552   2.080   2.230
 5348TIP3   OH215986   4.713   1.936   6.679
 5348TIP3    H115987   4.631   1.984   6.683
 5348TIP3    H215988   4.696   1.855   6.726
 5349TIP3   OH215989   5.778   0.681   1.260
 5349TIP3    H115990   5.720   0.735   1.314
 5349TIP3    H215991   5.761   0.592   1.290
 5350TIP3   OH215992   7.412   3.613   2.469
 5350TIP3    H115993   7.405   3.709   2.468
 5350TIP3    H215994   7.480   3.595   2.535
 5351TIP3   OH215995   0.147   3.732   1.248
 5351TIP3    H115996   0.199   3.802   1.208
 5351TIP3    H215997   0.167   3.738   1.342
 5352TIP3   OH215998   4.805   6.145   4.811
 5352TIP3    H115999   4.853   6.078   4.763
 5352TIP3    H216000   4.871   6.212   4.831
 5353TIP3   OH216001   3.181   3.119   3.438
 5353TIP3    H116002   3.234   3.195   3.415
 5353TIP3    H216003   3.197   3.056   3.368
 5354TIP3   OH216004   6.753   6.743   3.810
 5354TIP3    H116005   6.806   6.821   3.826
 5354TIP3    H216006   6.666   6.767   3.842
 5355TIP3   OH216007   7.690   6.988   0.033
 5355TIP3    H116008   7.767   6.948   0.072
 5355TIP3    H216009   7.646   7.031   0.106
 5356TIP3   OH216010   7.034   6.218   0.299
 5356TIP3    H116011   7.062   6.309   0.294
 5356TIP3    H216012   7.002   6.207   0.389
 5357TIP3   OH216013   0.104   0.913   4.324
 5357TIP3    H116014   0.137   0.939   4.410
 5357TIP3    H216015   0.129   0.985   4.266
 5358TIP3   OH216016   2.433   3.428   1.136
 5358TIP3    H116017   2.526   3.407   1.132
 5358TIP3    H216018   2.416   3.446   1.229
 5359TIP3   OH216019   6.287   1.853   5.099
 5359TIP3    H116020   6.284   1.865   5.004
 5359TIP3    H216021   6.199   1.824   5.123
 5360TIP3   OH216022   7.425   7.783   3.334
 5360TIP3    H116023   7.335   7.807   3.311
 5360TIP3    H216024   7.436   7.696   3.297
 5361TIP3   OH216025   5.057   2.524   0.790
 5361TIP3    H116026   5.124   2.558   0.850
 5361TIP3    H216027   5.096   2.533   0.704
 5362TIP3   OH216028   0.074   6.742   1.719
 5362TIP3    H116029  -0.011   6.726   1.760
 5362TIP3    H216030   0.054   6.754   1.626
 5363TIP3   OH216031   3.591   6.899   4.323
 5363TIP3    H116032   3.531   6.971   4.304
 5363TIP3    H216033   3.537   6.834   4.368
 5364TIP3   OH216034   5.490   0.612   5.954
 5364TIP3    H116035   5.506   0.706   5.964
 5364TIP3    H216036   5.512   0.594   5.863
 5365TIP3   OH216037   7.344   0.105   6.347
 5365TIP3    H116038   7.285   0.172   6.312
 5365TIP3    H216039   7.414   0.155   6.390
 5366TIP3   OH216040   4.135   0.535   6.440
 5366TIP3    H116041   4.050   0.522   6.398
 5366TIP3    H216042   4.114   0.567   6.527
 5367TIP3   OH216043   2.091   6.309   1.935
 5367TIP3    H116044   2.111   6.257   2.013
 5367TIP3    H216045   2.170   6.361   1.919
 5368TIP3   OH216046   1.948   1.427   4.504
 5368TIP3    H116047   1.931   1.354   4.445
 5368TIP3    H216048   1.939   1.505   4.449
 5369TIP3   OH216049   6.978   6.178   6.114
 5369TIP3    H116050   7.018   6.093   6.096
 5369TIP3    H216051   7.026   6.211   6.190
 5370TIP3   OH216052   2.748   0.579   2.554
 5370TIP3    H116053   2.715   0.561   2.642
 5370TIP3    H216054   2.835   0.538   2.552
 5371TIP3   OH216055   4.262   5.011   3.284
 5371TIP3    H116056   4.248   5.021   3.189
 5371TIP3    H216057   4.181   5.042   3.323
 5372TIP3   OH216058   3.318   2.196   5.124
 5372TIP3    H116059   3.247   2.219   5.063
 5372TIP3    H216060   3.352   2.114   5.091
 5373TIP3   OH216061   3.002   5.807   5.407
 5373TIP3    H116062   2.947   5.730   5.392
 5373TIP3    H216063   2.964   5.876   5.352
 5374TIP3   OH216064   2.172   3.310   1.156
 5374TIP3    H116065   2.176   3.215   1.154
 5374TIP3    H216066   2.264   3.338   1.149
 5375TIP3   OH216067   1.784   5.253   3.729
 5375TIP3    H116068   1.863   5.273   3.679
 5375TIP3    H216069   1.714   5.294   3.679
 5376TIP3   OH216070   5.480   3.644   4.048
 5376TIP3    H116071   5.557   3.643   4.104
 5376TIP3    H216072   5.406   3.635   4.109
 5377TIP3   OH216073   7.636   5.476   5.532
 5377TIP3    H116074   7.586   5.552   5.503
 5377TIP3    H216075   7.717   5.512   5.567
 5378TIP3   OH216076   5.940   4.329   2.035
 5378TIP3    H116077   5.867   4.361   2.088
 5378TIP3    H216078   5.958   4.241   2.070
 5379TIP3   OH216079   4.706   5.027   1.486
 5379TIP3    H116080   4.629   5.055   1.436
 5379TIP3    H216081   4.747   5.108   1.515
 5380TIP3   OH216082   6.390   4.021   4.753
 5380TIP3    H116083   6.417   3.955   4.818
 5380TIP3    H216084   6.310   3.985   4.714
 5381TIP3   OH216085   3.384   4.020   0.112
 5381TIP3    H116086   3.310   3.995   0.056
 5381TIP3    H216087   3.431   4.086   0.062
 5382TIP3   OH216088   6.229   7.371   0.101
 5382TIP3    H116089   6.267   7.322   0.173
 5382TIP3    H216090   6.214   7.459   0.137
 5383TIP3   OH216091   3.608   5.682   1.330
 5383TIP3    H116092   3.625   5.602   1.380
 5383TIP3    H216093   3.686   5.693   1.275
 5384TIP3   OH216094   1.245   7.329   1.163
 5384TIP3    H116095   1.316   7.266   1.174
 5384TIP3    H216096   1.170   7.276   1.137
 5385TIP3   OH216097   7.681   3.103   0.465
 5385TIP3    H116098   7.723   3.104   0.379
 5385TIP3    H216099   7.591   3.130   0.448
 5386TIP3   OH216100   2.826   3.056   3.590
 5386TIP3    H116101   2.917   3.044   3.619
 5386TIP3    H216102   2.828   3.032   3.497
 5387TIP3   OH216103   1.086   6.709   3.679
 5387TIP3    H116104   1.101   6.762   3.602
 5387TIP3    H216105   1.131   6.626   3.661
 5388TIP3   OH216106   0.250   1.546   5.783
 5388TIP3    H116107   0.322   1.517   5.839
 5388TIP3    H216108   0.271   1.511   5.697
 5389TIP3   OH216109   7.928   3.623   2.551
 5389TIP3    H116110   7.944   3.581   2.636
 5389TIP3    H216111   7.998   3.591   2.495
 5390TIP3   OH216112   7.111   1.759   6.115
 5390TIP3    H116113   7.016   1.757   6.126
 5390TIP3    H216114   7.141   1.674   6.149
 5391TIP3   OH216115   0.631   6.893   2.050
 5391TIP3    H116116   0.635   6.856   1.962
 5391TIP3    H216117   0.539   6.888   2.074
 5392TIP3   OH216118   3.411   7.588   0.530
 5392TIP3    H116119   3.436   7.526   0.598
 5392TIP3    H216120   3.422   7.674   0.571
 5393TIP3   OH216121   1.324   6.608   1.235
 5393TIP3    H116122   1.335   6.543   1.166
 5393TIP3    H216123   1.229   6.612   1.248
 5394TIP3   OH216124   5.302   4.217   5.119
 5394TIP3    H116125   5.210   4.225   5.147
 5394TIP3    H216126   5.298   4.220   5.023
 5395TIP3   OH216127   1.647   5.505   0.952
 5395TIP3    H116128   1.620   5.444   1.021
 5395TIP3    H216129   1.678   5.582   0.999
 5396TIP3   OH216130   2.001   6.335   2.964
 5396TIP3    H116131   2.018   6.429   2.969
 5396TIP3    H216132   2.064   6.295   3.023
 5397TIP3   OH216133   6.420   0.502   4.531
 5397TIP3    H116134   6.344   0.444   4.527
 5397TIP3    H216135   6.494   0.443   4.546
 5398TIP3   OH216136   2.800   1.919   4.165
 5398TIP3    H116137   2.833   1.897   4.252
 5398TIP3    H216138   2.847   1.998   4.141
 5399TIP3   OH216139   7.763   4.027   5.656
 5399TIP3    H116140   7.827   4.042   5.725
 5399TIP3    H216141   7.706   4.104   5.659
 5400TIP3   OH216142   4.893   7.758   2.841
 5400TIP3    H116143   4.823   7.730   2.783
 5400TIP3    H216144   4.897   7.853   2.831
 5401TIP3   OH216145   5.537   6.056   1.135
 5401TIP3    H116146   5.453   6.102   1.125
 5401TIP3    H216147   5.591   6.088   1.063
 5402TIP3   OH216148   1.763   6.908   4.479
 5402TIP3    H116149   1.741   6.996   4.448
 5402TIP3    H216150   1.743   6.851   4.406
 5403TIP3   OH216151   7.790   5.084   4.268
 5403TIP3    H116152   7.760   5.167   4.232
 5403TIP3    H216153   7.775   5.020   4.198
 5404TIP3   OH216154   6.832   3.986   4.082
 5404TIP3    H116155   6.763   3.987   4.148
 5404TIP3    H216156   6.785   3.978   3.999
 5405TIP3   OH216157   2.138   1.967   1.086
 5405TIP3    H116158   2.117   2.001   0.999
 5405TIP3    H216159   2.063   1.991   1.140
 5406TIP3   OH216160   4.130   5.457   0.765
 5406TIP3    H116161   4.192   5.419   0.703
 5406TIP3    H216162   4.149   5.413   0.848
 5407TIP3   OH216163   5.216   1.426   1.045
 5407TIP3    H116164   5.239   1.338   1.076
 5407TIP3    H216165   5.128   1.415   1.009
 5408TIP3   OH216166   6.821   4.055   5.754
 5408TIP3    H116167   6.848   4.147   5.753
 5408TIP3    H216168   6.752   4.050   5.688
 5409TIP3   OH216169   6.090   1.223   0.025
 5409TIP3    H116170   6.112   1.186   0.110
 5409TIP3    H216171   6.147   1.299   0.016
 5410TIP3   OH216172   3.802   5.677   2.446
 5410TIP3    H116173   3.819   5.713   2.359
 5410TIP3    H216174   3.710   5.650   2.442
 5411TIP3   OH216175   1.673   3.485   3.294
 5411TIP3    H116176   1.625   3.514   3.371
 5411TIP3    H216177   1.732   3.417   3.327
 5412TIP3   OH216178   5.483   6.720   1.078
 5412TIP3    H116179   5.511   6.630   1.062
 5412TIP3    H216180   5.482   6.760   0.991
 5413TIP3   OH216181   4.048   3.997   5.626
 5413TIP3    H116182   3.968   3.954   5.657
 5413TIP3    H216183   4.109   3.990   5.700
 5414TIP3   OH216184   6.349   5.753   4.112
 5414TIP3    H116185   6.266   5.800   4.120
 5414TIP3    H216186   6.324   5.661   4.107
 5415TIP3   OH216187   4.542   2.169   6.308
 5415TIP3    H116188   4.565   2.217   6.228
 5415TIP3    H216189   4.620   2.178   6.363
 5416TIP3   OH216190   5.494   7.347   1.679
 5416TIP3    H116191   5.457   7.424   1.636
 5416TIP3    H216192   5.587   7.368   1.691
 5417TIP3   OH216193   8.084   1.296   2.799
 5417TIP3    H116194   8.153   1.337   2.748
 5417TIP3    H216195   8.130   1.249   2.869
 5418TIP3   OH216196   7.726   3.412   5.674
 5418TIP3    H116197   7.707   3.411   5.768
 5418TIP3    H216198   7.711   3.503   5.648
 5419TIP3   OH216199   3.755   2.864   0.644
 5419TIP3    H116200   3.750   2.959   0.649
 5419TIP3    H216201   3.845   2.843   0.672
 5420TIP3   OH216202   8.133   2.586   0.079
 5420TIP3    H116203   8.046   2.570   0.116
 5420TIP3    H216204   8.167   2.499   0.057
 5421TIP3   OH216205   6.426   1.818   0.798
 5421TIP3    H116206   6.513   1.856   0.783
 5421TIP3    H216207   6.404   1.773   0.717
 5422TIP3   OH216208   6.384   0.256   2.334
 5422TIP3    H116209   6.337   0.338   2.349
 5422TIP3    H216210   6.409   0.226   2.421
 5423TIP3   OH216211   0.245   6.427   2.809
 5423TIP3    H116212   0.157   6.413   2.843
 5423TIP3    H216213   0.300   6.365   2.856
 5424TIP3   OH216214   1.671   7.468   5.285
 5424TIP3    H116215   1.602   7.463   5.219
 5424TIP3    H216216   1.690   7.377   5.307
 5425TIP3   OH216217   0.850   5.069   6.038
 5425TIP3    H116218   0.785   5.120   5.990
 5425TIP3    H216219   0.910   5.036   5.971
 5426TIP3   OH216220   7.071   1.341   1.527
 5426TIP3    H116221   7.017   1.360   1.604
 5426TIP3    H216222   7.084   1.426   1.486
 5427TIP3   OH216223   6.922   5.017   0.032
 5427TIP3    H116224   6.890   4.951  -0.030
 5427TIP3    H216225   6.850   5.079   0.041
 5428TIP3   OH216226   7.706   3.414   1.242
 5428TIP3    H116227   7.645   3.365   1.187
 5428TIP3    H216228   7.676   3.400   1.331
 5429TIP3   OH216229   7.180   2.236   6.464
 5429TIP3    H116230   7.198   2.145   6.488
 5429TIP3    H216231   7.087   2.236   6.439
 5430TIP3   OH216232   7.387   3.321   0.265
 5430TIP3    H116233   7.387   3.282   0.353
 5430TIP3    H216234   7.336   3.260   0.212
 5431TIP3   OH216235   2.416   6.191   5.321
 5431TIP3    H116236   2.476   6.145   5.262
 5431TIP3    H216237   2.468   6.209   5.398
 5432TIP3   OH216238   4.293   1.329   6.474
 5432TIP3    H116239   4.217   1.325   6.416
 5432TIP3    H216240   4.344   1.403   6.441
 5433TIP3   OH216241   3.003   2.997   2.342
 5433TIP3    H116242   2.913   2.986   2.312
 5433TIP3    H216243   3.049   2.919   2.310
 5434TIP3   OH216244   7.916   0.057   5.213
 5434TIP3    H116245   7.866   0.082   5.291
 5434TIP3    H216246   7.955   0.139   5.183
 5435TIP3   OH216247   5.770   1.766   0.910
 5435TIP3    H116248   5.785   1.860   0.922
 5435TIP3    H216249   5.828   1.741   0.838
 5436TIP3   OH216250   2.227   2.762   3.316
 5436TIP3    H116251   2.216   2.819   3.392
 5436TIP3    H216252   2.224   2.822   3.241
 5437TIP3   OH216253   6.398   0.674   5.099
 5437TIP3    H116254   6.487   0.660   5.130
 5437TIP3    H216255   6.373   0.591   5.059
 5438TIP3   OH216256   3.923   2.087   1.143
 5438TIP3    H116257   3.859   2.150   1.111
 5438TIP3    H216258   3.901   2.075   1.236
 5439TIP3   OH216259   7.881   0.237   6.445
 5439TIP3    H116260   7.886   0.309   6.508
 5439TIP3    H216261   7.798   0.251   6.399
 5440TIP3   OH216262   0.919   6.822   4.605
 5440TIP3    H116263   0.856   6.809   4.534
 5440TIP3    H216264   0.973   6.895   4.575
 5441TIP3   OH216265   5.524   6.050   6.757
 5441TIP3    H116266   5.517   6.036   6.852
 5441TIP3    H216267   5.450   6.108   6.736
 5442TIP3   OH216268   4.427   1.289   4.698
 5442TIP3    H116269   4.355   1.254   4.646
 5442TIP3    H216270   4.444   1.221   4.764
 5443TIP3   OH216271   3.821   4.526   3.063
 5443TIP3    H116272   3.822   4.499   3.155
 5443TIP3    H216273   3.892   4.476   3.023
 5444TIP3   OH216274   0.196   4.781   0.754
 5444TIP3    H116275   0.224   4.743   0.670
 5444TIP3    H216276   0.156   4.708   0.801
 5445TIP3   OH216277   7.776   5.935   4.912
 5445TIP3    H116278   7.842   5.877   4.951
 5445TIP3    H216279   7.738   5.882   4.842
 5446TIP3   OH216280   7.234   2.855   0.605
 5446TIP3    H116281   7.205   2.942   0.579
 5446TIP3    H216282   7.249   2.808   0.523
 5447TIP3   OH216283   5.196   3.900   2.385
 5447TIP3    H116284   5.117   3.893   2.331
 5447TIP3    H216285   5.209   3.812   2.420
 5448TIP3   OH216286   0.397   2.171   1.122
 5448TIP3    H116287   0.380   2.117   1.045
 5448TIP3    H216288   0.483   2.143   1.152
 5449TIP3   OH216289   3.454   2.644   1.737
 5449TIP3    H116290   3.483   2.673   1.651
 5449TIP3    H216291   3.477   2.551   1.740
 5450TIP3   OH216292   1.137   2.736   1.791
 5450TIP3    H116293   1.199   2.668   1.766
 5450TIP3    H216294   1.059   2.718   1.738
 5451TIP3   OH216295   1.372   1.780   2.492
 5451TIP3    H116296   1.419   1.704   2.526
 5451TIP3    H216297   1.315   1.745   2.423
 5452TIP3   OH216298   8.123   0.775   1.662
 5452TIP3    H116299   8.050   0.783   1.723
 5452TIP3    H216300   8.107   0.844   1.597
 5453TIP3   OH216301   4.965   1.446   3.876
 5453TIP3    H116302   4.990   1.358   3.848
 5453TIP3    H216303   5.040   1.478   3.926
 5454TIP3   OH216304   3.268   4.921   2.648
 5454TIP3    H116305   3.190   4.876   2.615
 5454TIP3    H216306   3.340   4.885   2.596
 5455TIP3   OH216307   0.561   4.926   6.193
 5455TIP3    H116308   0.523   4.986   6.129
 5455TIP3    H216309   0.637   4.974   6.228
 5456TIP3   OH216310   0.690   6.377   3.500
 5456TIP3    H116311   0.674   6.463   3.538
 5456TIP3    H216312   0.713   6.322   3.575
 5457TIP3   OH216313   7.423   0.052   4.129
 5457TIP3    H116314   7.486  -0.020   4.127
 5457TIP3    H216315   7.408   0.073   4.037
 5458TIP3   OH216316   4.536   5.188   5.960
 5458TIP3    H116317   4.620   5.232   5.949
 5458TIP3    H216318   4.550   5.126   6.031
 5459TIP3   OH216319   2.209   7.065   5.287
 5459TIP3    H116320   2.258   7.033   5.212
 5459TIP3    H216321   2.202   6.989   5.345
 5460TIP3   OH216322   4.625   0.440   6.198
 5460TIP3    H116323   4.620   0.363   6.254
 5460TIP3    H216324   4.620   0.406   6.108
 5461TIP3   OH216325   3.397   3.684   5.656
 5461TIP3    H116326   3.397   3.686   5.560
 5461TIP3    H216327   3.335   3.752   5.681
 5462TIP3   OH216328   0.392   5.400   5.686
 5462TIP3    H116329   0.459   5.441   5.741
 5462TIP3    H216330   0.420   5.309   5.679
 5463TIP3   OH216331   3.515   5.058   3.968
 5463TIP3    H116332   3.546   5.117   4.037
 5463TIP3    H216333   3.533   5.106   3.887
 5464TIP3   OH216334   3.674   4.924   6.124
 5464TIP3    H116335   3.658   4.995   6.061
 5464TIP3    H216336   3.740   4.958   6.183
 5465TIP3   OH216337   6.244   0.934   6.596
 5465TIP3    H116338   6.216   0.956   6.508
 5465TIP3    H216339   6.309   1.001   6.618
 5466TIP3   OH216340   5.570   0.496   5.707
 5466TIP3    H116341   5.638   0.485   5.641
 5466TIP3    H216342   5.492   0.459   5.668
 5467TIP3   OH216343   1.958   2.573   1.825
 5467TIP3    H116344   2.036   2.602   1.872
 5467TIP3    H216345   1.957   2.478   1.835
 5468TIP3   OH216346   5.169   4.504   5.296
 5468TIP3    H116347   5.169   4.508   5.200
 5468TIP3    H216348   5.109   4.574   5.323
 5469TIP3   OH216349   2.769   0.032   1.663
 5469TIP3    H116350   2.837  -0.017   1.616
 5469TIP3    H216351   2.748   0.105   1.605
 5470TIP3   OH216352   1.177   6.875   1.143
 5470TIP3    H116353   1.138   6.788   1.137
 5470TIP3    H216354   1.263   6.866   1.100
 5471TIP3   OH216355   3.078   5.249   0.342
 5471TIP3    H116356   3.159   5.215   0.380
 5471TIP3    H216357   3.033   5.292   0.415
 5472TIP3   OH216358   0.788   4.131   2.822
 5472TIP3    H116359   0.775   4.159   2.732
 5472TIP3    H216360   0.746   4.046   2.827
 5473TIP3   OH216361   6.878   7.603   2.612
 5473TIP3    H116362   6.873   7.698   2.598
 5473TIP3    H216363   6.790   7.578   2.641
 5474TIP3   OH216364   2.206   7.643   2.168
 5474TIP3    H116365   2.192   7.662   2.261
 5474TIP3    H216366   2.296   7.672   2.151
 5475TIP3   OH216367   4.259   2.817   0.696
 5475TIP3    H116368   4.288   2.890   0.642
 5475TIP3    H216369   4.334   2.798   0.753
 5476TIP3   OH216370   0.629   1.152   3.787
 5476TIP3    H116371   0.549   1.145   3.734
 5476TIP3    H216372   0.662   1.240   3.768
 5477TIP3   OH216373   6.870   6.866   2.877
 5477TIP3    H116374   6.850   6.798   2.940
 5477TIP3    H216375   6.843   6.830   2.792
 5478TIP3   OH216376   0.736   1.603   3.569
 5478TIP3    H116377   0.696   1.626   3.485
 5478TIP3    H216378   0.796   1.675   3.587
 5479TIP3   OH216379   6.056   7.290   6.378
 5479TIP3    H116380   6.103   7.234   6.316
 5479TIP3    H216381   6.008   7.352   6.323
 5480TIP3   OH216382   1.479   0.555   3.764
 5480TIP3    H116383   1.513   0.481   3.814
 5480TIP3    H216384   1.491   0.631   3.822
 5481TIP3   OH216385   6.961   5.208   2.737
 5481TIP3    H116386   6.886   5.220   2.795
 5481TIP3    H216387   7.024   5.273   2.765
 5482TIP3   OH216388   2.231   1.676   2.103
 5482TIP3    H116389   2.257   1.692   2.194
 5482TIP3    H216390   2.199   1.760   2.071
 5483TIP3   OH216391   8.111   3.970   6.269
 5483TIP3    H116392   8.160   4.021   6.205
 5483TIP3    H216393   8.174   3.908   6.305
 5484TIP3   OH216394   3.788   5.869   2.826
 5484TIP3    H116395   3.766   5.960   2.805
 5484TIP3    H216396   3.853   5.845   2.760
 5485TIP3   OH216397   2.106   2.457   6.640
 5485TIP3    H116398   2.190   2.502   6.650
 5485TIP3    H216399   2.128   2.374   6.596
 5486TIP3   OH216400   5.238   4.696   3.175
 5486TIP3    H116401   5.322   4.683   3.220
 5486TIP3    H216402   5.246   4.782   3.133
 5487TIP3   OH216403   1.517   1.642   4.671
 5487TIP3    H116404   1.495   1.734   4.688
 5487TIP3    H216405   1.505   1.599   4.755
 5488TIP3   OH216406   4.492   1.647   6.458
 5488TIP3    H116407   4.508   1.741   6.450
 5488TIP3    H216408   4.579   1.607   6.451
 5489TIP3   OH216409   0.945   6.162   4.486
 5489TIP3    H116410   1.014   6.194   4.544
 5489TIP3    H216411   0.912   6.083   4.529
 5490TIP3   OH216412   6.529   3.543   4.005
 5490TIP3    H116413   6.618   3.510   4.001
 5490TIP3    H216414   6.534   3.620   4.062
 5491TIP3   OH216415   7.555   6.536   5.397
 5491TIP3    H116416   7.520   6.542   5.308
 5491TIP3    H216417   7.500   6.471   5.440
 5492TIP3   OH216418   2.443   0.422   3.065
 5492TIP3    H116419   2.379   0.410   3.135
 5492TIP3    H216420   2.520   0.460   3.108
 5493TIP3   OH216421   3.582   5.310   2.299
 5493TIP3    H116422   3.550   5.270   2.218
 5493TIP3    H216423   3.586   5.237   2.361
 5494TIP3   OH216424   0.789   1.672   1.439
 5494TIP3    H116425   0.762   1.616   1.512
 5494TIP3    H216426   0.832   1.612   1.378
 5495TIP3   OH216427   5.724   5.529   4.847
 5495TIP3    H116428   5.640   5.566   4.873
 5495TIP3    H216429   5.753   5.584   4.774
 5496TIP3   OH216430   8.209   3.083   6.439
 5496TIP3    H116431   8.295   3.124   6.440
 5496TIP3    H216432   8.193   3.058   6.530
 5497TIP3   OH216433   3.132   3.452   1.089
 5497TIP3    H116434   3.095   3.372   1.049
 5497TIP3    H216435   3.058   3.494   1.132
 5498TIP3   OH216436   0.269   5.830   6.756
 5498TIP3    H116437   0.354   5.791   6.739
 5498TIP3    H216438   0.224   5.828   6.672
 5499TIP3   OH216439   7.896   3.540   6.440
 5499TIP3    H116440   7.991   3.533   6.452
 5499TIP3    H216441   7.884   3.612   6.378
 5500TIP3   OH216442   7.479   7.273   5.032
 5500TIP3    H116443   7.499   7.354   5.079
 5500TIP3    H216444   7.537   7.208   5.072
 5501TIP3   OH216445   2.054   7.242   6.614
 5501TIP3    H116446   2.132   7.197   6.648
 5501TIP3    H216447   2.045   7.320   6.669
 5502TIP3   OH216448   6.251   1.718   3.022
 5502TIP3    H116449   6.226   1.704   2.931
 5502TIP3    H216450   6.203   1.797   3.048
 5503TIP3   OH216451   2.312   1.714   4.869
 5503TIP3    H116452   2.256   1.758   4.934
 5503TIP3    H216453   2.374   1.664   4.921
 5504TIP3   OH216454   0.350   2.065   1.908
 5504TIP3    H116455   0.275   2.045   1.853
 5504TIP3    H216456   0.422   2.015   1.870
 5505TIP3   OH216457   2.453   7.575   0.202
 5505TIP3    H116458   2.403   7.655   0.188
 5505TIP3    H216459   2.392   7.504   0.181
 5506TIP3   OH216460   4.564   1.404   1.697
 5506TIP3    H116461   4.488   1.370   1.649
 5506TIP3    H216462   4.570   1.495   1.670
 5507TIP3   OH216463   6.042   6.336   3.985
 5507TIP3    H116464   6.014   6.245   3.975
 5507TIP3    H216465   6.101   6.351   3.911
 5508TIP3   OH216466   2.736   6.055   1.832
 5508TIP3    H116467   2.757   6.101   1.914
 5508TIP3    H216468   2.715   5.966   1.859
 5509TIP3   OH216469   8.030   1.991   6.364
 5509TIP3    H116470   7.949   2.036   6.385
 5509TIP3    H216471   8.094   2.061   6.352
 5510TIP3   OH216472   7.397   1.877   0.623
 5510TIP3    H116473   7.395   1.784   0.648
 5510TIP3    H216474   7.476   1.885   0.569
 5511TIP3   OH216475   0.937   4.894   5.818
 5511TIP3    H116476   0.952   4.914   5.726
 5511TIP3    H216477   0.940   4.798   5.823
 5512TIP3   OH216478   6.607   7.693   2.665
 5512TIP3    H116479   6.583   7.640   2.741
 5512TIP3    H216480   6.538   7.677   2.601
 5513TIP3   OH216481   2.920   3.506   5.807
 5513TIP3    H116482   2.892   3.494   5.898
 5513TIP3    H216483   2.845   3.474   5.756
 5514TIP3   OH216484   6.414   5.534   5.650
 5514TIP3    H116485   6.470   5.606   5.620
 5514TIP3    H216486   6.427   5.531   5.744
 5515TIP3   OH216487   5.345   7.539   3.956
 5515TIP3    H116488   5.433   7.565   3.930
 5515TIP3    H216489   5.335   7.449   3.924
 5516TIP3   OH216490   8.028   2.218   0.098
 5516TIP3    H116491   8.028   2.212   0.193
 5516TIP3    H216492   7.936   2.231   0.075
 5517TIP3   OH216493   0.965   5.525   4.275
 5517TIP3    H116494   0.974   5.499   4.366
 5517TIP3    H216495   0.895   5.469   4.241
 5518TIP3   OH216496   1.794   5.289   5.298
 5518TIP3    H116497   1.780   5.226   5.368
 5518TIP3    H216498   1.797   5.235   5.218
 5519TIP3   OH216499   1.099   6.446   0.251
 5519TIP3    H116500   1.194   6.459   0.258
 5519TIP3    H216501   1.071   6.508   0.184
 5520TIP3   OH216502   2.570   3.529   4.087
 5520TIP3    H116503   2.477   3.543   4.073
 5520TIP3    H216504   2.575   3.475   4.167
 5521TIP3   OH216505   5.698   7.185   4.233
 5521TIP3    H116506   5.716   7.209   4.324
 5521TIP3    H216507   5.773   7.219   4.185
 5522TIP3   OH216508   3.765   1.383   5.820
 5522TIP3    H116509   3.845   1.334   5.838
 5522TIP3    H216510   3.694   1.327   5.852
 5523TIP3   OH216511   4.544   3.493   1.758
 5523TIP3    H116512   4.596   3.418   1.729
 5523TIP3    H216513   4.554   3.495   1.853
 5524TIP3   OH216514   3.280   0.638   4.152
 5524TIP3    H116515   3.330   0.659   4.231
 5524TIP3    H216516   3.345   0.601   4.092
 5525TIP3   OH216517   8.061   6.003   3.940
 5525TIP3    H116518   8.041   6.006   3.847
 5525TIP3    H216519   7.977   6.022   3.983
 5526TIP3   OH216520   5.330   3.239   3.654
 5526TIP3    H116521   5.283   3.285   3.585
 5526TIP3    H216522   5.266   3.177   3.689
 5527TIP3   OH216523   0.680   0.783   0.493
 5527TIP3    H116524   0.678   0.877   0.474
 5527TIP3    H216525   0.592   0.753   0.473
 5528TIP3   OH216526   0.585   6.730   0.286
 5528TIP3    H116527   0.532   6.719   0.365
 5528TIP3    H216528   0.540   6.798   0.236
 5529TIP3   OH216529   1.230   6.977   5.767
 5529TIP3    H116530   1.159   7.028   5.727
 5529TIP3    H216531   1.245   6.905   5.707
 5530TIP3   OH216532   1.482   1.602   0.236
 5530TIP3    H116533   1.522   1.660   0.301
 5530TIP3    H216534   1.409   1.653   0.200
 5531TIP3   OH216535   1.376   7.049   5.489
 5531TIP3    H116536   1.460   7.009   5.463
 5531TIP3    H216537   1.395   7.142   5.495
 5532TIP3   OH216538   7.365   3.031   5.004
 5532TIP3    H116539   7.371   3.119   5.041
 5532TIP3    H216540   7.449   2.990   5.025
 5533TIP3   OH216541   4.650   2.101   0.274
 5533TIP3    H116542   4.643   2.029   0.211
 5533TIP3    H216543   4.645   2.058   0.359
 5534TIP3   OH216544   7.817   1.424   1.713
 5534TIP3    H116545   7.737   1.475   1.697
 5534TIP3    H216546   7.863   1.425   1.629
 5535TIP3   OH216547   7.372   7.674   0.312
 5535TIP3    H116548   7.342   7.763   0.290
 5535TIP3    H216549   7.309   7.643   0.376
 5536TIP3   OH216550   6.055   3.960   1.474
 5536TIP3    H116551   5.983   3.977   1.413
 5536TIP3    H216552   6.132   3.998   1.431
 5537TIP3   OH216553   7.791   2.086   1.536
 5537TIP3    H116554   7.724   2.018   1.530
 5537TIP3    H216555   7.745   2.167   1.514
 5538TIP3   OH216556   2.457   3.612   5.139
 5538TIP3    H116557   2.367   3.581   5.154
 5538TIP3    H216558   2.506   3.578   5.213
 5539TIP3   OH216559   0.192   4.254   2.773
 5539TIP3    H116560   0.254   4.327   2.771
 5539TIP3    H216561   0.237   4.184   2.726
 5540TIP3   OH216562   7.987   4.765   0.700
 5540TIP3    H116563   7.927   4.809   0.640
 5540TIP3    H216564   8.071   4.809   0.687
 5541TIP3   OH216565   3.947   5.982   5.459
 5541TIP3    H116566   3.967   5.987   5.553
 5541TIP3    H216567   3.871   6.039   5.448
 5542TIP3   OH216568   2.559   1.285   3.396
 5542TIP3    H116569   2.634   1.319   3.446
 5542TIP3    H216570   2.574   1.314   3.307
 5543TIP3   OH216571   4.838   0.562   6.323
 5543TIP3    H116572   4.765   0.528   6.271
 5543TIP3    H216573   4.916   0.522   6.283
 5544TIP3   OH216574   3.679   0.763   6.442
 5544TIP3    H116575   3.611   0.828   6.426
 5544TIP3    H216576   3.758   0.801   6.404
 5545TIP3   OH216577   7.240   4.902   1.211
 5545TIP3    H116578   7.250   4.808   1.230
 5545TIP3    H216579   7.166   4.907   1.151
 5546TIP3   OH216580   6.290   3.590   1.564
 5546TIP3    H116581   6.275   3.545   1.648
 5546TIP3    H216582   6.312   3.520   1.503
 5547TIP3   OH216583   7.828   4.561   4.974
 5547TIP3    H116584   7.783   4.480   4.998
 5547TIP3    H216585   7.758   4.621   4.949
 5548TIP3   OH216586   5.748   1.959   1.621
 5548TIP3    H116587   5.758   2.036   1.565
 5548TIP3    H216588   5.786   1.887   1.571
 5549TIP3   OH216589   8.140   1.449   1.740
 5549TIP3    H116590   8.205   1.435   1.809
 5549TIP3    H216591   8.058   1.415   1.778
 5550TIP3   OH216592   3.550   7.762   0.213
 5550TIP3    H116593   3.623   7.741   0.272
 5550TIP3    H216594   3.489   7.689   0.223
 5551TIP3   OH216595   7.756   2.289   0.104
 5551TIP3    H116596   7.694   2.220   0.078
 5551TIP3    H216597   7.723   2.319   0.188
 5552TIP3   OH216598   1.225   1.750   5.225
 5552TIP3    H116599   1.306   1.796   5.205
 5552TIP3    H216600   1.205   1.776   5.315
 5553TIP3   OH216601   6.903   6.866   4.732
 5553TIP3    H116602   6.848   6.885   4.808
 5553TIP3    H216603   6.842   6.839   4.664
 5554TIP3   OH216604   0.957   7.491   3.567
 5554TIP3    H116605   0.914   7.406   3.554
 5554TIP3    H216606   1.036   7.470   3.617
 5555TIP3   OH216607   5.577   5.063   5.756
 5555TIP3    H116608   5.641   5.032   5.820
 5555TIP3    H216609   5.548   5.148   5.791
 5556TIP3   OH216610   5.464   1.434   0.319
 5556TIP3    H116611   5.445   1.505   0.380
 5556TIP3    H216612   5.381   1.418   0.274
 5557TIP3   OH216613   7.041   0.056   3.672
 5557TIP3    H116614   7.047   0.144   3.637
 5557TIP3    H216615   7.084   0.001   3.607
 5558TIP3   OH216616   8.193   5.948   5.343
 5558TIP3    H116617   8.169   6.040   5.335
 5558TIP3    H216618   8.289   5.947   5.337
 5559TIP3   OH216619   7.566   2.810   3.851
 5559TIP3    H116620   7.609   2.892   3.826
 5559TIP3    H216621   7.517   2.785   3.772
 5560TIP3   OH216622   8.243   6.362   4.441
 5560TIP3    H116623   8.177   6.318   4.388
 5560TIP3    H216624   8.297   6.291   4.476
 5561TIP3   OH216625   7.500   3.162   3.508
 5561TIP3    H116626   7.538   3.139   3.423
 5561TIP3    H216627   7.428   3.100   3.520
 5562TIP3   OH216628   1.887   6.680   3.848
 5562TIP3    H116629   1.912   6.760   3.895
 5562TIP3    H216630   1.887   6.612   3.916
 5563TIP3   OH216631   5.456   6.915   1.530
 5563TIP3    H116632   5.478   6.878   1.445
 5563TIP3    H216633   5.388   6.980   1.511
 5564TIP3   OH216634   3.481   4.797   2.536
 5564TIP3    H116635   3.506   4.778   2.445
 5564TIP3    H216636   3.458   4.711   2.572
 5565TIP3   OH216637   2.720   3.788   6.053
 5565TIP3    H116638   2.775   3.806   6.130
 5565TIP3    H216639   2.769   3.724   6.003
 5566TIP3   OH216640   2.332   4.752   2.854
 5566TIP3    H116641   2.240   4.775   2.865
 5566TIP3    H216642   2.340   4.667   2.899
 5567TIP3   OH216643   5.598   0.777   2.220
 5567TIP3    H116644   5.521   0.827   2.193
 5567TIP3    H216645   5.635   0.746   2.137
 5568TIP3   OH216646   5.758   1.327   3.267
 5568TIP3    H116647   5.767   1.232   3.278
 5568TIP3    H216648   5.668   1.339   3.236
 5569TIP3   OH216649   3.052   3.666   3.273
 5569TIP3    H116650   3.028   3.720   3.199
 5569TIP3    H216651   3.126   3.712   3.313
 5570TIP3   OH216652   7.866   4.555   6.332
 5570TIP3    H116653   7.794   4.618   6.341
 5570TIP3    H216654   7.843   4.483   6.390
 5571TIP3   OH216655   2.402   6.098   4.704
 5571TIP3    H116656   2.421   6.189   4.728
 5571TIP3    H216657   2.343   6.066   4.773
 5572TIP3   OH216658   7.490   1.467   4.699
 5572TIP3    H116659   7.399   1.477   4.670
 5572TIP3    H216660   7.539   1.455   4.618
 5573TIP3   OH216661   2.074   2.070   0.852
 5573TIP3    H116662   2.041   2.109   0.771
 5573TIP3    H216663   2.159   2.111   0.866
 5574TIP3   OH216664   2.630   7.710   2.834
 5574TIP3    H116665   2.616   7.661   2.915
 5574TIP3    H216666   2.723   7.733   2.837
 5575TIP3   OH216667   4.445   7.704   5.864
 5575TIP3    H116668   4.480   7.622   5.829
 5575TIP3    H216669   4.474   7.705   5.956
 5576TIP3   OH216670   2.185   1.933   6.522
 5576TIP3    H116671   2.155   1.998   6.459
 5576TIP3    H216672   2.278   1.953   6.534
 5577TIP3   OH216673   3.648   3.945   2.404
 5577TIP3    H116674   3.699   3.916   2.479
 5577TIP3    H216675   3.587   3.873   2.387
 5578TIP3   OH216676   4.495   3.144   1.792
 5578TIP3    H116677   4.507   3.059   1.749
 5578TIP3    H216678   4.555   3.203   1.745
 5579TIP3   OH216679   1.551   5.737   2.227
 5579TIP3    H116680   1.510   5.769   2.147
 5579TIP3    H216681   1.509   5.652   2.244
 5580TIP3   OH216682   1.202   0.666   1.623
 5580TIP3    H116683   1.127   0.725   1.630
 5580TIP3    H216684   1.191   0.605   1.696
 5581TIP3   OH216685   7.461   2.861   3.580
 5581TIP3    H116686   7.424   2.811   3.508
 5581TIP3    H216687   7.555   2.867   3.560
 5582TIP3   OH216688   7.217   0.824   2.288
 5582TIP3    H116689   7.133   0.857   2.320
 5582TIP3    H216690   7.222   0.734   2.321
 5583TIP3   OH216691   0.734   6.266   3.194
 5583TIP3    H116692   0.818   6.227   3.222
 5583TIP3    H216693   0.711   6.218   3.115
 5584TIP3   OH216694   7.782   6.570   4.047
 5584TIP3    H116695   7.696   6.543   4.016
 5584TIP3    H216696   7.817   6.626   3.978
 5585TIP3   OH216697   8.169   6.150   4.762
 5585TIP3    H116698   8.106   6.114   4.699
 5585TIP3    H216699   8.191   6.076   4.818
 5586TIP3   OH216700   7.571   6.092   5.385
 5586TIP3    H116701   7.649   6.057   5.428
 5586TIP3    H216702   7.560   6.038   5.307
 5587TIP3   OH216703   5.419   5.700   3.631
 5587TIP3    H116704   5.393   5.778   3.583
 5587TIP3    H216705   5.477   5.732   3.700
 5588TIP3   OH216706   4.734   3.002   3.596
 5588TIP3    H116707   4.793   2.930   3.575
 5588TIP3    H216708   4.792   3.074   3.620
 5589TIP3   OH216709   3.232   1.878   2.239
 5589TIP3    H116710   3.205   1.951   2.184
 5589TIP3    H216711   3.187   1.802   2.202
 5590TIP3   OH216712   5.999   1.953   0.351
 5590TIP3    H116713   5.934   1.892   0.318
 5590TIP3    H216714   5.995   1.943   0.447
 5591TIP3   OH216715   7.518   2.186   2.921
 5591TIP3    H116716   7.512   2.277   2.891
 5591TIP3    H216717   7.456   2.139   2.865
 5592TIP3   OH216718   0.787   7.417   1.931
 5592TIP3    H116719   0.847   7.413   2.005
 5592TIP3    H216720   0.844   7.411   1.854
 5593TIP3   OH216721   5.292   7.676   5.372
 5593TIP3    H116722   5.264   7.750   5.320
 5593TIP3    H216723   5.313   7.713   5.458
 5594TIP3   OH216724   3.703   4.654   4.788
 5594TIP3    H116725   3.639   4.724   4.772
 5594TIP3    H216726   3.778   4.699   4.828
 5595TIP3   OH216727   7.462   3.688   3.737
 5595TIP3    H116728   7.521   3.665   3.810
 5595TIP3    H216729   7.479   3.621   3.671
 5596TIP3   OH216730   6.947   7.787   4.544
 5596TIP3    H116731   6.869   7.736   4.521
 5596TIP3    H216732   6.923   7.878   4.526
 5597TIP3   OH216733   1.710   6.634   2.163
 5597TIP3    H116734   1.804   6.612   2.159
 5597TIP3    H216735   1.666   6.553   2.137
 5598TIP3   OH216736   0.314   2.946   2.247
 5598TIP3    H116737   0.309   2.943   2.152
 5598TIP3    H216738   0.223   2.956   2.276
 5599TIP3   OH216739   6.860   1.269   1.090
 5599TIP3    H116740   6.860   1.188   1.040
 5599TIP3    H216741   6.909   1.249   1.170
 5600TIP3   OH216742   3.543   1.116   4.709
 5600TIP3    H116743   3.553   1.025   4.681
 5600TIP3    H216744   3.611   1.128   4.775
 5601TIP3   OH216745   1.036   4.268   0.698
 5601TIP3    H116746   1.101   4.218   0.648
 5601TIP3    H216747   0.967   4.286   0.636
 5602TIP3   OH216748   7.231   2.991   4.010
 5602TIP3    H116749   7.272   3.005   3.924
 5602TIP3    H216750   7.274   2.914   4.045
 5603TIP3   OH216751   2.975   6.160   5.674
 5603TIP3    H116752   2.960   6.230   5.736
 5603TIP3    H216753   2.902   6.166   5.612
 5604TIP3   OH216754   6.415   5.997   0.059
 5604TIP3    H116755   6.434   6.035   0.145
 5604TIP3    H216756   6.429   6.069  -0.003
 5605TIP3   OH216757   3.034   5.622   4.402
 5605TIP3    H116758   3.120   5.579   4.400
 5605TIP3    H216759   2.994   5.592   4.484
 5606TIP3   OH216760   6.628   1.276   5.394
 5606TIP3    H116761   6.626   1.362   5.436
 5606TIP3    H216762   6.719   1.249   5.397
 5607TIP3   OH216763   3.212   6.380   3.087
 5607TIP3    H116764   3.282   6.335   3.133
 5607TIP3    H216765   3.187   6.453   3.145
 5608TIP3   OH216766   2.403   4.073   6.417
 5608TIP3    H116767   2.421   4.071   6.511
 5608TIP3    H216768   2.470   4.016   6.379
 5609TIP3   OH216769   6.497   4.713   1.866
 5609TIP3    H116770   6.562   4.783   1.859
 5609TIP3    H216771   6.512   4.659   1.789
 5610TIP3   OH216772   4.447   4.661   3.807
 5610TIP3    H116773   4.401   4.640   3.889
 5610TIP3    H216774   4.460   4.756   3.811
 5611TIP3   OH216775   1.792   0.229   1.345
 5611TIP3    H116776   1.835   0.154   1.386
 5611TIP3    H216777   1.851   0.302   1.363
 5612TIP3   OH216778   6.632   4.927   2.292
 5612TIP3    H116779   6.581   5.007   2.276
 5612TIP3    H216780   6.715   4.958   2.328
 5613TIP3   OH216781   0.021   4.042   0.538
 5613TIP3    H116782   0.078   4.098   0.486
 5613TIP3    H216783   0.058   3.954   0.529
 5614TIP3   OH216784   6.891   0.791   5.807
 5614TIP3    H116785   6.936   0.873   5.828
 5614TIP3    H216786   6.805   0.819   5.776
 5615TIP3   OH216787   5.367   2.288   3.439
 5615TIP3    H116788   5.296   2.283   3.375
 5615TIP3    H216789   5.432   2.225   3.407
 5616TIP3   OH216790   7.913   3.837   3.092
 5616TIP3    H116791   7.900   3.902   3.161
 5616TIP3    H216792   8.003   3.850   3.063
 5617TIP3   OH216793   0.585   5.601   0.196
 5617TIP3    H116794   0.522   5.592   0.267
 5617TIP3    H216795   0.660   5.548   0.223
 5618TIP3   OH216796   3.924   4.792   4.863
 5618TIP3    H116797   3.935   4.853   4.791
 5618TIP3    H216798   4.012   4.780   4.898
 5619TIP3   OH216799   0.629   7.091   5.484
 5619TIP3    H116800   0.650   7.016   5.428
 5619TIP3    H216801   0.639   7.058   5.573
 5620TIP3   OH216802   4.169   0.226   1.948
 5620TIP3    H116803   4.244   0.229   2.007
 5620TIP3    H216804   4.093   0.227   2.006
 5621TIP3   OH216805   2.407   2.556   0.940
 5621TIP3    H116806   2.414   2.646   0.906
 5621TIP3    H216807   2.392   2.502   0.862
 5622TIP3   OH216808   1.579   5.816   5.095
 5622TIP3    H116809   1.667   5.796   5.063
 5622TIP3    H216810   1.571   5.764   5.175
 5623TIP3   OH216811   7.437   4.452   3.677
 5623TIP3    H116812   7.476   4.455   3.764
 5623TIP3    H216813   7.509   4.424   3.620
 5624TIP3   OH216814   6.719   5.148   2.879
 5624TIP3    H116815   6.630   5.113   2.870
 5624TIP3    H216816   6.762   5.086   2.937
 5625TIP3   OH216817   3.376   7.487   2.508
 5625TIP3    H116818   3.318   7.563   2.502
 5625TIP3    H216819   3.461   7.520   2.478
 5626TIP3   OH216820   6.907   5.922   2.401
 5626TIP3    H116821   6.909   5.852   2.336
 5626TIP3    H216822   6.816   5.924   2.432
 5627TIP3   OH216823   7.814   5.720   2.431
 5627TIP3    H116824   7.802   5.740   2.338
 5627TIP3    H216825   7.895   5.765   2.455
 5628TIP3   OH216826   1.509   0.957   1.063
 5628TIP3    H116827   1.552   0.887   1.114
 5628TIP3    H216828   1.421   0.924   1.048
 5629TIP3   OH216829   5.570   2.801   0.225
 5629TIP3    H116830   5.647   2.748   0.203
 5629TIP3    H216831   5.606   2.887   0.247
 5630TIP3   OH216832   6.505   1.541   3.622
 5630TIP3    H116833   6.530   1.583   3.704
 5630TIP3    H216834   6.587   1.515   3.582
 5631TIP3   OH216835   5.184   0.003   6.653
 5631TIP3    H116836   5.120   0.064   6.690
 5631TIP3    H216837   5.212   0.045   6.572
 5632TIP3   OH216838   0.610   7.624   1.893
 5632TIP3    H116839   0.667   7.698   1.916
 5632TIP3    H216840   0.670   7.550   1.882
 5633TIP3   OH216841   2.583   7.258   1.769
 5633TIP3    H116842   2.616   7.204   1.697
 5633TIP3    H216843   2.519   7.202   1.813
 5634TIP3   OH216844   3.302   2.068   1.796
 5634TIP3    H116845   3.317   2.128   1.869
 5634TIP3    H216846   3.315   1.981   1.833
 5635TIP3   OH216847   2.067   0.310   6.182
 5635TIP3    H116848   2.036   0.230   6.141
 5635TIP3    H216849   1.989   0.365   6.191
 5636TIP3   OH216850   3.190   5.851   4.458
 5636TIP3    H116851   3.121   5.917   4.456
 5636TIP3    H216852   3.154   5.777   4.410
 5637TIP3   OH216853   1.980   7.622   6.170
 5637TIP3    H116854   2.019   7.688   6.227
 5637TIP3    H216855   2.034   7.622   6.091
 5638TIP3   OH216856   1.004   7.097   1.864
 5638TIP3    H116857   0.960   7.153   1.801
 5638TIP3    H216858   1.081   7.064   1.818
 5639TIP3   OH216859   1.289   0.380   2.148
 5639TIP3    H116860   1.294   0.285   2.140
 5639TIP3    H216861   1.267   0.395   2.240
 5640TIP3   OH216862   7.871   6.259   4.370
 5640TIP3    H116863   7.942   6.208   4.409
 5640TIP3    H216864   7.899   6.274   4.279
 5641TIP3   OH216865   1.855   5.608   0.832
 5641TIP3    H116866   1.798   5.664   0.779
 5641TIP3    H216867   1.796   5.544   0.872
 5642TIP3   OH216868   8.138   7.490   4.103
 5642TIP3    H116869   8.086   7.411   4.085
 5642TIP3    H216870   8.229   7.461   4.094
 5643TIP3   OH216871   3.146   2.158   2.086
 5643TIP3    H116872   3.173   2.214   2.159
 5643TIP3    H216873   3.227   2.138   2.040
 5644TIP3   OH216874   2.671   5.149   1.192
 5644TIP3    H116875   2.623   5.078   1.147
 5644TIP3    H216876   2.725   5.188   1.124
 5645TIP3   OH216877   6.385   5.559   1.092
 5645TIP3    H116878   6.354   5.487   1.037
 5645TIP3    H216879   6.432   5.617   1.031
 5646TIP3   OH216880   6.752   1.656   4.814
 5646TIP3    H116881   6.740   1.585   4.877
 5646TIP3    H216882   6.840   1.641   4.778
 5647TIP3   OH216883   6.054   7.778   4.202
 5647TIP3    H116884   6.098   7.818   4.127
 5647TIP3    H216885   5.970   7.824   4.208
 5648TIP3   OH216886   7.942   4.272   3.279
 5648TIP3    H116887   8.013   4.307   3.225
 5648TIP3    H216888   7.865   4.277   3.223
 5649TIP3   OH216889   3.713   5.741   2.180
 5649TIP3    H116890   3.621   5.757   2.200
 5649TIP3    H216891   3.732   5.799   2.106
 5650TIP3   OH216892   3.385   5.614   5.906
 5650TIP3    H116893   3.300   5.639   5.941
 5650TIP3    H216894   3.395   5.667   5.827
 5651TIP3   OH216895   1.516   0.495   0.191
 5651TIP3    H116896   1.575   0.463   0.259
 5651TIP3    H216897   1.503   0.420   0.133
 5652TIP3   OH216898   0.752   3.180   2.184
 5652TIP3    H116899   0.727   3.135   2.103
 5652TIP3    H216900   0.780   3.110   2.243
 5653TIP3   OH216901   7.044   6.443   4.075
 5653TIP3    H116902   7.026   6.354   4.106
 5653TIP3    H216903   7.009   6.444   3.986
 5654TIP3   OH216904   5.319   6.154   1.869
 5654TIP3    H116905   5.356   6.101   1.799
 5654TIP3    H216906   5.287   6.232   1.826
 5655TIP3   OH216907   3.871   3.678   0.483
 5655TIP3    H116908   3.891   3.600   0.534
 5655TIP3    H216909   3.954   3.726   0.480
 5656TIP3   OH216910   6.818   0.796   2.620
 5656TIP3    H116911   6.741   0.741   2.608
 5656TIP3    H216912   6.793   0.880   2.581
 5657TIP3   OH216913   0.308   4.700   4.048
 5657TIP3    H116914   0.373   4.651   4.099
 5657TIP3    H216915   0.359   4.744   3.980
 5658TIP3   OH216916   3.231   3.614   6.752
 5658TIP3    H116917   3.165   3.632   6.818
 5658TIP3    H216918   3.285   3.546   6.790
 5659TIP3   OH216919   7.773   6.594   5.895
 5659TIP3    H116920   7.704   6.558   5.839
 5659TIP3    H216921   7.798   6.676   5.852
 5660TIP3   OH216922   6.426   0.617   2.174
 5660TIP3    H116923   6.371   0.617   2.096
 5660TIP3    H216924   6.424   0.527   2.205
 5661TIP3   OH216925   4.212   2.062   1.670
 5661TIP3    H116926   4.197   2.156   1.683
 5661TIP3    H216927   4.275   2.039   1.739
 5662TIP3   OH216928   4.865   6.679   3.004
 5662TIP3    H116929   4.890   6.694   3.095
 5662TIP3    H216930   4.859   6.584   2.995
 5663TIP3   OH216931   2.835   7.156   1.926
 5663TIP3    H116932   2.879   7.241   1.928
 5663TIP3    H216933   2.846   7.125   1.836
 5664TIP3   OH216934   0.166   1.390   0.305
 5664TIP3    H116935   0.199   1.344   0.383
 5664TIP3    H216936   0.087   1.435   0.335
 5665TIP3   OH216937   4.637   1.205   5.540
 5665TIP3    H116938   4.721   1.192   5.497
 5665TIP3    H216939   4.575   1.217   5.468
 5666TIP3   OH216940   2.741   7.311   5.872
 5666TIP3    H116941   2.655   7.340   5.842
 5666TIP3    H216942   2.745   7.219   5.848
 5667TIP3   OH216943   6.419   0.208   6.447
 5667TIP3    H116944   6.352   0.226   6.512
 5667TIP3    H216945   6.470   0.136   6.484
 5668TIP3   OH216946   6.727   0.283   5.959
 5668TIP3    H116947   6.750   0.369   5.923
 5668TIP3    H216948   6.678   0.303   6.039
 5669TIP3   OH216949   7.765   6.760   2.162
 5669TIP3    H116950   7.722   6.807   2.233
 5669TIP3    H216951   7.726   6.796   2.082
 5670TIP3   OH216952   0.996   3.732   0.490
 5670TIP3    H116953   1.042   3.783   0.558
 5670TIP3    H216954   1.033   3.764   0.408
 5671TIP3   OH216955   0.065   4.437   6.077
 5671TIP3    H116956   0.083   4.497   6.006
 5671TIP3    H216957  -0.026   4.454   6.102
 5672TIP3   OH216958   1.877   0.086   6.340
 5672TIP3    H116959   1.802   0.144   6.355
 5672TIP3    H216960   1.872   0.066   6.246
 5673TIP3   OH216961   7.955   0.412   0.679
 5673TIP3    H116962   7.988   0.428   0.767
 5673TIP3    H216963   7.865   0.444   0.681
 5674TIP3   OH216964   0.271   1.815   1.041
 5674TIP3    H116965   0.219   1.859   1.108
 5674TIP3    H216966   0.297   1.886   0.981
 5675TIP3   OH216967   7.444   2.326   2.121
 5675TIP3    H116968   7.420   2.414   2.152
 5675TIP3    H216969   7.503   2.342   2.047
 5676TIP3   OH216970   1.666   4.399   1.557
 5676TIP3    H116971   1.635   4.322   1.604
 5676TIP3    H216972   1.587   4.453   1.544
 5677TIP3   OH216973   2.720   4.257   3.036
 5677TIP3    H116974   2.686   4.341   3.066
 5677TIP3    H216975   2.795   4.239   3.092
 5678TIP3   OH216976   0.005   5.364   2.709
 5678TIP3    H116977   0.049   5.283   2.737
 5678TIP3    H216978  -0.061   5.335   2.646
 5679TIP3   OH216979   7.461   1.881   3.893
 5679TIP3    H116980   7.383   1.869   3.948
 5679TIP3    H216981   7.438   1.952   3.833
 5680TIP3   OH216982   7.563   6.780   4.503
 5680TIP3    H116983   7.496   6.847   4.487
 5680TIP3    H216984   7.630   6.798   4.437
 5681TIP3   OH216985   2.307   3.166   6.036
 5681TIP3    H116986   2.243   3.226   6.000
 5681TIP3    H216987   2.326   3.105   5.965
 5682TIP3   OH216988   5.524   1.056   1.164
 5682TIP3    H116989   5.604   1.004   1.150
 5682TIP3    H216990   5.555   1.146   1.167
 5683TIP3   OH216991   2.400   0.123   1.160
 5683TIP3    H116992   2.432   0.208   1.191
 5683TIP3    H216993   2.472   0.087   1.109
 5684TIP3   OH216994   7.734   5.473   4.656
 5684TIP3    H116995   7.724   5.383   4.624
 5684TIP3    H216996   7.790   5.516   4.591
 5685TIP3   OH216997   7.952   0.717   4.435
 5685TIP3    H116998   8.013   0.729   4.362
 5685TIP3    H216999   7.939   0.804   4.472
 5686TIP3   OH217000   1.960   1.689   6.145
 5686TIP3    H117001   1.944   1.735   6.227
 5686TIP3    H217002   1.982   1.758   6.082
 5687TIP3   OH217003   3.435   3.898   2.978
 5687TIP3    H117004   3.389   3.832   2.925
 5687TIP3    H217005   3.480   3.847   3.045
 5688TIP3   OH217006   3.323   0.586   2.744
 5688TIP3    H117007   3.248   0.538   2.780
 5688TIP3    H217008   3.394   0.569   2.805
 5689TIP3   OH217009   5.484   0.846   6.620
 5689TIP3    H117010   5.447   0.826   6.706
 5689TIP3    H217011   5.411   0.882   6.570
 5690TIP3   OH217012   7.393   1.125   3.051
 5690TIP3    H117013   7.451   1.185   3.005
 5690TIP3    H217014   7.446   1.088   3.121
 5691TIP3   OH217015   8.050   0.190   1.607
 5691TIP3    H117016   8.051   0.149   1.521
 5691TIP3    H217017   8.063   0.118   1.668
 5692TIP3   OH217018   5.531   0.608   3.463
 5692TIP3    H117019   5.536   0.513   3.449
 5692TIP3    H217020   5.498   0.643   3.381
 5693TIP3   OH217021   8.025   3.553   2.217
 5693TIP3    H117022   8.080   3.547   2.139
 5693TIP3    H217023   8.086   3.546   2.290
 5694TIP3   OH217024   8.113   7.128   6.132
 5694TIP3    H117025   8.099   7.210   6.181
 5694TIP3    H217026   8.184   7.085   6.179
 5695TIP3   OH217027   4.809   7.231   5.868
 5695TIP3    H117028   4.805   7.159   5.805
 5695TIP3    H217029   4.871   7.293   5.830
 5696TIP3   OH217030   4.482   5.010   5.107
 5696TIP3    H117031   4.388   4.998   5.093
 5696TIP3    H217032   4.502   5.095   5.068
 5697TIP3   OH217033   7.459   0.413   1.343
 5697TIP3    H117034   7.506   0.485   1.385
 5697TIP3    H217035   7.468   0.340   1.404
 5698TIP3   OH217036   0.391   0.979   2.016
 5698TIP3    H117037   0.364   1.070   2.006
 5698TIP3    H217038   0.386   0.963   2.110
 5699TIP3   OH217039   2.768   7.015   3.868
 5699TIP3    H117040   2.712   7.015   3.790
 5699TIP3    H217041   2.856   7.029   3.834
 5700TIP3   OH217042   5.187   2.044   2.679
 5700TIP3    H117043   5.150   2.001   2.602
 5700TIP3    H217044   5.266   1.994   2.699
 5701TIP3   OH217045   6.337   4.226   5.959
 5701TIP3    H117046   6.346   4.236   6.054
 5701TIP3    H217047   6.337   4.315   5.924
 5702TIP3   OH217048   4.271   1.157   0.267
 5702TIP3    H117049   4.232   1.151   0.355
 5702TIP3    H217050   4.364   1.167   0.284
 5703TIP3   OH217051   1.228   2.197   2.310
 5703TIP3    H117052   1.153   2.155   2.268
 5703TIP3    H217053   1.242   2.148   2.390
 5704TIP3   OH217054   6.699   4.196   3.105
 5704TIP3    H117055   6.633   4.265   3.103
 5704TIP3    H217056   6.707   4.167   3.015
 5705TIP3   OH217057   8.006   6.682   0.903
 5705TIP3    H117058   7.946   6.756   0.906
 5705TIP3    H217059   7.962   6.618   0.847
 5706TIP3   OH217060   0.448   6.043   4.498
 5706TIP3    H117061   0.416   5.954   4.510
 5706TIP3    H217062   0.383   6.098   4.540
 5707TIP3   OH217063   0.825   5.240   2.180
 5707TIP3    H117064   0.868   5.316   2.140
 5707TIP3    H217065   0.745   5.275   2.217
 5708TIP3   OH217066   3.969   0.099   1.492
 5708TIP3    H117067   4.012   0.078   1.574
 5708TIP3    H217068   3.927   0.018   1.464
 5709TIP3   OH217069   1.637   3.152   3.814
 5709TIP3    H117070   1.608   3.075   3.764
 5709TIP3    H217071   1.649   3.119   3.903
 5710TIP3   OH217072   4.637   1.858   4.040
 5710TIP3    H117073   4.546   1.857   4.069
 5710TIP3    H217074   4.636   1.815   3.955
 5711TIP3   OH217075   4.507   6.746   6.517
 5711TIP3    H117076   4.531   6.685   6.448
 5711TIP3    H217077   4.539   6.706   6.598
 5712TIP3   OH217078   4.335   5.031   4.335
 5712TIP3    H117079   4.329   5.032   4.240
 5712TIP3    H217080   4.418   5.075   4.355
 5713TIP3   OH217081   7.237   0.907   3.848
 5713TIP3    H117082   7.190   0.922   3.766
 5713TIP3    H217083   7.308   0.972   3.847
 5714TIP3   OH217084   4.501   0.640   1.148
 5714TIP3    H117085   4.506   0.549   1.118
 5714TIP3    H217086   4.434   0.680   1.094
 5715TIP3   OH217087   2.516   2.468   6.561
 5715TIP3    H117088   2.468   2.546   6.590
 5715TIP3    H217089   2.458   2.426   6.497
 5716TIP3   OH217090   0.209   2.857   4.405
 5716TIP3    H117091   0.153   2.873   4.329
 5716TIP3    H217092   0.248   2.942   4.425
 5717TIP3   OH217093   2.887   6.631   5.764
 5717TIP3    H117094   2.894   6.723   5.789
 5717TIP3    H217095   2.891   6.632   5.668
 5718TIP3   OH217096   5.116   4.434   2.066
 5718TIP3    H117097   5.209   4.455   2.058
 5718TIP3    H217098   5.099   4.373   1.994
 5719TIP3   OH217099   6.404   5.520   3.754
 5719TIP3    H117100   6.332   5.565   3.711
 5719TIP3    H217101   6.435   5.581   3.821
 5720TIP3   OH217102   0.914   4.617   2.480
 5720TIP3    H117103   0.980   4.654   2.421
 5720TIP3    H217104   0.874   4.693   2.522
 5721TIP3   OH217105   2.431   7.283   2.805
 5721TIP3    H117106   2.350   7.233   2.792
 5721TIP3    H217107   2.402   7.364   2.845
 5722TIP3   OH217108   2.843   5.844   5.789
 5722TIP3    H117109   2.842   5.938   5.807
 5722TIP3    H217110   2.928   5.828   5.747
 5723TIP3   OH217111   2.466   0.205   1.661
 5723TIP3    H117112   2.521   0.257   1.720
 5723TIP3    H217113   2.437   0.131   1.715
 5724TIP3   OH217114   2.294   1.764   5.952
 5724TIP3    H117115   2.340   1.788   6.032
 5724TIP3    H217116   2.328   1.826   5.887
 5725TIP3   OH217117   6.581   0.523   6.475
 5725TIP3    H117118   6.548   0.609   6.501
 5725TIP3    H217119   6.513   0.487   6.417
 5726TIP3   OH217120   2.444   5.545   0.668
 5726TIP3    H117121   2.384   5.474   0.690
 5726TIP3    H217122   2.457   5.592   0.751
 5727TIP3   OH217123   5.898   1.470   2.470
 5727TIP3    H117124   5.944   1.387   2.454
 5727TIP3    H217125   5.967   1.536   2.473
 5728TIP3   OH217126   6.624   5.514   3.554
 5728TIP3    H117127   6.557   5.529   3.487
 5728TIP3    H217128   6.582   5.453   3.615
 5729TIP3   OH217129   6.514   1.097   3.491
 5729TIP3    H117130   6.418   1.104   3.490
 5729TIP3    H217131   6.538   1.111   3.582
 5730TIP3   OH217132   4.398   2.287   0.134
 5730TIP3    H117133   4.392   2.345   0.210
 5730TIP3    H217134   4.340   2.326   0.069
 5731TIP3   OH217135   6.506   7.493   6.552
 5731TIP3    H117136   6.422   7.450   6.534
 5731TIP3    H217137   6.546   7.439   6.621
 5732TIP3   OH217138   3.458   4.953   6.561
 5732TIP3    H117139   3.547   4.928   6.585
 5732TIP3    H217140   3.403   4.881   6.593
 5733TIP3   OH217141   2.151   2.316   5.697
 5733TIP3    H117142   2.060   2.344   5.694
 5733TIP3    H217143   2.152   2.230   5.655
 5734TIP3   OH217144   6.791   2.597   3.144
 5734TIP3    H117145   6.769   2.563   3.231
 5734TIP3    H217146   6.708   2.593   3.096
 5735TIP3   OH217147   4.408   5.323   6.655
 5735TIP3    H117148   4.326   5.308   6.608
 5735TIP3    H217149   4.466   5.253   6.625
 5736TIP3   OH217150   4.944   7.045   2.295
 5736TIP3    H117151   4.884   7.119   2.302
 5736TIP3    H217152   4.888   6.968   2.291
 5737TIP3   OH217153   1.893   7.406   5.725
 5737TIP3    H117154   1.847   7.322   5.714
 5737TIP3    H217155   1.976   7.382   5.766
 5738TIP3   OH217156   7.694   3.639   5.543
 5738TIP3    H117157   7.678   3.734   5.539
 5738TIP3    H217158   7.640   3.603   5.472
 5739TIP3   OH217159   7.504   0.497   3.567
 5739TIP3    H117160   7.552   0.442   3.628
 5739TIP3    H217161   7.529   0.587   3.591
 5740TIP3   OH217162   3.630   0.230   2.650
 5740TIP3    H117163   3.554   0.269   2.693
 5740TIP3    H217164   3.694   0.218   2.720
 5741TIP3   OH217165   0.693   4.670   1.250
 5741TIP3    H117166   0.727   4.741   1.305
 5741TIP3    H217167   0.606   4.651   1.287
 5742TIP3   OH217168   8.072   7.293   0.765
 5742TIP3    H117169   8.000   7.355   0.778
 5742TIP3    H217170   8.132   7.337   0.706
 5743TIP3   OH217171   8.262   1.806   0.315
 5743TIP3    H117172   8.298   1.777   0.399
 5743TIP3    H217173   8.170   1.824   0.334
 5744TIP3   OH217174   1.822   3.756   0.565
 5744TIP3    H117175   1.818   3.841   0.521
 5744TIP3    H217176   1.744   3.710   0.535
 5745TIP3   OH217177   0.903   5.371   2.576
 5745TIP3    H117178   0.815   5.403   2.555
 5745TIP3    H217179   0.946   5.446   2.617
 5746TIP3   OH217180   3.023   5.518   5.387
 5746TIP3    H117181   3.110   5.495   5.418
 5746TIP3    H217182   2.977   5.434   5.379
 5747TIP3   OH217183   5.577   4.396   4.784
 5747TIP3    H117184   5.552   4.459   4.852
 5747TIP3    H217185   5.577   4.448   4.703
 5748TIP3   OH217186   1.450   7.585   6.093
 5748TIP3    H117187   1.508   7.576   6.017
 5748TIP3    H217188   1.499   7.546   6.165
 5749TIP3   OH217189   4.503   0.622   2.509
 5749TIP3    H117190   4.596   0.641   2.519
 5749TIP3    H217191   4.480   0.661   2.424
 5750TIP3   OH217192   2.231   7.444   6.345
 5750TIP3    H117193   2.190   7.358   6.355
 5750TIP3    H217194   2.322   7.431   6.371
 5751TIP3   OH217195   7.770   4.355   6.471
 5751TIP3    H117196   7.745   4.372   6.562
 5751TIP3    H217197   7.772   4.259   6.464
 5752TIP3   OH217198   3.964   5.658   0.897
 5752TIP3    H117199   3.978   5.630   0.807
 5752TIP3    H217200   3.948   5.577   0.946
 5753TIP3   OH217201   4.856   6.645   1.282
 5753TIP3    H117202   4.924   6.579   1.271
 5753TIP3    H217203   4.861   6.698   1.202
 5754TIP3   OH217204   7.934   3.125   1.219
 5754TIP3    H117205   7.975   3.191   1.276
 5754TIP3    H217206   7.994   3.118   1.145
 5755TIP3   OH217207   5.566   0.951   2.624
 5755TIP3    H117208   5.537   0.885   2.560
 5755TIP3    H217209   5.491   1.010   2.633
 5756TIP3   OH217210   6.706   7.314   2.025
 5756TIP3    H117211   6.747   7.230   2.045
 5756TIP3    H217212   6.633   7.321   2.087
 5757TIP3   OH217213   0.570   6.013   1.776
 5757TIP3    H117214   0.503   6.081   1.768
 5757TIP3    H217215   0.584   5.982   1.687
 5758TIP3   OH217216   4.553   3.073   5.749
 5758TIP3    H117217   4.632   3.127   5.738
 5758TIP3    H217218   4.493   3.128   5.798
 5759TIP3   OH217219   6.477   2.821   5.009
 5759TIP3    H117220   6.532   2.776   4.944
 5759TIP3    H217221   6.421   2.878   4.956
 5760TIP3   OH217222   2.165   6.522   1.075
 5760TIP3    H117223   2.178   6.553   0.985
 5760TIP3    H217224   2.253   6.500   1.106
 5761TIP3   OH217225   6.225   3.491   2.507
 5761TIP3    H117226   6.176   3.410   2.521
 5761TIP3    H217227   6.188   3.552   2.570
 5762TIP3   OH217228   5.173   4.118   4.027
 5762TIP3    H117229   5.209   4.095   3.942
 5762TIP3    H217230   5.248   4.112   4.087
 5763TIP3   OH217231   2.413   4.732   5.139
 5763TIP3    H117232   2.438   4.821   5.114
 5763TIP3    H217233   2.357   4.744   5.216
 5764TIP3   OH217234   5.673   2.465   3.564
 5764TIP3    H117235   5.671   2.369   3.562
 5764TIP3    H217236   5.755   2.487   3.607
 5765TIP3   OH217237   2.097   5.311   1.945
 5765TIP3    H117238   2.063   5.236   1.896
 5765TIP3    H217239   2.066   5.297   2.034
 5766TIP3   OH217240   7.733   3.002   3.718
 5766TIP3    H117241   7.764   3.020   3.630
 5766TIP3    H217242   7.678   3.078   3.740
 5767TIP3   OH217243   7.812   6.475   5.295
 5767TIP3    H117244   7.773   6.415   5.231
 5767TIP3    H217245   7.736   6.513   5.341
 5768TIP3   OH217246   5.777   7.296   1.183
 5768TIP3    H117247   5.759   7.294   1.277
 5768TIP3    H217248   5.839   7.225   1.169
 5769TIP3   OH217249   2.216   3.867   2.269
 5769TIP3    H117250   2.180   3.781   2.287
 5769TIP3    H217251   2.263   3.857   2.186
 5770TIP3   OH217252   6.213   3.094   4.423
 5770TIP3    H117253   6.166   3.147   4.358
 5770TIP3    H217254   6.246   3.019   4.373
 5771TIP3   OH217255   7.002   1.037   2.706
 5771TIP3    H117256   6.935   1.033   2.774
 5771TIP3    H217257   7.085   1.042   2.755
 5772TIP3   OH217258   0.697   4.635   4.128
 5772TIP3    H117259   0.690   4.729   4.112
 5772TIP3    H217260   0.613   4.611   4.166
 5773TIP3   OH217261   5.186   1.925   0.598
 5773TIP3    H117262   5.169   1.831   0.590
 5773TIP3    H217263   5.099   1.965   0.599
 5774TIP3   OH217264   5.104   0.838   2.643
 5774TIP3    H117265   5.092   0.932   2.655
 5774TIP3    H217266   5.016   0.805   2.623
 5775TIP3   OH217267   1.251   3.200   0.747
 5775TIP3    H117268   1.176   3.234   0.795
 5775TIP3    H217269   1.323   3.201   0.811
 5776TIP3   OH217270   7.909   4.199   3.743
 5776TIP3    H117271   7.902   4.240   3.830
 5776TIP3    H217272   7.959   4.262   3.691
 5777TIP3   OH217273   3.643   7.471   2.854
 5777TIP3    H117274   3.716   7.490   2.913
 5777TIP3    H217275   3.682   7.471   2.767
 5778TIP3   OH217276   7.512   1.383   5.642
 5778TIP3    H117277   7.578   1.321   5.612
 5778TIP3    H217278   7.562   1.456   5.679
 5779TIP3   OH217279   6.989   1.694   1.875
 5779TIP3    H117280   6.981   1.640   1.954
 5779TIP3    H217281   6.905   1.684   1.830
 5780TIP3   OH217282   3.267   1.656   5.020
 5780TIP3    H117283   3.268   1.719   5.092
 5780TIP3    H217284   3.335   1.593   5.043
 5781TIP3   OH217285   8.185   4.850   3.870
 5781TIP3    H117286   8.124   4.776   3.867
 5781TIP3    H217287   8.162   4.902   3.793
 5782TIP3   OH217288   1.106   3.015   3.730
 5782TIP3    H117289   1.078   2.974   3.648
 5782TIP3    H217290   1.049   2.976   3.797
 5783TIP3   OH217291   4.225   1.212   4.532
 5783TIP3    H117292   4.134   1.185   4.521
 5783TIP3    H217293   4.275   1.155   4.473
 5784TIP3   OH217294   3.309   0.607   1.157
 5784TIP3    H117295   3.262   0.690   1.168
 5784TIP3    H217296   3.397   0.625   1.190
 5785TIP3   OH217297   0.666   3.471   0.267
 5785TIP3    H117298   0.586   3.420   0.254
 5785TIP3    H217299   0.699   3.486   0.178
 5786TIP3   OH217300   0.164   6.232   5.280
 5786TIP3    H117301   0.204   6.318   5.293
 5786TIP3    H217302   0.136   6.232   5.188
 5787TIP3   OH217303   1.490   3.378   2.533
 5787TIP3    H117304   1.429   3.322   2.485
 5787TIP3    H217305   1.470   3.361   2.625
 5788TIP3   OH217306   0.828   1.696   4.820
 5788TIP3    H117307   0.891   1.687   4.748
 5788TIP3    H217308   0.769   1.621   4.810
 5789TIP3   OH217309   5.572   6.744   4.742
 5789TIP3    H117310   5.494   6.757   4.796
 5789TIP3    H217311   5.540   6.700   4.664
 5790TIP3   OH217312   4.802   5.088   2.780
 5790TIP3    H117313   4.792   5.027   2.707
 5790TIP3    H217314   4.723   5.141   2.778
 5791TIP3   OH217315   7.800   6.148   5.843
 5791TIP3    H117316   7.862   6.219   5.827
 5791TIP3    H217317   7.839   6.072   5.801
 5792TIP3   OH217318   7.182   5.105   4.640
 5792TIP3    H117319   7.113   5.039   4.635
 5792TIP3    H217320   7.255   5.067   4.590
 5793TIP3   OH217321   2.786   0.895   2.280
 5793TIP3    H117322   2.832   0.975   2.306
 5793TIP3    H217323   2.847   0.824   2.299
 5794TIP3   OH217324   0.647   1.613   0.425
 5794TIP3    H117325   0.704   1.686   0.451
 5794TIP3    H217326   0.603   1.645   0.346
 5795TIP3   OH217327   3.775   2.987   1.718
 5795TIP3    H117328   3.782   3.010   1.811
 5795TIP3    H217329   3.813   2.899   1.713
 5796TIP3   OH217330   6.968   5.737   2.811
 5796TIP3    H117331   7.036   5.804   2.816
 5796TIP3    H217332   7.000   5.667   2.868
 5797TIP3   OH217333   0.866   4.576   4.357
 5797TIP3    H117334   0.920   4.637   4.407
 5797TIP3    H217335   0.863   4.614   4.269
 5798TIP3   OH217336   7.711   5.579   5.990
 5798TIP3    H117337   7.760   5.648   5.946
 5798TIP3    H217338   7.622   5.614   5.998
 5799TIP3   OH217339   5.407   5.555   5.534
 5799TIP3    H117340   5.458   5.622   5.489
 5799TIP3    H217341   5.428   5.474   5.489
 5800TIP3   OH217342   1.772   6.339   3.315
 5800TIP3    H117343   1.833   6.281   3.360
 5800TIP3    H217344   1.817   6.423   3.310
 5801TIP3   OH217345   1.875   1.289   1.378
 5801TIP3    H117346   1.839   1.264   1.293
 5801TIP3    H217347   1.913   1.208   1.412
 5802TIP3   OH217348   2.699   5.721   1.565
 5802TIP3    H117349   2.717   5.813   1.547
 5802TIP3    H217350   2.618   5.721   1.617
 5803TIP3   OH217351   6.091   6.619   6.188
 5803TIP3    H117352   6.060   6.553   6.126
 5803TIP3    H217353   6.037   6.696   6.171
 5804TIP3   OH217354   4.510   5.029   4.738
 5804TIP3    H117355   4.473   4.952   4.781
 5804TIP3    H217356   4.480   5.103   4.792
 5805TIP3   OH217357   1.219   0.915   1.052
 5805TIP3    H117358   1.195   0.948   0.966
 5805TIP3    H217359   1.219   0.992   1.109
 5806TIP3   OH217360   1.296   7.689   1.992
 5806TIP3    H117361   1.209   7.659   2.019
 5806TIP3    H217362   1.343   7.702   2.075
 5807TIP3   OH217363   2.569   7.013   0.835
 5807TIP3    H117364   2.597   6.951   0.903
 5807TIP3    H217365   2.599   7.098   0.866
 5808TIP3   OH217366   7.139   6.196   1.460
 5808TIP3    H117367   7.047   6.212   1.439
 5808TIP3    H217368   7.151   6.232   1.547
 5809TIP3   OH217369   4.328   1.583   0.923
 5809TIP3    H117370   4.333   1.618   1.012
 5809TIP3    H217371   4.235   1.585   0.902
 5810TIP3   OH217372   1.664   6.035   2.830
 5810TIP3    H117373   1.673   6.093   2.755
 5810TIP3    H217374   1.709   6.080   2.901
 5811TIP3   OH217375   7.412   4.419   5.580
 5811TIP3    H117376   7.422   4.491   5.518
 5811TIP3    H217377   7.336   4.370   5.549
 5812TIP3   OH217378   1.115   1.262   3.592
 5812TIP3    H117379   1.036   1.308   3.564
 5812TIP3    H217380   1.129   1.195   3.525
 5813TIP3   OH217381   3.658   3.069   2.158
 5813TIP3    H117382   3.676   3.120   2.079
 5813TIP3    H217383   3.687   3.124   2.230
 5814TIP3   OH217384   6.098   6.237   3.041
 5814TIP3    H117385   6.015   6.222   2.996
 5814TIP3    H217386   6.147   6.156   3.028
 5815TIP3   OH217387   3.713   2.215   0.668
 5815TIP3    H117388   3.749   2.136   0.628
 5815TIP3    H217389   3.789   2.257   0.709
 5816TIP3   OH217390   1.059   7.803   5.496
 5816TIP3    H117391   1.071   7.728   5.554
 5816TIP3    H217392   1.148   7.829   5.472
 5817TIP3   OH217393   4.864   2.811   6.188
 5817TIP3    H117394   4.930   2.780   6.126
 5817TIP3    H217395   4.829   2.891   6.148
 5818TIP3   OH217396   3.622   1.109   6.376
 5818TIP3    H117397   3.569   1.037   6.344
 5818TIP3    H217398   3.561   1.164   6.425
 5819TIP3   OH217399   4.975   5.294   2.396
 5819TIP3    H117400   4.982   5.270   2.488
 5819TIP3    H217401   5.058   5.338   2.376
 5820TIP3   OH217402   6.393   5.963   5.489
 5820TIP3    H117403   6.338   5.932   5.561
 5820TIP3    H217404   6.379   6.058   5.488
 5821TIP3   OH217405   0.326   1.825   5.886
 5821TIP3    H117406   0.360   1.736   5.897
 5821TIP3    H217407   0.257   1.817   5.820
 5822TIP3   OH217408   1.058   3.342   4.143
 5822TIP3    H117409   1.065   3.360   4.237
 5822TIP3    H217410   1.033   3.250   4.138
 5823TIP3   OH217411   4.151   5.279   0.148
 5823TIP3    H117412   4.179   5.269   0.057
 5823TIP3    H217413   4.166   5.193   0.187
 5824TIP3   OH217414   7.434   2.971   4.736
 5824TIP3    H117415   7.393   2.964   4.821
 5824TIP3    H217416   7.457   3.064   4.727
 5825TIP3   OH217417   5.421   2.659   4.165
 5825TIP3    H117418   5.433   2.694   4.253
 5825TIP3    H217419   5.363   2.584   4.176
 5826TIP3   OH217420   2.339   0.416   1.543
 5826TIP3    H117421   2.385   0.333   1.559
 5826TIP3    H217422   2.292   0.434   1.625
 5827TIP3   OH217423   6.162   3.130   1.533
 5827TIP3    H117424   6.090   3.192   1.522
 5827TIP3    H217425   6.143   3.061   1.470
 5828TIP3   OH217426   7.057   5.512   6.742
 5828TIP3    H117427   7.004   5.493   6.664
 5828TIP3    H217428   7.027   5.448   6.807
 5829TIP3   OH217429   2.254   3.381   2.301
 5829TIP3    H117430   2.239   3.423   2.385
 5829TIP3    H217431   2.276   3.452   2.241
 5830TIP3   OH217432   4.736   6.896   3.406
 5830TIP3    H117433   4.764   6.980   3.442
 5830TIP3    H217434   4.704   6.917   3.319
 5831TIP3   OH217435   0.822   5.768   5.130
 5831TIP3    H117436   0.799   5.703   5.065
 5831TIP3    H217437   0.860   5.717   5.202
 5832TIP3   OH217438   1.796   7.407   0.082
 5832TIP3    H117439   1.720   7.440   0.132
 5832TIP3    H217440   1.794   7.457   0.000
 5833TIP3   OH217441   4.390   5.671   4.497
 5833TIP3    H117442   4.450   5.705   4.563
 5833TIP3    H217443   4.310   5.722   4.508
 5834TIP3   OH217444   3.590   3.583   5.821
 5834TIP3    H117445   3.636   3.656   5.862
 5834TIP3    H217446   3.549   3.621   5.743
 5835TIP3   OH217447   5.976   4.619   5.642
 5835TIP3    H117448   6.041   4.658   5.583
 5835TIP3    H217449   5.990   4.664   5.726
 5836TIP3   OH217450   8.221   5.738   3.322
 5836TIP3    H117451   8.224   5.808   3.257
 5836TIP3    H217452   8.129   5.715   3.328
 5837TIP3   OH217453   2.143   0.722   4.234
 5837TIP3    H117454   2.084   0.781   4.187
 5837TIP3    H217455   2.192   0.678   4.164
 5838TIP3   OH217456   4.410   0.966   2.443
 5838TIP3    H117457   4.346   0.950   2.512
 5838TIP3    H217458   4.469   0.890   2.448
 5839TIP3   OH217459   2.466   5.328   3.590
 5839TIP3    H117460   2.492   5.244   3.552
 5839TIP3    H217461   2.487   5.392   3.523
 5840TIP3   OH217462   7.177   6.797   4.537
 5840TIP3    H117463   7.225   6.786   4.619
 5840TIP3    H217464   7.086   6.781   4.560
 5841TIP3   OH217465   5.620   7.448   3.143
 5841TIP3    H117466   5.701   7.400   3.124
 5841TIP3    H217467   5.649   7.537   3.162
 5842TIP3   OH217468   4.451   0.678   0.507
 5842TIP3    H117469   4.486   0.598   0.466
 5842TIP3    H217470   4.527   0.735   0.518
 5843TIP3   OH217471   2.570   5.957   1.161
 5843TIP3    H117472   2.487   5.919   1.189
 5843TIP3    H217473   2.636   5.918   1.219
 5844TIP3   OH217474   3.648   2.262   5.785
 5844TIP3    H117475   3.593   2.212   5.845
 5844TIP3    H217476   3.717   2.201   5.758
 5845TIP3   OH217477   1.379   0.950   6.555
 5845TIP3    H117478   1.287   0.938   6.530
 5845TIP3    H217479   1.387   1.045   6.570
 5846TIP3   OH217480   7.003   5.685   3.851
 5846TIP3    H117481   7.088   5.643   3.845
 5846TIP3    H217482   6.963   5.647   3.930
 5847TIP3   OH217483   4.438   1.933   4.458
 5847TIP3    H117484   4.469   1.851   4.422
 5847TIP3    H217485   4.348   1.941   4.426
 5848TIP3   OH217486   4.930   0.309   4.987
 5848TIP3    H117487   4.910   0.251   5.061
 5848TIP3    H217488   4.950   0.393   5.027
 5849TIP3   OH217489   2.762   3.847   0.454
 5849TIP3    H117490   2.676   3.815   0.426
 5849TIP3    H217491   2.751   3.863   0.548
 5850TIP3   OH217492   5.453   7.541   1.498
 5850TIP3    H117493   5.372   7.587   1.476
 5850TIP3    H217494   5.479   7.498   1.417
 5851TIP3   OH217495   2.235   6.821   5.365
 5851TIP3    H117496   2.235   6.776   5.281
 5851TIP3    H217497   2.301   6.775   5.417
 5852TIP3   OH217498   4.594   6.221   3.663
 5852TIP3    H117499   4.579   6.262   3.748
 5852TIP3    H217500   4.549   6.136   3.669
 5853TIP3   OH217501   1.826   1.795   1.616
 5853TIP3    H117502   1.806   1.701   1.618
 5853TIP3    H217503   1.744   1.837   1.642
 5854TIP3   OH217504   4.072   6.826   1.160
 5854TIP3    H117505   4.091   6.740   1.197
 5854TIP3    H217506   4.150   6.849   1.109
 5855TIP3   OH217507   3.856   1.913   1.372
 5855TIP3    H117508   3.761   1.922   1.361
 5855TIP3    H217509   3.880   1.984   1.431
 5856TIP3   OH217510   3.131   7.569   0.622
 5856TIP3    H117511   3.096   7.657   0.629
 5856TIP3    H217512   3.226   7.581   0.615
 5857TIP3   OH217513   6.471   0.581   5.682
 5857TIP3    H117514   6.419   0.645   5.633
 5857TIP3    H217515   6.482   0.619   5.769
 5858TIP3   OH217516   4.704   5.577   3.579
 5858TIP3    H117517   4.701   5.567   3.484
 5858TIP3    H217518   4.740   5.494   3.611
 5859TIP3   OH217519   4.526   2.914   1.643
 5859TIP3    H117520   4.455   2.857   1.613
 5859TIP3    H217521   4.551   2.964   1.565
 5860TIP3   OH217522   0.657   1.924   1.524
 5860TIP3    H117523   0.692   1.839   1.497
 5860TIP3    H217524   0.632   1.967   1.443
 5861TIP3   OH217525   6.657   6.734   3.566
 5861TIP3    H117526   6.689   6.696   3.648
 5861TIP3    H217527   6.693   6.677   3.498
 5862TIP3   OH217528   3.837   1.901   5.981
 5862TIP3    H117529   3.878   1.856   6.055
 5862TIP3    H217530   3.784   1.834   5.939
 5863TIP3   OH217531   6.258   4.673   3.235
 5863TIP3    H117532   6.213   4.730   3.297
 5863TIP3    H217533   6.189   4.614   3.202
 5864TIP3   OH217534   5.937   0.803   0.456
 5864TIP3    H117535   5.921   0.778   0.365
 5864TIP3    H217536   6.033   0.806   0.464
 5865TIP3   OH217537   3.359   5.440   1.216
 5865TIP3    H117538   3.305   5.385   1.273
 5865TIP3    H217539   3.443   5.446   1.261
 5866TIP3   OH217540   1.018   3.879   4.580
 5866TIP3    H117541   1.084   3.888   4.511
 5866TIP3    H217542   0.936   3.868   4.533
 5867TIP3   OH217543   5.609   3.523   5.216
 5867TIP3    H117544   5.583   3.614   5.202
 5867TIP3    H217545   5.526   3.476   5.232
 5868TIP3   OH217546   6.003   5.997   2.517
 5868TIP3    H117547   5.909   6.011   2.508
 5868TIP3    H217548   6.036   5.990   2.428
 5869TIP3   OH217549   5.583   7.385   6.649
 5869TIP3    H117550   5.520   7.435   6.597
 5869TIP3    H217551   5.567   7.413   6.739
 5870TIP3   OH217552   0.402   7.593   0.422
 5870TIP3    H117553   0.378   7.585   0.515
 5870TIP3    H217554   0.498   7.592   0.423
 5871TIP3   OH217555   5.747   6.029   3.730
 5871TIP3    H117556   5.746   5.998   3.640
 5871TIP3    H217557   5.690   5.968   3.777
 5872TIP3   OH217558   0.310   2.170   0.699
 5872TIP3    H117559   0.259   2.092   0.677
 5872TIP3    H217560   0.244   2.238   0.715
 5873TIP3   OH217561   5.213   6.052   2.859
 5873TIP3    H117562   5.255   6.116   2.916
 5873TIP3    H217563   5.274   6.042   2.786
 5874TIP3   OH217564   3.071   6.285   1.815
 5874TIP3    H117565   3.154   6.324   1.788
 5874TIP3    H217566   3.072   6.289   1.911
 5875TIP3   OH217567   3.768   6.992   6.631
 5875TIP3    H117568   3.792   7.083   6.646
 5875TIP3    H217569   3.807   6.970   6.547
 5876TIP3   OH217570   1.274   5.242   6.240
 5876TIP3    H117571   1.248   5.310   6.178
 5876TIP3    H217572   1.326   5.289   6.306
 5877TIP3   OH217573   7.481   6.107   0.980
 5877TIP3    H117574   7.519   6.020   0.972
 5877TIP3    H217575   7.389   6.091   1.001
 5878TIP3   OH217576   0.990   0.722   5.601
 5878TIP3    H117577   0.924   0.691   5.663
 5878TIP3    H217578   1.048   0.647   5.589
 5879TIP3   OH217579   0.938   4.756   5.010
 5879TIP3    H117580   1.028   4.789   5.009
 5879TIP3    H217581   0.892   4.809   4.945
 5880TIP3   OH217582   2.175   0.451   4.829
 5880TIP3    H117583   2.101   0.469   4.887
 5880TIP3    H217584   2.147   0.374   4.779
 5881TIP3   OH217585   5.600   0.523   6.279
 5881TIP3    H117586   5.582   0.502   6.187
 5881TIP3    H217587   5.656   0.600   6.275
 5882TIP3   OH217588   6.343   5.468   0.618
 5882TIP3    H117589   6.380   5.555   0.633
 5882TIP3    H217590   6.251   5.483   0.595
 5883TIP3   OH217591   4.957   3.541   3.144
 5883TIP3    H117592   5.035   3.503   3.102
 5883TIP3    H217593   4.966   3.635   3.130
 5884TIP3   OH217594   0.536   3.460   4.442
 5884TIP3    H117595   0.493   3.521   4.383
 5884TIP3    H217596   0.513   3.491   4.530
 5885TIP3   OH217597   4.049   2.212   1.916
 5885TIP3    H117598   3.993   2.216   1.993
 5885TIP3    H217599   4.132   2.176   1.948
 5886TIP3   OH217600   6.263   7.550   2.847
 5886TIP3    H117601   6.340   7.501   2.877
 5886TIP3    H217602   6.299   7.625   2.800
 5887TIP3   OH217603   3.548   6.567   1.053
 5887TIP3    H117604   3.533   6.505   1.125
 5887TIP3    H217605   3.626   6.534   1.008
 5888TIP3   OH217606   0.754   5.739   0.813
 5888TIP3    H117607   0.780   5.831   0.817
 5888TIP3    H217608   0.803   5.703   0.740
 5889TIP3   OH217609   0.609   0.251   4.463
 5889TIP3    H117610   0.629   0.177   4.520
 5889TIP3    H217611   0.676   0.248   4.395
 5890TIP3   OH217612   1.614   1.758   0.423
 5890TIP3    H117613   1.676   1.825   0.395
 5890TIP3    H217614   1.588   1.785   0.511
 5891TIP3   OH217615   4.755   3.064   6.107
 5891TIP3    H117616   4.672   3.047   6.063
 5891TIP3    H217617   4.791   3.141   6.063
 5892TIP3   OH217618   5.035   1.816   1.159
 5892TIP3    H117619   4.946   1.783   1.142
 5892TIP3    H217620   5.022   1.907   1.184
 5893TIP3   OH217621   7.066   1.697   6.469
 5893TIP3    H117622   7.025   1.655   6.393
 5893TIP3    H217623   7.129   1.633   6.501
 5894TIP3   OH217624   4.172   3.986   6.275
 5894TIP3    H117625   4.081   4.008   6.290
 5894TIP3    H217626   4.220   4.068   6.288
 5895TIP3   OH217627   7.330   5.097   6.006
 5895TIP3    H117628   7.267   5.031   6.033
 5895TIP3    H217629   7.399   5.093   6.071
 5896TIP3   OH217630   3.993   1.276   1.496
 5896TIP3    H117631   3.937   1.198   1.500
 5896TIP3    H217632   3.932   1.348   1.484
 5897TIP3   OH217633   7.395   0.878   6.735
 5897TIP3    H117634   7.417   0.817   6.806
 5897TIP3    H217635   7.478   0.892   6.689
 5898TIP3   OH217636   0.997   4.440   5.434
 5898TIP3    H117637   0.950   4.459   5.515
 5898TIP3    H217638   1.056   4.368   5.457
 5899TIP3   OH217639   8.056   3.830   0.479
 5899TIP3    H117640   7.986   3.837   0.415
 5899TIP3    H217641   8.073   3.920   0.506
 5900TIP3   OH217642   2.873   6.273   0.530
 5900TIP3    H117643   2.896   6.338   0.597
 5900TIP3    H217644   2.937   6.289   0.460
 5901TIP3   OH217645   0.055   6.075   5.014
 5901TIP3    H117646   0.106   5.997   4.988
 5901TIP3    H217647  -0.036   6.047   5.008
 5902TIP3   OH217648   3.516   4.984   0.483
 5902TIP3    H117649   3.589   4.926   0.464
 5902TIP3    H217650   3.463   4.936   0.547
 5903TIP3   OH217651   8.167   5.819   5.573
 5903TIP3    H117652   8.180   5.863   5.490
 5903TIP3    H217653   8.172   5.725   5.552
 5904TIP3   OH217654   5.909   6.160   6.471
 5904TIP3    H117655   5.828   6.161   6.420
 5904TIP3    H217656   5.880   6.161   6.562
 5905TIP3   OH217657   6.398   1.129   0.348
 5905TIP3    H117658   6.406   1.221   0.322
 5905TIP3    H217659   6.390   1.131   0.443
 5906TIP3   OH217660   7.006   2.111   2.788
 5906TIP3    H117661   7.031   2.021   2.807
 5906TIP3    H217662   6.911   2.112   2.802
 5907TIP3   OH217663   0.842   5.810   5.536
 5907TIP3    H117664   0.889   5.755   5.472
 5907TIP3    H217665   0.786   5.750   5.584
 5908TIP3   OH217666   5.611   4.548   3.563
 5908TIP3    H117667   5.639   4.638   3.579
 5908TIP3    H217668   5.634   4.501   3.643
 5909TIP3   OH217669   8.055   0.293   4.916
 5909TIP3    H117670   8.114   0.235   4.869
 5909TIP3    H217671   8.027   0.358   4.852
 5910TIP3   OH217672   4.875   4.239   1.354
 5910TIP3    H117673   4.803   4.184   1.384
 5910TIP3    H217674   4.888   4.214   1.263
 5911TIP3   OH217675   3.472   2.527   3.264
 5911TIP3    H117676   3.435   2.591   3.203
 5911TIP3    H217677   3.486   2.449   3.211
 5912TIP3   OH217678   4.384   6.784   4.648
 5912TIP3    H117679   4.306   6.834   4.627
 5912TIP3    H217680   4.395   6.795   4.742
 5913TIP3   OH217681   2.569   2.232   6.767
 5913TIP3    H117682   2.627   2.278   6.705
 5913TIP3    H217683   2.626   2.167   6.808
 5914TIP3   OH217684   7.128   0.152   2.593
 5914TIP3    H117685   7.130   0.182   2.502
 5914TIP3    H217686   7.217   0.164   2.625
 5915TIP3   OH217687   4.940   1.433   0.073
 5915TIP3    H117688   4.876   1.384   0.125
 5915TIP3    H217689   4.990   1.484   0.137
 5916TIP3   OH217690   4.654   5.017   1.771
 5916TIP3    H117691   4.699   5.100   1.757
 5916TIP3    H217692   4.629   4.988   1.683
 5917TIP3   OH217693   3.180   0.883   4.251
 5917TIP3    H117694   3.239   0.872   4.326
 5917TIP3    H217695   3.182   0.798   4.207
 5918TIP3   OH217696   4.777   5.005   4.708
 5918TIP3    H117697   4.798   5.078   4.649
 5918TIP3    H217698   4.682   5.009   4.717
 5919TIP3   OH217699   4.599   6.374   5.429
 5919TIP3    H117700   4.612   6.416   5.514
 5919TIP3    H217701   4.601   6.280   5.448
 5920TIP3   OH217702   0.313   5.468   4.332
 5920TIP3    H117703   0.236   5.476   4.276
 5920TIP3    H217704   0.347   5.380   4.313
 5921TIP3   OH217705   7.352   0.247   2.934
 5921TIP3    H117706   7.291   0.297   2.881
 5921TIP3    H217707   7.319   0.157   2.931
 5922TIP3   OH217708   7.705   1.231   5.255
 5922TIP3    H117709   7.677   1.307   5.306
 5922TIP3    H217710   7.638   1.165   5.273
 5923TIP3   OH217711   6.863   1.531   1.050
 5923TIP3    H117712   6.855   1.437   1.066
 5923TIP3    H217713   6.773   1.563   1.056
 5924TIP3   OH217714   3.270   0.740   5.278
 5924TIP3    H117715   3.285   0.788   5.197
 5924TIP3    H217716   3.182   0.767   5.306
 5925TIP3   OH217717   0.105   5.746   4.262
 5925TIP3    H117718   0.112   5.655   4.233
 5925TIP3    H217719   0.050   5.788   4.195
 5926TIP3   OH217720   6.307   3.810   2.149
 5926TIP3    H117721   6.324   3.815   2.243
 5926TIP3    H217722   6.336   3.894   2.114
 5927TIP3   OH217723   3.381   7.104   0.773
 5927TIP3    H117724   3.324   7.161   0.721
 5927TIP3    H217725   3.461   7.097   0.721
 5928TIP3   OH217726   5.141   2.084   0.268
 5928TIP3    H117727   5.062   2.136   0.284
 5928TIP3    H217728   5.162   2.100   0.176
 5929TIP3   OH217729   1.249   1.745   4.902
 5929TIP3    H117730   1.253   1.758   4.997
 5929TIP3    H217731   1.246   1.650   4.892
 5930TIP3   OH217732   6.081   2.605   0.911
 5930TIP3    H117733   6.066   2.574   1.000
 5930TIP3    H217734   6.143   2.677   0.921
 5931TIP3   OH217735   1.414   0.510   4.837
 5931TIP3    H117736   1.460   0.457   4.772
 5931TIP3    H217737   1.484   0.542   4.895
 5932TIP3   OH217738   7.120   4.775   0.263
 5932TIP3    H117739   7.121   4.868   0.287
 5932TIP3    H217740   7.036   4.743   0.296
 5933TIP3   OH217741   2.360   0.860   6.418
 5933TIP3    H117742   2.315   0.926   6.365
 5933TIP3    H217743   2.427   0.909   6.466
 5934TIP3   OH217744   3.104   0.517   1.312
 5934TIP3    H117745   3.177   0.536   1.253
 5934TIP3    H217746   3.141   0.528   1.400
 5935TIP3   OH217747   2.819   0.279   1.040
 5935TIP3    H117748   2.754   0.277   0.970
 5935TIP3    H217749   2.821   0.370   1.068
 5936TIP3   OH217750   2.067   5.707   6.379
 5936TIP3    H117751   2.035   5.765   6.448
 5936TIP3    H217752   2.043   5.751   6.297
 5937TIP3   OH217753   2.974   4.925   5.680
 5937TIP3    H117754   2.892   4.969   5.703
 5937TIP3    H217755   2.984   4.942   5.586
 5938TIP3   OH217756   0.770   1.079   5.898
 5938TIP3    H117757   0.694   1.052   5.949
 5938TIP3    H217758   0.742   1.073   5.807
 5939TIP3   OH217759   0.792   3.766   4.462
 5939TIP3    H117760   0.794   3.671   4.451
 5939TIP3    H217761   0.725   3.796   4.400
 5940TIP3   OH217762   0.512   0.199   3.979
 5940TIP3    H117763   0.485   0.290   3.992
 5940TIP3    H217764   0.431   0.152   3.958
 5941TIP3   OH217765   1.475   6.995   2.644
 5941TIP3    H117766   1.520   6.912   2.632
 5941TIP3    H217767   1.388   6.982   2.605
 5942TIP3   OH217768   3.727   6.950   6.112
 5942TIP3    H117769   3.720   6.986   6.024
 5942TIP3    H217770   3.712   7.024   6.170
 5943TIP3   OH217771   5.089   7.676   4.794
 5943TIP3    H117772   5.084   7.763   4.755
 5943TIP3    H217773   4.999   7.656   4.819
 5944TIP3   OH217774   0.382   2.353   4.420
 5944TIP3    H117775   0.346   2.281   4.368
 5944TIP3    H217776   0.365   2.431   4.368
 5945TIP3   OH217777   6.431   0.736   6.528
 5945TIP3    H117778   6.353   0.779   6.563
 5945TIP3    H217779   6.473   0.803   6.474
 5946TIP3   OH217780   1.827   0.889   1.863
 5946TIP3    H117781   1.824   0.983   1.880
 5946TIP3    H217782   1.828   0.849   1.950
 5947TIP3   OH217783   5.327   2.614   4.737
 5947TIP3    H117784   5.346   2.597   4.829
 5947TIP3    H217785   5.413   2.615   4.695
 5948TIP3   OH217786   1.107   4.836   3.991
 5948TIP3    H117787   1.042   4.820   3.923
 5948TIP3    H217788   1.141   4.924   3.972
 5949TIP3   OH217789   1.359   0.477   4.287
 5949TIP3    H117790   1.355   0.559   4.237
 5949TIP3    H217791   1.292   0.487   4.355
 5950TIP3   OH217792   7.821   5.319   3.301
 5950TIP3    H117793   7.765   5.392   3.276
 5950TIP3    H217794   7.906   5.359   3.320
 5951TIP3   OH217795   5.778   3.673   1.191
 5951TIP3    H117796   5.828   3.664   1.109
 5951TIP3    H217797   5.773   3.767   1.206
 5952TIP3   OH217798   4.774   2.285   1.128
 5952TIP3    H117799   4.816   2.330   1.055
 5952TIP3    H217800   4.841   2.226   1.162
 5953TIP3   OH217801   6.429   7.143   4.572
 5953TIP3    H117802   6.385   7.212   4.523
 5953TIP3    H217803   6.392   7.062   4.538
 5954TIP3   OH217804   1.977   6.207   6.614
 5954TIP3    H117805   2.046   6.193   6.549
 5954TIP3    H217806   1.897   6.177   6.570
 5955TIP3   OH217807   0.828   4.698   3.485
 5955TIP3    H117808   0.885   4.699   3.408
 5955TIP3    H217809   0.805   4.606   3.497
 5956TIP3   OH217810   0.380   7.437   1.403
 5956TIP3    H117811   0.449   7.448   1.469
 5956TIP3    H217812   0.362   7.526   1.372
 5957TIP3   OH217813   7.051   0.121   5.280
 5957TIP3    H117814   7.090   0.141   5.365
 5957TIP3    H217815   7.062   0.027   5.270
 5958TIP3   OH217816   0.238   3.375   0.929
 5958TIP3    H117817   0.189   3.299   0.961
 5958TIP3    H217818   0.191   3.450   0.963
 5959TIP3   OH217819   0.962   5.586   0.650
 5959TIP3    H117820   1.028   5.571   0.717
 5959TIP3    H217821   1.004   5.557   0.569
 5960TIP3   OH217822   4.430   4.711   1.696
 5960TIP3    H117823   4.475   4.709   1.780
 5960TIP3    H217824   4.337   4.720   1.719
 5961TIP3   OH217825   0.463   3.787   6.540
 5961TIP3    H117826   0.377   3.781   6.581
 5961TIP3    H217827   0.521   3.736   6.598
 5962TIP3   OH217828   7.312   6.889   3.704
 5962TIP3    H117829   7.297   6.853   3.791
 5962TIP3    H217830   7.362   6.969   3.721
 5963TIP3   OH217831   7.001   1.045   3.652
 5963TIP3    H117832   6.955   1.068   3.571
 5963TIP3    H217833   7.042   0.961   3.634
 5964TIP3   OH217834   0.750   6.989   5.708
 5964TIP3    H117835   0.831   6.952   5.672
 5964TIP3    H217836   0.775   7.024   5.793
 5965TIP3   OH217837   5.524   1.530   4.149
 5965TIP3    H117838   5.515   1.612   4.198
 5965TIP3    H217839   5.571   1.472   4.209
 5966TIP3   OH217840   0.709   5.999   4.311
 5966TIP3    H117841   0.761   5.920   4.322
 5966TIP3    H217842   0.630   5.984   4.363
 5967TIP3   OH217843   6.173   2.321   2.672
 5967TIP3    H117844   6.216   2.259   2.612
 5967TIP3    H217845   6.114   2.372   2.615
 5968TIP3   OH217846   7.776   1.518   1.961
 5968TIP3    H117847   7.834   1.543   2.033
 5968TIP3    H217848   7.825   1.540   1.882
 5969TIP3   OH217849   5.371   3.692   0.584
 5969TIP3    H117850   5.342   3.617   0.636
 5969TIP3    H217851   5.466   3.695   0.596
 5970TIP3   OH217852   8.065   4.104   0.592
 5970TIP3    H117853   8.055   4.098   0.688
 5970TIP3    H217854   8.156   4.079   0.576
 5971TIP3   OH217855   2.688   5.435   3.960
 5971TIP3    H117856   2.665   5.516   4.005
 5971TIP3    H217857   2.771   5.408   4.000
 5972TIP3   OH217858   2.078   2.930   1.200
 5972TIP3    H117859   2.123   2.884   1.271
 5972TIP3    H217860   2.148   2.974   1.152
 5973TIP3   OH217861   5.672   1.347   1.298
 5973TIP3    H117862   5.755   1.365   1.254
 5973TIP3    H217863   5.697   1.296   1.375
 5974TIP3   OH217864   4.866   6.021   5.559
 5974TIP3    H117865   4.836   6.052   5.473
 5974TIP3    H217866   4.920   5.945   5.539
 5975TIP3   OH217867   1.730   4.578   4.799
 5975TIP3    H117868   1.734   4.665   4.761
 5975TIP3    H217869   1.702   4.592   4.890
 5976TIP3   OH217870   3.688   6.473   1.854
 5976TIP3    H117871   3.754   6.415   1.816
 5976TIP3    H217872   3.727   6.505   1.935
 5977TIP3   OH217873   7.206   4.215   5.965
 5977TIP3    H117874   7.203   4.174   5.878
 5977TIP3    H217875   7.263   4.291   5.954
 5978TIP3   OH217876   7.081   5.323   4.234
 5978TIP3    H117877   7.065   5.386   4.304
 5978TIP3    H217878   7.152   5.268   4.267
 5979TIP3   OH217879   6.956   6.459   1.944
 5979TIP3    H117880   6.904   6.386   1.976
 5979TIP3    H217881   6.916   6.536   1.985
 5980TIP3   OH217882   6.461   0.789   5.869
 5980TIP3    H117883   6.494   0.850   5.934
 5980TIP3    H217884   6.391   0.836   5.824
 5981TIP3   OH217885   8.065   5.723   3.906
 5981TIP3    H117886   7.972   5.729   3.886
 5981TIP3    H217887   8.092   5.812   3.927
 5982TIP3   OH217888   7.703   0.268   4.465
 5982TIP3    H117889   7.758   0.335   4.423
 5982TIP3    H217890   7.624   0.315   4.491
 5983TIP3   OH217891   8.039   5.141   2.782
 5983TIP3    H117892   7.946   5.133   2.807
 5983TIP3    H217893   8.078   5.058   2.810
 5984TIP3   OH217894   8.164   7.450   2.165
 5984TIP3    H117895   8.230   7.463   2.233
 5984TIP3    H217896   8.084   7.428   2.213
 5985TIP3   OH217897   5.478   3.973   5.121
 5985TIP3    H117898   5.483   3.910   5.049
 5985TIP3    H217899   5.461   4.057   5.078
 5986TIP3   OH217900   7.610   6.124   4.639
 5986TIP3    H117901   7.610   6.182   4.563
 5986TIP3    H217902   7.563   6.046   4.609
 5987TIP3   OH217903   6.136   5.488   6.063
 5987TIP3    H117904   6.151   5.554   6.130
 5987TIP3    H217905   6.214   5.492   6.008
 5988TIP3   OH217906   4.330   3.024   3.017
 5988TIP3    H117907   4.315   2.977   2.935
 5988TIP3    H217908   4.245   3.023   3.061
 5989TIP3   OH217909   4.558   1.478   5.116
 5989TIP3    H117910   4.575   1.572   5.114
 5989TIP3    H217911   4.478   1.469   5.167
 5990TIP3   OH217912   6.843   5.101   0.888
 5990TIP3    H117913   6.760   5.082   0.931
 5990TIP3    H217914   6.888   5.162   0.946
 5991TIP3   OH217915   4.078   5.906   0.955
 5991TIP3    H117916   4.168   5.908   0.922
 5991TIP3    H217917   4.050   5.816   0.942
 5992TIP3   OH217918   5.678   6.510   6.196
 5992TIP3    H117919   5.675   6.601   6.225
 5992TIP3    H217920   5.660   6.459   6.275
 5993TIP3   OH217921   4.793   0.590   5.744
 5993TIP3    H117922   4.699   0.606   5.740
 5993TIP3    H217923   4.825   0.611   5.656
 5994TIP3   OH217924   6.564   3.954   0.296
 5994TIP3    H117925   6.522   3.956   0.382
 5994TIP3    H217926   6.495   3.925   0.236
 5995TIP3   OH217927   6.151   7.691   6.622
 5995TIP3    H117928   6.135   7.606   6.582
 5995TIP3    H217929   6.152   7.674   6.716
 5996TIP3   OH217930   0.774   2.948   5.210
 5996TIP3    H117931   0.804   3.018   5.153
 5996TIP3    H217932   0.774   2.870   5.154
 5997TIP3   OH217933   7.411   6.034   2.790
 5997TIP3    H117934   7.405   6.041   2.695
 5997TIP3    H217935   7.474   6.101   2.815
 5998TIP3   OH217936   1.501   2.896   6.485
 5998TIP3    H117937   1.530   2.915   6.574
 5998TIP3    H217938   1.407   2.881   6.493
 5999TIP3   OH217939   1.769   0.547   1.759
 5999TIP3    H117940   1.707   0.525   1.689
 5999TIP3    H217941   1.837   0.479   1.753
 6000TIP3   OH217942   0.592   0.234   1.837
 6000TIP3    H117943   0.600   0.169   1.767
 6000TIP3    H217944   0.511   0.210   1.882
 6001TIP3   OH217945   4.481   5.158   3.360
 6001TIP3    H117946   4.403   5.116   3.326
 6001TIP3    H217947   4.457   5.251   3.369
 6002TIP3   OH217948   4.276   5.374   0.539
 6002TIP3    H117949   4.198   5.350   0.488
 6002TIP3    H217950   4.348   5.368   0.477
 6003TIP3   OH217951   6.965   3.118   2.764
 6003TIP3    H117952   6.936   3.136   2.854
 6003TIP3    H217953   6.917   3.181   2.710
 6004TIP3   OH217954   4.705   5.682   0.792
 6004TIP3    H117955   4.730   5.671   0.884
 6004TIP3    H217956   4.621   5.637   0.785
 6005TIP3   OH217957   3.872   7.577   1.582
 6005TIP3    H117958   3.812   7.647   1.606
 6005TIP3    H217959   3.836   7.499   1.625
 6006TIP3   OH217960   8.012   7.643   0.577
 6006TIP3    H117961   7.922   7.609   0.580
 6006TIP3    H217962   8.006   7.728   0.621
 6007TIP3   OH217963   3.644   6.839   2.287
 6007TIP3    H117964   3.740   6.841   2.292
 6007TIP3    H217965   3.625   6.862   2.196
 6008TIP3   OH217966   1.812   6.766   0.808
 6008TIP3    H117967   1.892   6.798   0.764
 6008TIP3    H217968   1.778   6.842   0.855
 6009TIP3   OH217969   2.053   0.262   5.513
 6009TIP3    H117970   2.125   0.259   5.576
 6009TIP3    H217971   2.093   0.296   5.433
 6010TIP3   OH217972   0.975   5.618   3.665
 6010TIP3    H117973   0.902   5.629   3.727
 6010TIP3    H217974   0.957   5.535   3.621
 6011TIP3   OH217975   8.034   5.016   6.592
 6011TIP3    H117976   7.959   5.048   6.642
 6011TIP3    H217977   7.997   4.980   6.512
 6012TIP3   OH217978   2.634   6.378   5.717
 6012TIP3    H117979   2.652   6.464   5.679
 6012TIP3    H217980   2.690   6.318   5.668
 6013TIP3   OH217981   6.428   4.513   2.318
 6013TIP3    H117982   6.340   4.549   2.311
 6013TIP3    H217983   6.471   4.538   2.236
 6014TIP3   OH217984   6.479   4.238   2.715
 6014TIP3    H117985   6.410   4.237   2.781
 6014TIP3    H217986   6.480   4.329   2.684
 6015TIP3   OH217987   6.717   5.296   4.870
 6015TIP3    H117988   6.727   5.287   4.775
 6015TIP3    H217989   6.805   5.279   4.904
 6016TIP3   OH217990   2.751   3.869   5.141
 6016TIP3    H117991   2.727   3.781   5.169
 6016TIP3    H217992   2.819   3.855   5.075
 6017TIP3   OH217993   7.433   2.752   5.861
 6017TIP3    H117994   7.372   2.685   5.892
 6017TIP3    H217995   7.519   2.712   5.870
 6018TIP3   OH217996   8.161   4.702   6.408
 6018TIP3    H117997   8.094   4.765   6.384
 6018TIP3    H217998   8.209   4.743   6.479
 6019TIP3   OH217999   3.611   1.618   1.361
 6019TIP3    H118000   3.567   1.679   1.303
 6019TIP3    H218001   3.582   1.643   1.449
 6020TIP3   OH218002   3.247   0.792   6.177
 6020TIP3    H118003   3.257   0.698   6.190
 6020TIP3    H218004   3.232   0.801   6.083
 6021TIP3   OH218005   5.921   1.785   3.117
 6021TIP3    H118006   5.929   1.698   3.155
 6021TIP3    H218007   5.924   1.771   3.022
 6022TIP3   OH218008   3.705   4.336   5.980
 6022TIP3    H118009   3.667   4.283   5.910
 6022TIP3    H218010   3.631   4.379   6.023
 6023TIP3   OH218011   7.477   7.109   3.800
 6023TIP3    H118012   7.564   7.098   3.837
 6023TIP3    H218013   7.487   7.178   3.734
 6024TIP3   OH218014   1.414   6.225   1.458
 6024TIP3    H118015   1.485   6.218   1.522
 6024TIP3    H218016   1.374   6.310   1.475
 6025TIP3   OH218017   3.301   7.053   6.373
 6025TIP3    H118018   3.261   6.971   6.402
 6025TIP3    H218019   3.385   7.056   6.417
 6026TIP3   OH218020   7.999   1.856   1.576
 6026TIP3    H118021   8.064   1.786   1.576
 6026TIP3    H218022   7.942   1.836   1.651
 6027TIP3   OH218023   3.349   0.544   0.034
 6027TIP3    H118024   3.392   0.533   0.119
 6027TIP3    H218025   3.305   0.629   0.041
 6028TIP3   OH218026   0.391   6.444   4.400
 6028TIP3    H118027   0.401   6.417   4.309
 6028TIP3    H218028   0.346   6.371   4.442
 6029TIP3   OH218029   0.950   6.933   5.495
 6029TIP3    H118030   1.046   6.932   5.491
 6029TIP3    H218031   0.922   6.953   5.405
 6030TIP3   OH218032   4.674   1.987   4.917
 6030TIP3    H118033   4.602   1.953   4.863
 6030TIP3    H218034   4.732   2.031   4.854
 6031TIP3   OH218035   0.546   2.452   3.355
 6031TIP3    H118036   0.540   2.473   3.262
 6031TIP3    H218037   0.631   2.410   3.364
 6032TIP3   OH218038   3.679   1.828   2.773
 6032TIP3    H118039   3.763   1.873   2.763
 6032TIP3    H218040   3.634   1.840   2.689
 6033TIP3   OH218041   4.463   2.389   6.714
 6033TIP3    H118042   4.505   2.404   6.799
 6033TIP3    H218043   4.371   2.411   6.729
 6034TIP3   OH218044   1.426   2.059   3.657
 6034TIP3    H118045   1.354   2.121   3.647
 6034TIP3    H218046   1.460   2.077   3.745
 6035TIP3   OH218047   2.549   1.718   2.121
 6035TIP3    H118048   2.634   1.694   2.158
 6035TIP3    H218049   2.528   1.647   2.059
 6036TIP3   OH218050   3.972   5.332   1.545
 6036TIP3    H118051   4.036   5.342   1.474
 6036TIP3    H218052   3.974   5.415   1.592
 6037TIP3   OH218053   2.540   2.685   5.303
 6037TIP3    H118054   2.496   2.649   5.226
 6037TIP3    H218055   2.470   2.702   5.365
 6038TIP3   OH218056   1.949   0.017   5.623
 6038TIP3    H118057   1.869   0.008   5.571
 6038TIP3    H218058   2.004   0.076   5.572
 6039TIP3   OH218059   2.272   1.525   3.464
 6039TIP3    H118060   2.208   1.505   3.396
 6039TIP3    H218061   2.349   1.554   3.416
 6040TIP3   OH218062   1.098   5.535   0.409
 6040TIP3    H118063   1.181   5.503   0.446
 6040TIP3    H218064   1.118   5.550   0.316
 6041TIP3   OH218065   1.998   5.035   5.069
 6041TIP3    H118066   1.956   4.976   5.006
 6041TIP3    H218067   1.994   5.121   5.027
 6042TIP3   OH218068   8.180   4.403   4.258
 6042TIP3    H118069   8.208   4.376   4.171
 6042TIP3    H218070   8.103   4.349   4.277
 6043TIP3   OH218071   0.480   0.982   0.711
 6043TIP3    H118072   0.398   0.935   0.701
 6043TIP3    H218073   0.459   1.073   0.689
 6044TIP3   OH218074   7.977   3.083   5.858
 6044TIP3    H118075   7.950   3.143   5.928
 6044TIP3    H218076   7.967   3.134   5.778
 6045TIP3   OH218077   7.089   4.685   3.108
 6045TIP3    H118078   7.061   4.716   3.022
 6045TIP3    H218079   7.183   4.704   3.112
 6046TIP3   OH218080   1.097   5.260   5.882
 6046TIP3    H118081   1.013   5.294   5.851
 6046TIP3    H218082   1.138   5.333   5.928
 6047TIP3   OH218083   7.837   2.979   3.153
 6047TIP3    H118084   7.760   3.032   3.133
 6047TIP3    H218085   7.820   2.895   3.112
 6048TIP3   OH218086   4.054   1.140   1.990
 6048TIP3    H118087   4.046   1.144   1.895
 6048TIP3    H218088   4.128   1.081   2.005
 6049TIP3   OH218089   2.140   0.815   1.511
 6049TIP3    H118090   2.052   0.804   1.546
 6049TIP3    H218091   2.197   0.774   1.576
 6050TIP3   OH218092   6.552   7.334   3.413
 6050TIP3    H118093   6.599   7.266   3.366
 6050TIP3    H218094   6.611   7.410   3.411
 6051TIP3   OH218095   1.599   2.956   5.179
 6051TIP3    H118096   1.537   2.997   5.240
 6051TIP3    H218097   1.571   2.986   5.092
 6052TIP3   OH218098   4.779   7.702   2.608
 6052TIP3    H118099   4.756   7.745   2.526
 6052TIP3    H218100   4.697   7.668   2.641
 6053TIP3   OH218101   5.124   0.512   2.073
 6053TIP3    H118102   5.207   0.532   2.117
 6053TIP3    H218103   5.057   0.526   2.140
 6054TIP3   OH218104   6.199   6.515   6.420
 6054TIP3    H118105   6.247   6.590   6.456
 6054TIP3    H218106   6.173   6.542   6.332
 6055TIP3   OH218107   3.378   1.670   6.182
 6055TIP3    H118108   3.445   1.607   6.207
 6055TIP3    H218109   3.311   1.617   6.139
 6056TIP3   OH218110   0.721   2.649   5.329
 6056TIP3    H118111   0.790   2.585   5.313
 6056TIP3    H218112   0.738   2.682   5.417
 6057TIP3   OH218113   0.406   0.360   1.458
 6057TIP3    H118114   0.407   0.382   1.364
 6057TIP3    H218115   0.463   0.426   1.498
 6058TIP3   OH218116   4.052   0.259   3.732
 6058TIP3    H118117   4.019   0.244   3.644
 6058TIP3    H218118   4.090   0.347   3.729
 6059TIP3   OH218119   0.461   3.667   5.059
 6059TIP3    H118120   0.391   3.672   4.994
 6059TIP3    H218121   0.541   3.669   5.008
 6060TIP3   OH218122   5.523   3.131   3.356
 6060TIP3    H118123   5.533   3.045   3.398
 6060TIP3    H218124   5.429   3.150   3.362
 6061TIP3   OH218125   7.555   3.888   4.889
 6061TIP3    H118126   7.647   3.910   4.875
 6061TIP3    H218127   7.518   3.881   4.801
 6062TIP3   OH218128   5.053   0.967   5.573
 6062TIP3    H118129   5.011   0.961   5.659
 6062TIP3    H218130   5.128   0.909   5.579
 6063TIP3   OH218131   1.114   2.534   0.185
 6063TIP3    H118132   1.057   2.597   0.140
 6063TIP3    H218133   1.178   2.589   0.230
 6064TIP3   OH218134   1.205   3.983   3.109
 6064TIP3    H118135   1.296   3.976   3.135
 6064TIP3    H218136   1.207   4.017   3.019
 6065TIP3   OH218137   1.672   2.217   5.655
 6065TIP3    H118138   1.628   2.225   5.570
 6065TIP3    H218139   1.698   2.125   5.660
 6066TIP3   OH218140   7.602   6.426   1.204
 6066TIP3    H118141   7.551   6.433   1.285
 6066TIP3    H218142   7.679   6.376   1.229
 6067TIP3   OH218143   1.920   1.880   1.959
 6067TIP3    H118144   1.872   1.798   1.971
 6067TIP3    H218145   1.975   1.887   2.037
 6068TIP3   OH218146   8.096   5.160   1.169
 6068TIP3    H118147   8.162   5.230   1.166
 6068TIP3    H218148   8.067   5.150   1.078
 6069TIP3   OH218149   7.611   2.901   1.714
 6069TIP3    H118150   7.606   2.807   1.731
 6069TIP3    H218151   7.603   2.941   1.800
 6070TIP3   OH218152   5.974   4.985   5.879
 6070TIP3    H118153   6.007   4.909   5.831
 6070TIP3    H218154   5.885   4.960   5.903
 6071TIP3   OH218155   0.661   1.055   0.466
 6071TIP3    H118156   0.732   1.109   0.432
 6071TIP3    H218157   0.582   1.107   0.451
 6072TIP3   OH218158   0.294   3.875   2.209
 6072TIP3    H118159   0.384   3.907   2.216
 6072TIP3    H218160   0.269   3.892   2.118
 6073TIP3   OH218161   0.297   2.741   1.511
 6073TIP3    H118162   0.215   2.787   1.533
 6073TIP3    H218163   0.287   2.655   1.550
 6074TIP3   OH218164   7.946   5.425   4.883
 6074TIP3    H118165   7.890   5.451   4.809
 6074TIP3    H218166   8.035   5.429   4.848
 6075TIP3   OH218167   2.286   0.605   5.106
 6075TIP3    H118168   2.341   0.568   5.176
 6075TIP3    H218169   2.197   0.591   5.136
 6076TIP3   OH218170   1.030   4.619   1.326
 6076TIP3    H118171   0.972   4.543   1.328
 6076TIP3    H218172   1.009   4.663   1.244
 6077TIP3   OH218173   6.783   0.853   3.791
 6077TIP3    H118174   6.866   0.834   3.747
 6077TIP3    H218175   6.717   0.809   3.738
 6078TIP3   OH218176   4.688   6.989   3.149
 6078TIP3    H118177   4.593   6.981   3.138
 6078TIP3    H218178   4.721   7.008   3.061
 6079TIP3   OH218179   6.216   6.315   1.325
 6079TIP3    H118180   6.135   6.264   1.325
 6079TIP3    H218181   6.267   6.279   1.398
 6080TIP3   OH218182   4.228   6.371   3.136
 6080TIP3    H118183   4.209   6.285   3.097
 6080TIP3    H218184   4.201   6.434   3.070
 6081TIP3   OH218185   6.117   5.704   4.679
 6081TIP3    H118186   6.196   5.713   4.626
 6081TIP3    H218187   6.142   5.733   4.766
 6082TIP3   OH218188   7.799   0.472   6.630
 6082TIP3    H118189   7.748   0.545   6.596
 6082TIP3    H218190   7.736   0.421   6.682
 6083TIP3   OH218191   0.703   0.598   2.120
 6083TIP3    H118192   0.723   0.533   2.053
 6083TIP3    H218193   0.617   0.574   2.154
 6084TIP3   OH218194   4.018   4.327   5.844
 6084TIP3    H118195   3.927   4.353   5.831
 6084TIP3    H218196   4.021   4.295   5.934
 6085TIP3   OH218197   3.986   0.854   2.636
 6085TIP3    H118198   3.960   0.802   2.712
 6085TIP3    H218199   3.905   0.897   2.608
 6086TIP3   OH218200   0.064   5.760   5.788
 6086TIP3    H118201   0.077   5.851   5.763
 6086TIP3    H218202  -0.026   5.741   5.761
 6087TIP3   OH218203   0.464   4.890   3.168
 6087TIP3    H118204   0.391   4.939   3.131
 6087TIP3    H218205   0.429   4.851   3.248
 6088TIP3   OH218206   2.592   6.819   1.684
 6088TIP3    H118207   2.668   6.760   1.691
 6088TIP3    H218208   2.625   6.895   1.637
 6089TIP3   OH218209   0.534   0.795   2.583
 6089TIP3    H118210   0.497   0.770   2.498
 6089TIP3    H218211   0.484   0.872   2.610
 6090TIP3   OH218212   4.554   7.413   0.359
 6090TIP3    H118213   4.639   7.370   0.351
 6090TIP3    H218214   4.512   7.370   0.434
 6091TIP3   OH218215   3.355   1.378   5.361
 6091TIP3    H118216   3.409   1.384   5.439
 6091TIP3    H218217   3.385   1.449   5.304
 6092TIP3   OH218218   4.355   0.885   5.928
 6092TIP3    H118219   4.395   0.802   5.956
 6092TIP3    H218220   4.415   0.918   5.860
 6093TIP3   OH218221   6.361   4.901   5.283
 6093TIP3    H118222   6.414   4.951   5.345
 6093TIP3    H218223   6.421   4.879   5.212
 6094TIP3   OH218224   4.950   3.818   5.781
 6094TIP3    H118225   4.881   3.877   5.811
 6094TIP3    H218226   5.012   3.875   5.735
 6095TIP3   OH218227   3.521   2.021   2.892
 6095TIP3    H118228   3.571   2.083   2.840
 6095TIP3    H218229   3.565   1.937   2.878
 6096TIP3   OH218230   5.117   7.572   5.662
 6096TIP3    H118231   5.126   7.478   5.680
 6096TIP3    H218232   5.203   7.599   5.630
 6097TIP3   OH218233   1.955   5.574   1.366
 6097TIP3    H118234   1.862   5.558   1.381
 6097TIP3    H218235   1.995   5.487   1.370
 6098TIP3   OH218236   4.868   2.757   2.136
 6098TIP3    H118237   4.855   2.782   2.045
 6098TIP3    H218238   4.857   2.839   2.185
 6099TIP3   OH218239   6.121   3.778   0.154
 6099TIP3    H118240   6.195   3.838   0.150
 6099TIP3    H218241   6.051   3.822   0.106
 6100TIP3   OH218242   2.055   2.166   6.747
 6100TIP3    H118243   1.964   2.147   6.771
 6100TIP3    H218244   2.063   2.132   6.658
 6101TIP3   OH218245   6.159   1.232   5.269
 6101TIP3    H118246   6.230   1.191   5.318
 6101TIP3    H218247   6.181   1.216   5.177
 6102TIP3   OH218248   6.975   3.437   0.444
 6102TIP3    H118249   6.967   3.369   0.511
 6102TIP3    H218250   6.886   3.469   0.430
 6103TIP3   OH218251   2.783   4.453   1.755
 6103TIP3    H118252   2.719   4.510   1.798
 6103TIP3    H218253   2.745   4.434   1.670
 6104TIP3   OH218254   5.927   2.299   6.251
 6104TIP3    H118255   5.957   2.384   6.285
 6104TIP3    H218256   5.967   2.235   6.310
 6105TIP3   OH218257   1.841   3.076   5.260
 6105TIP3    H118258   1.782   3.001   5.251
 6105TIP3    H218259   1.791   3.150   5.226
 6106TIP3   OH218260   4.288   1.846   0.270
 6106TIP3    H118261   4.291   1.843   0.174
 6106TIP3    H218262   4.330   1.764   0.298
 6107TIP3   OH218263   5.290   6.499   1.985
 6107TIP3    H118264   5.303   6.509   1.891
 6107TIP3    H218265   5.195   6.487   1.995
 6108TIP3   OH218266   5.460   0.759   3.245
 6108TIP3    H118267   5.555   0.771   3.240
 6108TIP3    H218268   5.425   0.848   3.254
 6109TIP3   OH218269   1.041   4.389   1.892
 6109TIP3    H118270   1.032   4.484   1.886
 6109TIP3    H218271   1.135   4.375   1.906
 6110TIP3   OH218272   8.180   4.348   0.845
 6110TIP3    H118273   8.134   4.265   0.860
 6110TIP3    H218274   8.111   4.410   0.822
 6111TIP3   OH218275   6.449   6.470   3.417
 6111TIP3    H118276   6.476   6.457   3.509
 6111TIP3    H218277   6.370   6.523   3.423
 6112TIP3   OH218278   4.215   0.394   4.979
 6112TIP3    H118279   4.265   0.328   5.027
 6112TIP3    H218280   4.127   0.390   5.017
 6113TIP3   OH218281   2.827   5.958   3.072
 6113TIP3    H118282   2.858   6.008   3.147
 6113TIP3    H218283   2.907   5.934   3.024
 6114TIP3   OH218284   1.111   5.206   6.493
 6114TIP3    H118285   1.155   5.220   6.409
 6114TIP3    H218286   1.022   5.239   6.479
 6115TIP3   OH218287   2.890   1.119   4.055
 6115TIP3    H118288   2.955   1.123   4.126
 6115TIP3    H218289   2.904   1.200   4.006
 6116TIP3   OH218290   7.957   0.864   4.159
 6116TIP3    H118291   7.970   0.771   4.139
 6116TIP3    H218292   7.863   0.873   4.173
 6117TIP3   OH218293   4.831   7.176   1.922
 6117TIP3    H118294   4.916   7.219   1.922
 6117TIP3    H218295   4.849   7.086   1.894
 6118TIP3   OH218296   8.040   1.375   0.828
 6118TIP3    H118297   8.042   1.465   0.798
 6118TIP3    H218298   7.959   1.339   0.791
 6119TIP3   OH218299   3.347   0.131   6.489
 6119TIP3    H118300   3.253   0.147   6.475
 6119TIP3    H218301   3.388   0.157   6.406
 6120TIP3   OH218302   5.613   0.947   5.365
 6120TIP3    H118303   5.637   0.964   5.456
 6120TIP3    H218304   5.575   1.030   5.335
 6121TIP3   OH218305   6.531   1.223   2.855
 6121TIP3    H118306   6.467   1.288   2.825
 6121TIP3    H218307   6.609   1.240   2.802
 6122TIP3   OH218308   0.209   4.393   4.258
 6122TIP3    H118309   0.182   4.364   4.344
 6122TIP3    H218310   0.220   4.312   4.207
 6123TIP3   OH218311   5.205   1.178   0.202
 6123TIP3    H118312   5.160   1.203   0.282
 6123TIP3    H218313   5.254   1.099   0.225
 6124TIP3   OH218314   1.970   2.513   5.890
 6124TIP3    H118315   1.922   2.561   5.957
 6124TIP3    H218316   2.055   2.496   5.928
 6125TIP3   OH218317   5.209   4.927   3.884
 6125TIP3    H118318   5.178   4.843   3.918
 6125TIP3    H218319   5.130   4.970   3.851
 6126TIP3   OH218320   6.347   7.708   5.047
 6126TIP3    H118321   6.352   7.692   4.952
 6126TIP3    H218322   6.436   7.689   5.078
 6127TIP3   OH218323   1.120   2.684   4.056
 6127TIP3    H118324   1.121   2.642   4.142
 6127TIP3    H218325   1.196   2.743   4.058
 6128TIP3   OH218326   4.188   0.902   1.670
 6128TIP3    H118327   4.175   0.987   1.628
 6128TIP3    H218328   4.271   0.910   1.716
 6129TIP3   OH218329   7.820   0.121   5.461
 6129TIP3    H118330   7.896   0.103   5.517
 6129TIP3    H218331   7.805   0.215   5.471
 6130TIP3   OH218332   1.651   7.303   2.157
 6130TIP3    H118333   1.637   7.257   2.074
 6130TIP3    H218334   1.673   7.234   2.219
 6131TIP3   OH218335   5.042   6.746   5.758
 6131TIP3    H118336   5.080   6.797   5.830
 6131TIP3    H218337   5.064   6.655   5.778
 6132TIP3   OH218338   6.252   7.196   5.043
 6132TIP3    H118339   6.262   7.290   5.054
 6132TIP3    H218340   6.337   7.167   5.009
 6133TIP3   OH218341   3.525   0.057   1.741
 6133TIP3    H118342   3.543  -0.008   1.674
 6133TIP3    H218343   3.599   0.117   1.737
 6134TIP3   OH218344   0.507   5.907   1.496
 6134TIP3    H118345   0.449   5.982   1.488
 6134TIP3    H218346   0.466   5.839   1.442
 6135TIP3   OH218347   5.397   7.002   0.645
 6135TIP3    H118348   5.464   6.993   0.577
 6135TIP3    H218349   5.327   7.050   0.602
 6136TIP3   OH218350   7.112   5.062   5.113
 6136TIP3    H118351   7.166   5.031   5.186
 6136TIP3    H218352   7.173   5.066   5.039
 6137TIP3   OH218353   1.504   0.296   3.954
 6137TIP3    H118354   1.512   0.203   3.932
 6137TIP3    H218355   1.425   0.325   3.909
 6138TIP3   OH218356   4.105   3.157   1.946
 6138TIP3    H118357   4.081   3.243   1.913
 6138TIP3    H218358   4.181   3.173   2.001
 6139TIP3   OH218359   3.955   2.334   0.036
 6139TIP3    H118360   3.933   2.287  -0.044
 6139TIP3    H218361   4.048   2.356   0.027
 6140TIP3   OH218362   0.058   0.575   4.756
 6140TIP3    H118363   0.061   0.663   4.720
 6140TIP3    H218364   0.060   0.518   4.679
 6141TIP3   OH218365   4.118   3.647   0.844
 6141TIP3    H118366   4.180   3.717   0.865
 6141TIP3    H218367   4.037   3.671   0.889
 6142TIP3   OH218368   1.705   5.529   6.277
 6142TIP3    H118369   1.683   5.472   6.203
 6142TIP3    H218370   1.766   5.477   6.329
 6143TIP3   OH218371   4.849   1.344   4.526
 6143TIP3    H118372   4.790   1.334   4.451
 6143TIP3    H218373   4.811   1.289   4.594
 6144TIP3   OH218374   0.231   1.507   0.692
 6144TIP3    H118375   0.259   1.538   0.778
 6144TIP3    H218376   0.150   1.459   0.709
 6145TIP3   OH218377   5.570   6.670   5.933
 6145TIP3    H118378   5.635   6.639   5.996
 6145TIP3    H218379   5.502   6.711   5.987
 6146TIP3   OH218380   5.466   1.624   6.698
 6146TIP3    H118381   5.400   1.588   6.639
 6146TIP3    H218382   5.433   1.604   6.786
 6147TIP3   OH218383   5.104   2.395   1.704
 6147TIP3    H118384   5.195   2.367   1.719
 6147TIP3    H218385   5.077   2.436   1.785
 6148TIP3   OH218386   1.950   3.428   0.400
 6148TIP3    H118387   1.973   3.355   0.457
 6148TIP3    H218388   1.876   3.396   0.348
 6149TIP3   OH218389   0.920   0.995   1.483
 6149TIP3    H118390   0.947   0.962   1.569
 6149TIP3    H218391   0.948   1.086   1.483
 6150TIP3   OH218392   3.703   6.984   3.136
 6150TIP3    H118393   3.622   6.946   3.170
 6150TIP3    H218394   3.698   6.970   3.042
 6151TIP3   OH218395   1.076   4.348   3.603
 6151TIP3    H118396   1.082   4.439   3.631
 6151TIP3    H218397   1.165   4.325   3.577
 6152TIP3   OH218398   0.368   0.319   5.607
 6152TIP3    H118399   0.454   0.319   5.565
 6152TIP3    H218400   0.383   0.277   5.692
 6153TIP3   OH218401   7.224   3.269   1.773
 6153TIP3    H118402   7.272   3.187   1.761
 6153TIP3    H218403   7.150   3.262   1.712
 6154TIP3   OH218404   4.216   2.716   2.286
 6154TIP3    H118405   4.220   2.736   2.379
 6154TIP3    H218406   4.307   2.718   2.256
 6155TIP3   OH218407   4.960   7.556   3.900
 6155TIP3    H118408   4.906   7.529   3.825
 6155TIP3    H218409   4.996   7.475   3.934
 6156TIP3   OH218410   5.426   0.833   1.354
 6156TIP3    H118411   5.509   0.856   1.397
 6156TIP3    H218412   5.429   0.881   1.270
 6157TIP3   OH218413   3.982   1.114   4.532
 6157TIP3    H118414   3.987   1.035   4.587
 6157TIP3    H218415   3.930   1.175   4.584
 6158TIP3   OH218416   2.359   3.018   3.239
 6158TIP3    H118417   2.366   3.050   3.149
 6158TIP3    H218418   2.431   2.956   3.248
 6159TIP3   OH218419   1.008   3.004   1.989
 6159TIP3    H118420   0.966   2.927   2.028
 6159TIP3    H218421   1.086   3.017   2.042
 6160TIP3   OH218422   6.082   6.585   0.891
 6160TIP3    H118423   6.140   6.559   0.962
 6160TIP3    H218424   5.994   6.581   0.929
 6161TIP3   OH218425   1.326   3.384   4.736
 6161TIP3    H118426   1.337   3.401   4.830
 6161TIP3    H218427   1.410   3.408   4.698
 6162TIP3   OH218428   6.141   4.750   5.440
 6162TIP3    H118429   6.219   4.767   5.388
 6162TIP3    H218430   6.106   4.838   5.459
 6163TIP3   OH218431   2.787   4.206   1.245
 6163TIP3    H118432   2.863   4.262   1.226
 6163TIP3    H218433   2.809   4.122   1.205
 6164TIP3   OH218434   5.351   0.755   5.521
 6164TIP3    H118435   5.446   0.765   5.515
 6164TIP3    H218436   5.337   0.699   5.597
 6165TIP3   OH218437   2.540   0.316   4.302
 6165TIP3    H118438   2.504   0.355   4.382
 6165TIP3    H218439   2.613   0.374   4.278
 6166TIP3   OH218440   7.927   2.476   1.058
 6166TIP3    H118441   7.907   2.407   1.122
 6166TIP3    H218442   7.979   2.432   0.992
 6167TIP3   OH218443   6.000   4.299   0.754
 6167TIP3    H118444   6.039   4.369   0.702
 6167TIP3    H218445   5.985   4.338   0.840
 6168TIP3   OH218446   7.153   3.623   2.326
 6168TIP3    H118447   7.122   3.555   2.267
 6168TIP3    H218448   7.194   3.688   2.268
 6169TIP3   OH218449   3.532   2.889   3.224
 6169TIP3    H118450   3.490   2.974   3.232
 6169TIP3    H218451   3.577   2.876   3.307
 6170TIP3   OH218452   0.114   3.272   3.456
 6170TIP3    H118453   0.205   3.285   3.481
 6170TIP3    H218454   0.064   3.324   3.520
 6171TIP3   OH218455   4.637   4.759   5.100
 6171TIP3    H118456   4.582   4.695   5.054
 6171TIP3    H218457   4.590   4.842   5.092
 6172TIP3   OH218458   4.421   5.337   0.904
 6172TIP3    H118459   4.343   5.309   0.953
 6172TIP3    H218460   4.447   5.259   0.855
 6173TIP3   OH218461   4.967   7.778   4.427
 6173TIP3    H118462   5.061   7.763   4.418
 6173TIP3    H218463   4.960   7.868   4.459
 6174TIP3   OH218464   6.612   0.336   4.745
 6174TIP3    H118465   6.650   0.422   4.761
 6174TIP3    H218466   6.587   0.304   4.831
 6175TIP3   OH218467   0.561   2.369   5.598
 6175TIP3    H118468   0.606   2.299   5.646
 6175TIP3    H218469   0.615   2.383   5.521
 6176TIP3   OH218470   8.025   0.630   4.930
 6176TIP3    H118471   7.968   0.577   4.875
 6176TIP3    H218472   8.058   0.699   4.872
 6177TIP3   OH218473   3.908   7.167   1.756
 6177TIP3    H118474   3.945   7.195   1.672
 6177TIP3    H218475   3.825   7.125   1.732
 6178TIP3   OH218476   3.435   7.652   3.247
 6178TIP3    H118477   3.526   7.638   3.220
 6178TIP3    H218478   3.384   7.619   3.174
 6179TIP3   OH218479   8.193   3.656   1.993
 6179TIP3    H118480   8.216   3.743   1.961
 6179TIP3    H218481   8.277   3.615   2.013
 6180TIP3   OH218482   4.552   2.750   4.002
 6180TIP3    H118483   4.567   2.842   4.022
 6180TIP3    H218484   4.535   2.749   3.908
 6181TIP3   OH218485   7.636   4.232   3.925
 6181TIP3    H118486   7.724   4.252   3.958
 6181TIP3    H218487   7.638   4.137   3.912
 6182TIP3   OH218488   0.033   4.576   0.737
 6182TIP3    H118489  -0.020   4.595   0.660
 6182TIP3    H218490   0.007   4.488   0.763
 6183TIP3   OH218491   2.807   3.285   3.223
 6183TIP3    H118492   2.719   3.287   3.184
 6183TIP3    H218493   2.866   3.280   3.148
 6184TIP3   OH218494   7.148   6.074   5.757
 6184TIP3    H118495   7.122   6.074   5.665
 6184TIP3    H218496   7.150   6.166   5.782
 6185TIP3   OH218497   2.046   2.304   3.792
 6185TIP3    H118498   2.098   2.384   3.784
 6185TIP3    H218499   1.998   2.298   3.709
 6186TIP3   OH218500   3.349   6.314   2.605
 6186TIP3    H118501   3.262   6.354   2.601
 6186TIP3    H218502   3.350   6.251   2.533
 6187TIP3   OH218503   6.555   5.458   0.231
 6187TIP3    H118504   6.607   5.377   0.229
 6187TIP3    H218505   6.585   5.508   0.155
 6188TIP3   OH218506   4.282   3.762   4.123
 6188TIP3    H118507   4.254   3.850   4.146
 6188TIP3    H218508   4.271   3.711   4.203
 6189TIP3   OH218509   5.824   3.282   2.831
 6189TIP3    H118510   5.886   3.316   2.896
 6189TIP3    H218511   5.833   3.187   2.836
 6190TIP3   OH218512   4.721   4.098   2.539
 6190TIP3    H118513   4.645   4.148   2.511
 6190TIP3    H218514   4.752   4.143   2.618
 6191TIP3   OH218515   1.153   4.011   1.661
 6191TIP3    H118516   1.118   3.937   1.610
 6191TIP3    H218517   1.178   3.972   1.745
 6192TIP3   OH218518   3.976   0.292   4.183
 6192TIP3    H118519   3.971   0.264   4.275
 6192TIP3    H218520   4.058   0.341   4.178
 6193TIP3   OH218521   0.863   4.192   4.918
 6193TIP3    H118522   0.881   4.255   4.988
 6193TIP3    H218523   0.949   4.175   4.879
 6194TIP3   OH218524   2.949   1.339   1.243
 6194TIP3    H118525   3.007   1.414   1.230
 6194TIP3    H218526   2.950   1.293   1.159
 6195TIP3   OH218527   7.587   2.671   4.595
 6195TIP3    H118528   7.600   2.713   4.680
 6195TIP3    H218529   7.675   2.661   4.559
 6196TIP3   OH218530   1.195   1.771   6.485
 6196TIP3    H118531   1.215   1.678   6.495
 6196TIP3    H218532   1.274   1.816   6.514
 6197TIP3   OH218533   2.537   4.412   4.552
 6197TIP3    H118534   2.559   4.478   4.618
 6197TIP3    H218535   2.442   4.417   4.544
 6198TIP3   OH218536   6.255   0.498   2.434
 6198TIP3    H118537   6.164   0.527   2.433
 6198TIP3    H218538   6.292   0.537   2.513
 6199TIP3   OH218539   3.315   0.598   3.468
 6199TIP3    H118540   3.221   0.607   3.459
 6199TIP3    H218541   3.331   0.504   3.467
 6200TIP3   OH218542   2.477   5.291   6.593
 6200TIP3    H118543   2.426   5.265   6.670
 6200TIP3    H218544   2.435   5.371   6.563
 6201TIP3   OH218545   4.522   0.236   3.168
 6201TIP3    H118546   4.526   0.171   3.098
 6201TIP3    H218547   4.480   0.190   3.241
 6202TIP3   OH218548   6.645   0.563   0.933
 6202TIP3    H118549   6.671   0.611   1.012
 6202TIP3    H218550   6.607   0.482   0.966
 6203TIP3   OH218551   4.758   2.231   0.713
 6203TIP3    H118552   4.764   2.209   0.620
 6203TIP3    H218553   4.665   2.220   0.733
 6204TIP3   OH218554   0.548   7.029   3.404
 6204TIP3    H118555   0.521   7.099   3.345
 6204TIP3    H218556   0.562   6.954   3.346
 6205TIP3   OH218557   3.042   5.971   3.895
 6205TIP3    H118558   2.953   5.956   3.863
 6205TIP3    H218559   3.063   6.061   3.867
 6206TIP3   OH218560   5.289   7.322   1.066
 6206TIP3    H118561   5.294   7.281   0.980
 6206TIP3    H218562   5.233   7.399   1.053
 6207TIP3   OH218563   2.289   0.552   4.492
 6207TIP3    H118564   2.205   0.511   4.511
 6207TIP3    H218565   2.267   0.631   4.442
 6208TIP3   OH218566   4.193   5.392   5.667
 6208TIP3    H118567   4.140   5.423   5.741
 6208TIP3    H218568   4.141   5.322   5.628
 6209TIP3   OH218569   5.471   2.331   4.828
 6209TIP3    H118570   5.453   2.369   4.742
 6209TIP3    H218571   5.416   2.382   4.888
 6210TIP3   OH218572   0.181   4.264   0.424
 6210TIP3    H118573   0.100   4.301   0.388
 6210TIP3    H218574   0.246   4.333   0.412
 6211TIP3   OH218575   3.995   5.615   6.207
 6211TIP3    H118576   4.023   5.707   6.206
 6211TIP3    H218577   4.072   5.567   6.178
 6212TIP3   OH218578   5.992   1.548   5.868
 6212TIP3    H118579   5.957   1.633   5.841
 6212TIP3    H218580   6.036   1.514   5.790
 6213TIP3   OH218581   6.312   6.113   1.867
 6213TIP3    H118582   6.271   6.075   1.790
 6213TIP3    H218583   6.400   6.075   1.869
 6214TIP3   OH218584   1.631   7.425   1.667
 6214TIP3    H118585   1.726   7.433   1.669
 6214TIP3    H218586   1.601   7.489   1.731
 6215TIP3   OH218587   3.420   1.792   1.279
 6215TIP3    H118588   3.365   1.843   1.220
 6215TIP3    H218589   3.360   1.736   1.327
 6216TIP3   OH218590   7.918   5.033   0.490
 6216TIP3    H118591   7.846   4.971   0.506
 6216TIP3    H218592   7.904   5.101   0.556
 6217TIP3   OH218593   1.454   3.911   4.982
 6217TIP3    H118594   1.508   3.948   4.912
 6217TIP3    H218595   1.364   3.926   4.952
 6218TIP3   OH218596   3.400   2.780   4.776
 6218TIP3    H118597   3.390   2.875   4.785
 6218TIP3    H218598   3.318   2.751   4.735
 6219TIP3   OH218599   0.224   0.668   1.311
 6219TIP3    H118600   0.173   0.658   1.230
 6219TIP3    H218601   0.307   0.625   1.292
 6220TIP3   OH218602   4.835   3.691   1.070
 6220TIP3    H118603   4.744   3.719   1.057
 6220TIP3    H218604   4.840   3.607   1.025
 6221TIP3   OH218605   6.341   2.187   3.395
 6221TIP3    H118606   6.314   2.110   3.445
 6221TIP3    H218607   6.280   2.256   3.422
 6222TIP3   OH218608   5.453   1.784   3.473
 6222TIP3    H118609   5.384   1.833   3.517
 6222TIP3    H218610   5.531   1.800   3.527
 6223TIP3   OH218611   4.462   3.519   2.029
 6223TIP3    H118612   4.553   3.529   2.057
 6223TIP3    H218613   4.427   3.608   2.025
 6224TIP3   OH218614   7.577   1.585   1.678
 6224TIP3    H118615   7.547   1.655   1.736
 6224TIP3    H218616   7.521   1.592   1.601
 6225TIP3   OH218617   0.025   3.717   5.036
 6225TIP3    H118618  -0.057   3.689   4.995
 6225TIP3    H218619   0.045   3.801   4.994
 6226TIP3   OH218620   2.470   2.997   0.008
 6226TIP3    H118621   2.561   2.972  -0.007
 6226TIP3    H218622   2.475   3.084   0.046
 6227TIP3   OH218623   3.351   2.624   0.537
 6227TIP3    H118624   3.373   2.648   0.447
 6227TIP3    H218625   3.390   2.537   0.549
 6228TIP3   OH218626   7.532   4.013   6.187
 6228TIP3    H118627   7.518   4.092   6.135
 6228TIP3    H218628   7.506   3.942   6.129
 6229TIP3   OH218629   5.269   0.430   2.832
 6229TIP3    H118630   5.191   0.429   2.888
 6229TIP3    H218631   5.254   0.503   2.771
 6230TIP3   OH218632   2.226   4.968   0.954
 6230TIP3    H118633   2.314   4.972   0.916
 6230TIP3    H218634   2.223   4.883   0.998
 6231TIP3   OH218635   1.603   4.144   0.835
 6231TIP3    H118636   1.698   4.147   0.841
 6231TIP3    H218637   1.583   4.051   0.826
 6232TIP3   OH218638   2.355   2.624   0.508
 6232TIP3    H118639   2.433   2.646   0.457
 6232TIP3    H218640   2.282   2.640   0.449
 6233TIP3   OH218641   3.696   1.369   5.303
 6233TIP3    H118642   3.613   1.343   5.262
 6233TIP3    H218643   3.671   1.435   5.368
 6234TIP3   OH218644   8.057   2.132   1.538
 6234TIP3    H118645   8.060   2.040   1.512
 6234TIP3    H218646   7.969   2.144   1.572
 6235TIP3   OH218647   5.980   6.608   3.837
 6235TIP3    H118648   5.967   6.569   3.751
 6235TIP3    H218649   5.920   6.682   3.841
 6236TIP3   OH218650   7.911   0.826   6.696
 6236TIP3    H118651   7.974   0.816   6.768
 6236TIP3    H218652   7.958   0.792   6.619
 6237TIP3   OH218653   7.170   5.847   0.104
 6237TIP3    H118654   7.122   5.779   0.057
 6237TIP3    H218655   7.198   5.908   0.035
 6238TIP3   OH218656   2.005   0.706   6.502
 6238TIP3    H118657   2.088   0.667   6.530
 6238TIP3    H218658   2.017   0.726   6.410
 6239TIP3   OH218659   3.565   7.550   1.208
 6239TIP3    H118660   3.574   7.573   1.116
 6239TIP3    H218661   3.512   7.621   1.246
 6240TIP3   OH218662   8.040   7.616   5.748
 6240TIP3    H118663   8.018   7.564   5.825
 6240TIP3    H218664   8.115   7.669   5.776
 6241TIP3   OH218665   1.222   1.168   4.864
 6241TIP3    H118666   1.137   1.156   4.908
 6241TIP3    H218667   1.247   1.079   4.838
 6242TIP3   OH218668   2.981   0.606   4.455
 6242TIP3    H118669   2.984   0.513   4.429
 6242TIP3    H218670   2.894   0.618   4.492
 6243TIP3   OH218671   2.370   0.473   3.625
 6243TIP3    H118672   2.367   0.399   3.686
 6243TIP3    H218673   2.283   0.513   3.632
 6244TIP3   OH218674   2.881   3.016   2.620
 6244TIP3    H118675   2.937   3.087   2.589
 6244TIP3    H218676   2.819   3.001   2.548
 6245TIP3   OH218677   5.513   3.072   0.295
 6245TIP3    H118678   5.428   3.048   0.257
 6245TIP3    H218679   5.492   3.137   0.361
 6246TIP3   OH218680   4.473   4.227   3.363
 6246TIP3    H118681   4.557   4.273   3.360
 6246TIP3    H218682   4.441   4.241   3.453
 6247TIP3   OH218683   1.326   6.233   1.968
 6247TIP3    H118684   1.321   6.203   1.878
 6247TIP3    H218685   1.236   6.233   1.999
 6248TIP3   OH218686   1.742   5.417   3.135
 6248TIP3    H118687   1.749   5.512   3.134
 6248TIP3    H218688   1.771   5.392   3.222
 6249TIP3   OH218689   7.476   4.015   5.778
 6249TIP3    H118690   7.504   3.951   5.713
 6249TIP3    H218691   7.381   4.013   5.775
 6250TIP3   OH218692   0.686   6.572   3.925
 6250TIP3    H118693   0.619   6.504   3.922
 6250TIP3    H218694   0.694   6.595   4.017
 6251TIP3   OH218695   2.900   6.151   1.643
 6251TIP3    H118696   2.853   6.088   1.696
 6251TIP3    H218697   2.953   6.200   1.705
 6252TIP3   OH218698   0.736   5.500   0.417
 6252TIP3    H118699   0.711   5.502   0.510
 6252TIP3    H218700   0.780   5.584   0.403
 6253TIP3   OH218701   8.056   0.045   6.525
 6253TIP3    H118702   8.020   0.062   6.612
 6253TIP3    H218703   7.991   0.083   6.465
 6254TIP3   OH218704   0.832   3.610   2.056
 6254TIP3    H118705   0.907   3.666   2.073
 6254TIP3    H218706   0.845   3.534   2.113
 6255TIP3   OH218707   6.778   3.053   5.843
 6255TIP3    H118708   6.865   3.055   5.884
 6255TIP3    H218709   6.717   3.066   5.915
 6256TIP3   OH218710   5.477   7.542   0.894
 6256TIP3    H118711   5.414   7.526   0.964
 6256TIP3    H218712   5.552   7.486   0.916
 6257TIP3   OH218713   0.874   2.784   1.579
 6257TIP3    H118714   0.898   2.729   1.504
 6257TIP3    H218715   0.854   2.869   1.541
 6258TIP3   OH218716   1.621   2.145   4.182
 6258TIP3    H118717   1.661   2.060   4.201
 6258TIP3    H218718   1.678   2.209   4.226
 6259TIP3   OH218719   6.438   0.437   3.690
 6259TIP3    H118720   6.397   0.353   3.710
 6259TIP3    H218721   6.531   0.415   3.676
 6260TIP3   OH218722   1.095   4.674   0.078
 6260TIP3    H118723   1.149   4.746   0.043
 6260TIP3    H218724   1.022   4.718   0.121
 6261TIP3   OH218725   4.284   5.284   5.343
 6261TIP3    H118726   4.338   5.239   5.408
 6261TIP3    H218727   4.339   5.357   5.314
 6262TIP3   OH218728   3.269   2.389   6.750
 6262TIP3    H118729   3.277   2.306   6.702
 6262TIP3    H218730   3.354   2.432   6.737
 6263TIP3   OH218731   4.823   1.853   2.665
 6263TIP3    H118732   4.838   1.831   2.757
 6263TIP3    H218733   4.829   1.770   2.619
 6264TIP3   OH218734   2.533   4.550   1.857
 6264TIP3    H118735   2.554   4.641   1.836
 6264TIP3    H218736   2.440   4.553   1.881
 6265TIP3   OH218737   2.483   6.380   2.090
 6265TIP3    H118738   2.547   6.311   2.078
 6265TIP3    H218739   2.458   6.405   2.001
 6266TIP3   OH218740   8.241   7.241   0.158
 6266TIP3    H118741   8.266   7.161   0.203
 6266TIP3    H218742   8.295   7.310   0.197
 6267TIP3   OH218743   4.443   4.482   3.572
 6267TIP3    H118744   4.429   4.550   3.638
 6267TIP3    H218745   4.526   4.505   3.530
 6268TIP3   OH218746   7.736   3.929   4.227
 6268TIP3    H118747   7.751   3.999   4.290
 6268TIP3    H218748   7.824   3.903   4.199
 6269TIP3   OH218749   2.090   6.203   5.576
 6269TIP3    H118750   2.112   6.221   5.485
 6269TIP3    H218751   2.172   6.218   5.623
 6270TIP3   OH218752   5.712   0.059   6.206
 6270TIP3    H118753   5.753   0.109   6.135
 6270TIP3    H218754   5.646   0.119   6.242
 6271TIP3   OH218755   1.948   1.746   0.530
 6271TIP3    H118756   2.028   1.732   0.581
 6271TIP3    H218757   1.977   1.794   0.452
 6272TIP3   OH218758   7.019   1.945   5.027
 6272TIP3    H118759   6.932   1.925   4.993
 6272TIP3    H218760   7.034   1.880   5.095
 6273TIP3   OH218761   0.428   7.347   4.477
 6273TIP3    H118762   0.416   7.259   4.441
 6273TIP3    H218763   0.521   7.365   4.465
 6274TIP3   OH218764   0.592   2.168   4.892
 6274TIP3    H118765   0.560   2.188   4.980
 6274TIP3    H218766   0.619   2.077   4.896
 6275TIP3   OH218767   2.005   5.814   5.106
 6275TIP3    H118768   1.922   5.855   5.133
 6275TIP3    H218769   1.980   5.748   5.042
 6276TIP3   OH218770   0.745   5.835   6.756
 6276TIP3    H118771   0.780   5.818   6.843
 6276TIP3    H218772   0.748   5.930   6.747
 6277TIP3   OH218773   2.387   1.094   2.278
 6277TIP3    H118774   2.307   1.052   2.308
 6277TIP3    H218775   2.401   1.059   2.190
 6278TIP3   OH218776   3.176   1.071   0.171
 6278TIP3    H118777   3.099   1.122   0.193
 6278TIP3    H218778   3.199   1.098   0.083
 6279TIP3   OH218779   2.112   3.927   4.091
 6279TIP3    H118780   2.116   4.019   4.062
 6279TIP3    H218781   2.181   3.883   4.041
 6280TIP3   OH218782   4.897   2.759   4.876
 6280TIP3    H118783   4.824   2.727   4.823
 6280TIP3    H218784   4.856   2.786   4.958
 6281TIP3   OH218785   0.872   6.032   5.052
 6281TIP3    H118786   0.813   6.047   4.978
 6281TIP3    H218787   0.854   5.942   5.078
 6282TIP3   OH218788   3.611   6.163   4.362
 6282TIP3    H118789   3.624   6.210   4.280
 6282TIP3    H218790   3.550   6.092   4.340
 6283TIP3   OH218791   1.436   7.364   5.163
 6283TIP3    H118792   1.486   7.402   5.091
 6283TIP3    H218793   1.357   7.330   5.121
 6284TIP3   OH218794   5.074   1.472   2.648
 6284TIP3    H118795   5.002   1.425   2.690
 6284TIP3    H218796   5.120   1.516   2.720
 6285TIP3   OH218797   4.411   2.830   0.372
 6285TIP3    H118798   4.454   2.890   0.310
 6285TIP3    H218799   4.356   2.774   0.317
 6286TIP3   OH218800   5.279   1.157   1.077
 6286TIP3    H118801   5.186   1.151   1.058
 6286TIP3    H218802   5.318   1.082   1.033
 6287TIP3   OH218803   7.400   1.445   3.096
 6287TIP3    H118804   7.427   1.481   3.012
 6287TIP3    H218805   7.480   1.407   3.133
 6288TIP3   OH218806   7.750   3.967   2.200
 6288TIP3    H118807   7.800   4.037   2.159
 6288TIP3    H218808   7.799   3.888   2.180
 6289TIP3   OH218809   4.724   3.491   2.985
 6289TIP3    H118810   4.796   3.499   3.048
 6289TIP3    H218811   4.696   3.581   2.970
 6290TIP3   OH218812   4.568   3.959   0.077
 6290TIP3    H118813   4.599   3.874   0.109
 6290TIP3    H218814   4.533   3.940  -0.010
 6291TIP3   OH218815   0.537   7.351   3.065
 6291TIP3    H118816   0.491   7.344   2.981
 6291TIP3    H218817   0.622   7.309   3.048
 6292TIP3   OH218818   1.326   3.656   3.962
 6292TIP3    H118819   1.412   3.684   3.931
 6292TIP3    H218820   1.309   3.712   4.038
 6293TIP3   OH218821   3.836   3.094   4.665
 6293TIP3    H118822   3.874   3.099   4.753
 6293TIP3    H218823   3.829   3.185   4.637
 6294TIP3   OH218824   6.229   5.928   0.533
 6294TIP3    H118825   6.187   5.893   0.454
 6294TIP3    H218826   6.185   6.012   0.549
 6295TIP3   OH218827   2.278   1.667   4.093
 6295TIP3    H118828   2.248   1.639   4.180
 6295TIP3    H218829   2.362   1.709   4.110
 6296TIP3   OH218830   0.036   7.766   3.734
 6296TIP3    H118831   0.118   7.722   3.756
 6296TIP3    H218832  -0.013   7.701   3.683
 6297TIP3   OH218833   1.148   5.490   4.677
 6297TIP3    H118834   1.201   5.551   4.625
 6297TIP3    H218835   1.161   5.517   4.767
 6298TIP3   OH218836   1.476   2.217   2.200
 6298TIP3    H118837   1.532   2.295   2.207
 6298TIP3    H218838   1.393   2.244   2.240
 6299TIP3   OH218839   1.972   5.955   5.562
 6299TIP3    H118840   1.993   6.043   5.594
 6299TIP3    H218841   2.005   5.953   5.472
 6300TIP3   OH218842   7.014   1.854   5.374
 6300TIP3    H118843   7.062   1.820   5.298
 6300TIP3    H218844   6.922   1.845   5.350
 6301TIP3   OH218845   3.144   2.822   5.529
 6301TIP3    H118846   3.128   2.881   5.602
 6301TIP3    H218847   3.057   2.793   5.502
 6302TIP3   OH218848   4.306   6.654   1.895
 6302TIP3    H118849   4.308   6.585   1.962
 6302TIP3    H218850   4.362   6.723   1.931
 6303TIP3   OH218851   2.722   5.493   0.681
 6303TIP3    H118852   2.692   5.570   0.729
 6303TIP3    H218853   2.643   5.459   0.638
 6304TIP3   OH218854   7.414   3.174   6.553
 6304TIP3    H118855   7.451   3.166   6.465
 6304TIP3    H218856   7.384   3.086   6.574
 6305TIP3   OH218857   3.857   0.131   6.261
 6305TIP3    H118858   3.856   0.217   6.304
 6305TIP3    H218859   3.863   0.151   6.168
 6306TIP3   OH218860   0.509   5.115   2.505
 6306TIP3    H118861   0.458   5.048   2.550
 6306TIP3    H218862   0.545   5.168   2.576
 6307TIP3   OH218863   3.673   1.080   3.022
 6307TIP3    H118864   3.673   1.166   2.980
 6307TIP3    H218865   3.765   1.064   3.043
 6308TIP3   OH218866   7.662   4.449   2.318
 6308TIP3    H118867   7.679   4.360   2.349
 6308TIP3    H218868   7.635   4.498   2.395
 6309TIP3   OH218869   6.191   0.614   0.498
 6309TIP3    H118870   6.111   0.560   0.498
 6309TIP3    H218871   6.226   0.604   0.410
 6310TIP3   OH218872   0.196   0.942   5.348
 6310TIP3    H118873   0.270   0.886   5.372
 6310TIP3    H218874   0.119   0.893   5.375
 6311TIP3   OH218875   1.810   1.522   6.533
 6311TIP3    H118876   1.753   1.565   6.470
 6311TIP3    H218877   1.872   1.589   6.560
 6312TIP3   OH218878   2.713   3.356   1.055
 6312TIP3    H118879   2.784   3.336   1.116
 6312TIP3    H218880   2.699   3.275   1.006
 6313TIP3   OH218881   5.884   5.195   5.097
 6313TIP3    H118882   5.885   5.177   5.003
 6313TIP3    H218883   5.975   5.183   5.125
 6314TIP3   OH218884   8.112   1.939   4.918
 6314TIP3    H118885   8.120   1.890   5.000
 6314TIP3    H218886   8.020   1.932   4.895
 6315TIP3   OH218887   0.876   1.309   6.169
 6315TIP3    H118888   0.938   1.242   6.141
 6315TIP3    H218889   0.859   1.361   6.090
 6316TIP3   OH218890   3.592   1.420   3.703
 6316TIP3    H118891   3.673   1.461   3.673
 6316TIP3    H218892   3.614   1.327   3.709
 6317TIP3   OH218893   2.089   5.440   6.440
 6317TIP3    H118894   2.182   5.442   6.462
 6317TIP3    H218895   2.063   5.532   6.438
 6318TIP3   OH218896   7.877   2.532   0.124
 6318TIP3    H118897   7.824   2.454   0.107
 6318TIP3    H218898   7.813   2.600   0.145
 6319TIP3   OH218899   4.740   0.243   2.405
 6319TIP3    H118900   4.825   0.228   2.364
 6319TIP3    H218901   4.686   0.280   2.336
 6320TIP3   OH218902   5.949   3.961   5.450
 6320TIP3    H118903   5.883   3.965   5.381
 6320TIP3    H218904   5.906   3.914   5.521
 6321TIP3   OH218905   5.687   6.107   4.537
 6321TIP3    H118906   5.697   6.044   4.465
 6321TIP3    H218907   5.769   6.155   4.538
 6322TIP3   OH218908   2.948   1.972   1.699
 6322TIP3    H118909   2.881   2.029   1.661
 6322TIP3    H218910   2.900   1.915   1.760
 6323TIP3   OH218911   3.009   7.515   2.846
 6323TIP3    H118912   2.995   7.610   2.844
 6323TIP3    H218913   3.102   7.505   2.866
 6324TIP3   OH218914   6.847   2.689   0.403
 6324TIP3    H118915   6.790   2.626   0.448
 6324TIP3    H218916   6.934   2.671   0.438
 6325TIP3   OH218917   0.550   4.370   2.236
 6325TIP3    H118918   0.524   4.450   2.190
 6325TIP3    H218919   0.645   4.366   2.227
 6326TIP3   OH218920   3.010   1.670   2.847
 6326TIP3    H118921   2.964   1.652   2.764
 6326TIP3    H218922   2.950   1.638   2.914
 6327TIP3   OH218923   6.876   4.184   6.213
 6327TIP3    H118924   6.957   4.139   6.236
 6327TIP3    H218925   6.893   4.276   6.233
 6328TIP3   OH218926   4.205   1.665   3.797
 6328TIP3    H118927   4.193   1.653   3.702
 6328TIP3    H218928   4.116   1.676   3.831
 6329TIP3   OH218929   4.998   0.461   4.057
 6329TIP3    H118930   5.086   0.472   4.093
 6329TIP3    H218931   4.961   0.388   4.106
 6330TIP3   OH218932   5.061   7.765   1.979
 6330TIP3    H118933   5.134   7.819   1.949
 6330TIP3    H218934   5.100   7.678   1.993
 6331TIP3   OH218935   5.218   3.678   3.421
 6331TIP3    H118936   5.202   3.665   3.328
 6331TIP3    H218937   5.306   3.644   3.436
 6332TIP3   OH218938   5.371   4.449   0.590
 6332TIP3    H118939   5.290   4.481   0.551
 6332TIP3    H218940   5.439   4.504   0.552
 6333TIP3   OH218941   3.753   1.998   1.643
 6333TIP3    H118942   3.765   1.903   1.639
 6333TIP3    H218943   3.769   2.021   1.734
 6334TIP3   OH218944   4.348   1.450   4.294
 6334TIP3    H118945   4.276   1.403   4.251
 6334TIP3    H218946   4.347   1.418   4.384
 6335TIP3   OH218947   5.301   4.244   5.693
 6335TIP3    H118948   5.386   4.217   5.729
 6335TIP3    H218949   5.323   4.288   5.611
 6336TIP3   OH218950   3.408   4.189   0.346
 6336TIP3    H118951   3.384   4.137   0.269
 6336TIP3    H218952   3.501   4.208   0.334
 6337TIP3   OH218953   3.847   6.530   4.224
 6337TIP3    H118954   3.838   6.625   4.232
 6337TIP3    H218955   3.770   6.494   4.267
 6338TIP3   OH218956   7.826   6.496   2.697
 6338TIP3    H118957   7.776   6.496   2.616
 6338TIP3    H218958   7.791   6.423   2.748
 6339TIP3   OH218959   7.157   2.342   2.772
 6339TIP3    H118960   7.137   2.360   2.680
 6339TIP3    H218961   7.110   2.262   2.791
 6340TIP3   OH218962   2.398   2.917   5.931
 6340TIP3    H118963   2.342   2.841   5.943
 6340TIP3    H218964   2.395   2.934   5.836
 6341TIP3   OH218965   4.697   2.317   6.118
 6341TIP3    H118966   4.701   2.374   6.196
 6341TIP3    H218967   4.755   2.359   6.055
 6342TIP3   OH218968   5.957   6.822   2.785
 6342TIP3    H118969   5.889   6.794   2.846
 6342TIP3    H218970   6.003   6.741   2.762
 6343TIP3   OH218971   6.351   0.220   3.160
 6343TIP3    H118972   6.307   0.305   3.171
 6343TIP3    H218973   6.317   0.166   3.232
 6344TIP3   OH218974   5.988   2.319   0.398
 6344TIP3    H118975   5.971   2.264   0.474
 6344TIP3    H218976   5.920   2.294   0.335
 6345TIP3   OH218977   2.737   2.113   5.124
 6345TIP3    H118978   2.802   2.117   5.194
 6345TIP3    H218979   2.750   2.027   5.084
 6346TIP3   OH218980   6.296   6.887   2.264
 6346TIP3    H118981   6.288   6.963   2.321
 6346TIP3    H218982   6.213   6.883   2.216
 6347TIP3   OH218983   4.451   5.230   0.369
 6347TIP3    H118984   4.441   5.295   0.299
 6347TIP3    H218985   4.489   5.154   0.324
 6348TIP3   OH218986   0.069   6.051   1.347
 6348TIP3    H118987   0.029   5.965   1.330
 6348TIP3    H218988   0.150   6.030   1.393
 6349TIP3   OH218989   3.708   4.624   3.500
 6349TIP3    H118990   3.756   4.677   3.436
 6349TIP3    H218991   3.620   4.662   3.501
 6350TIP3   OH218992   6.943   3.691   3.480
 6350TIP3    H118993   6.936   3.680   3.385
 6350TIP3    H218994   6.853   3.705   3.510
 6351TIP3   OH218995   3.577   0.719   4.792
 6351TIP3    H118996   3.487   0.689   4.797
 6351TIP3    H218997   3.578   0.783   4.721
 6352TIP3   OH218998   6.923   1.369   2.298
 6352TIP3    H118999   6.900   1.288   2.252
 6352TIP3    H219000   6.976   1.340   2.372
 6353TIP3   OH219001   1.239   1.506   5.069
 6353TIP3    H119002   1.248   1.560   5.148
 6353TIP3    H219003   1.321   1.457   5.064
 6354TIP3   OH219004   6.994   2.524   5.943
 6354TIP3    H119005   7.011   2.455   6.007
 6354TIP3    H219006   6.942   2.589   5.991
 6355TIP3   OH219007   6.430   7.575   5.983
 6355TIP3    H119008   6.510   7.528   6.005
 6355TIP3    H219009   6.449   7.619   5.900
 6356TIP3   OH219010   2.167   3.019   6.238
 6356TIP3    H119011   2.092   3.075   6.257
 6356TIP3    H219012   2.229   3.076   6.193
 6357TIP3   OH219013   1.008   7.701   2.647
 6357TIP3    H119014   0.996   7.772   2.710
 6357TIP3    H219015   1.103   7.694   2.636
 6358TIP3   OH219016   5.563   5.039   3.801
 6358TIP3    H119017   5.480   5.000   3.826
 6358TIP3    H219018   5.615   5.040   3.882
 6359TIP3   OH219019   7.788   4.565   1.250
 6359TIP3    H119020   7.861   4.515   1.213
 6359TIP3    H219021   7.734   4.499   1.295
 6360TIP3   OH219022   1.834   1.223   0.801
 6360TIP3    H119023   1.897   1.211   0.730
 6360TIP3    H219024   1.841   1.144   0.853
 6361TIP3   OH219025   6.880   1.695   5.753
 6361TIP3    H119026   6.841   1.762   5.810
 6361TIP3    H219027   6.974   1.717   5.753
 6362TIP3   OH219028   2.616   5.840   2.744
 6362TIP3    H119029   2.632   5.750   2.773
 6362TIP3    H219030   2.582   5.884   2.822
 6363TIP3   OH219031   5.232   4.322   3.621
 6363TIP3    H119032   5.322   4.295   3.601
 6363TIP3    H219033   5.208   4.272   3.698
 6364TIP3   OH219034   2.218   3.784   4.506
 6364TIP3    H119035   2.306   3.746   4.505
 6364TIP3    H219036   2.222   3.856   4.444
 6365TIP3   OH219037   0.871   2.187   0.654
 6365TIP3    H119038   0.779   2.182   0.680
 6365TIP3    H219039   0.888   2.281   0.647
 6366TIP3   OH219040   4.292   1.795   6.668
 6366TIP3    H119041   4.200   1.770   6.674
 6366TIP3    H219042   4.333   1.727   6.615
 6367TIP3   OH219043   3.140   7.496   1.703
 6367TIP3    H119044   3.183   7.505   1.617
 6367TIP3    H219045   3.207   7.522   1.766
 6368TIP3   OH219046   7.447   6.385   2.104
 6368TIP3    H119047   7.366   6.368   2.055
 6368TIP3    H219048   7.493   6.450   2.052
 6369TIP3   OH219049   7.753   0.055   0.551
 6369TIP3    H119050   7.764  -0.031   0.593
 6369TIP3    H219051   7.710   0.036   0.468
 6370TIP3   OH219052   4.859   3.471   0.891
 6370TIP3    H119053   4.865   3.377   0.874
 6370TIP3    H219054   4.950   3.501   0.895
 6371TIP3   OH219055   6.605   1.117   1.767
 6371TIP3    H119056   6.546   1.071   1.827
 6371TIP3    H219057   6.589   1.210   1.784
 6372TIP3   OH219058   8.086   7.727   0.134
 6372TIP3    H119059   8.007   7.698   0.087
 6372TIP3    H219060   8.112   7.651   0.186
 6373TIP3   OH219061   7.895   4.819   3.365
 6373TIP3    H119062   7.838   4.893   3.345
 6373TIP3    H219063   7.925   4.787   3.279
 6374TIP3   OH219064   7.130   4.308   5.560
 6374TIP3    H119065   7.092   4.383   5.605
 6374TIP3    H219066   7.107   4.320   5.468
 6375TIP3   OH219067   2.319   6.651   0.858
 6375TIP3    H119068   2.282   6.734   0.828
 6375TIP3    H219069   2.354   6.610   0.779
 6376TIP3   OH219070   4.186   6.115   2.664
 6376TIP3    H119071   4.194   6.021   2.679
 6376TIP3    H219072   4.244   6.133   2.590
 6377TIP3   OH219073   0.724   7.391   4.446
 6377TIP3    H119074   0.795   7.332   4.419
 6377TIP3    H219075   0.721   7.458   4.377
 6378TIP3   OH219076   6.789   0.769   0.334
 6378TIP3    H119077   6.731   0.716   0.279
 6378TIP3    H219078   6.730   0.824   0.386
 6379TIP3   OH219079   0.951   1.143   3.257
 6379TIP3    H119080   0.878   1.082   3.248
 6379TIP3    H219081   0.910   1.223   3.290
 6380TIP3   OH219082   6.335   1.458   2.782
 6380TIP3    H119083   6.298   1.392   2.723
 6380TIP3    H219084   6.272   1.530   2.781
 6381TIP3   OH219085   6.861   4.468   0.276
 6381TIP3    H119086   6.806   4.397   0.308
 6381TIP3    H219087   6.912   4.429   0.205
 6382TIP3   OH219088   1.096   5.768   6.260
 6382TIP3    H119089   1.160   5.839   6.251
 6382TIP3    H219090   1.028   5.789   6.196
 6383TIP3   OH219091   7.120   3.690   1.868
 6383TIP3    H119092   7.049   3.653   1.921
 6383TIP3    H219093   7.194   3.630   1.881
 6384TIP3   OH219094   0.900   7.496   2.904
 6384TIP3    H119095   0.982   7.447   2.906
 6384TIP3    H219096   0.879   7.511   2.996
 6385TIP3   OH219097   2.942   3.291   5.090
 6385TIP3    H119098   2.908   3.284   5.179
 6385TIP3    H219099   2.863   3.301   5.035
 6386TIP3   OH219100   3.174   7.038   3.471
 6386TIP3    H119101   3.223   7.020   3.390
 6386TIP3    H219102   3.156   7.132   3.467
 6387TIP3   OH219103   7.486   4.802   0.751
 6387TIP3    H119104   7.410   4.745   0.733
 6387TIP3    H219105   7.459   4.853   0.827
 6388TIP3   OH219106   5.837   7.430   4.917
 6388TIP3    H119107   5.775   7.432   4.845
 6388TIP3    H219108   5.887   7.350   4.903
 6389TIP3   OH219109   0.709   6.909   6.264
 6389TIP3    H119110   0.671   6.822   6.252
 6389TIP3    H219111   0.671   6.962   6.194
 6390TIP3   OH219112   0.666   2.438   1.354
 6390TIP3    H119113   0.613   2.383   1.411
 6390TIP3    H219114   0.606   2.505   1.321
 6391TIP3   OH219115   5.045   3.839   4.300
 6391TIP3    H119116   5.116   3.900   4.319
 6391TIP3    H219117   4.974   3.866   4.359
 6392TIP3   OH219118   6.613   0.317   4.420
 6392TIP3    H119119   6.547   0.251   4.402
 6392TIP3    H219120   6.687   0.269   4.457
 6393TIP3   OH219121   7.043   2.775   6.367
 6393TIP3    H119122   7.064   2.685   6.394
 6393TIP3    H219123   6.947   2.777   6.363
 6394TIP3   OH219124   1.891   6.368   5.670
 6394TIP3    H119125   1.945   6.298   5.632
 6394TIP3    H219126   1.933   6.388   5.754
 6395TIP3   OH219127   3.874   7.265   6.722
 6395TIP3    H119128   3.895   7.354   6.747
 6395TIP3    H219129   3.828   7.229   6.797
 6396TIP3   OH219130   0.393   6.937   4.615
 6396TIP3    H119131   0.399   6.884   4.694
 6396TIP3    H219132   0.338   6.885   4.556
 6397TIP3   OH219133   5.378   0.602   0.436
 6397TIP3    H119134   5.282   0.603   0.431
 6397TIP3    H219135   5.397   0.619   0.529
 6398TIP3   OH219136   2.626   3.045   3.079
 6398TIP3    H119137   2.637   3.128   3.032
 6398TIP3    H219138   2.634   2.978   3.012
 6399TIP3   OH219139   4.329   5.190   2.807
 6399TIP3    H119140   4.312   5.212   2.899
 6399TIP3    H219141   4.246   5.209   2.762
 6400TIP3   OH219142   6.305   6.511   2.712
 6400TIP3    H119143   6.290   6.599   2.745
 6400TIP3    H219144   6.322   6.523   2.619
 6401TIP3   OH219145   7.622   5.078   3.620
 6401TIP3    H119146   7.616   5.154   3.678
 6401TIP3    H219147   7.559   5.016   3.657
 6402TIP3   OH219148   5.971   1.247   4.033
 6402TIP3    H119149   5.938   1.160   4.009
 6402TIP3    H219150   5.924   1.307   3.976
 6403TIP3   OH219151   4.472   5.518   5.222
 6403TIP3    H119152   4.564   5.496   5.216
 6403TIP3    H219153   4.467   5.582   5.294
 6404TIP3   OH219154   3.778   3.498   0.799
 6404TIP3    H119155   3.840   3.559   0.838
 6404TIP3    H219156   3.778   3.422   0.857
 6405TIP3   OH219157   1.572   3.335   5.903
 6405TIP3    H119158   1.660   3.369   5.886
 6405TIP3    H219159   1.518   3.375   5.835
 6406TIP3   OH219160   2.847   6.289   6.239
 6406TIP3    H119161   2.773   6.297   6.178
 6406TIP3    H219162   2.918   6.338   6.197
 6407TIP3   OH219163   0.623   7.459   4.879
 6407TIP3    H119164   0.684   7.498   4.943
 6407TIP3    H219165   0.617   7.367   4.904
 6408TIP3   OH219166   1.766   7.366   4.745
 6408TIP3    H119167   1.720   7.285   4.720
 6408TIP3    H219168   1.844   7.367   4.689
 6409TIP3   OH219169   5.936   4.360   6.599
 6409TIP3    H119170   6.021   4.351   6.556
 6409TIP3    H219171   5.949   4.433   6.660
 6410TIP3   OH219172   3.552   0.274   2.172
 6410TIP3    H119173   3.569   0.294   2.264
 6410TIP3    H219174   3.524   0.357   2.135
 6411TIP3   OH219175   4.095   1.692   3.265
 6411TIP3    H119176   4.078   1.628   3.196
 6411TIP3    H219177   4.051   1.772   3.235
 6412TIP3   OH219178   1.089   6.264   0.439
 6412TIP3    H119179   1.082   6.330   0.509
 6412TIP3    H219180   1.106   6.315   0.360
 6413TIP3   OH219181   1.700   5.542   1.411
 6413TIP3    H119182   1.690   5.556   1.505
 6413TIP3    H219183   1.623   5.584   1.372
 6414TIP3   OH219184   2.175   5.976   5.333
 6414TIP3    H119185   2.122   5.933   5.266
 6414TIP3    H219186   2.164   6.070   5.316
 6415TIP3   OH219187   1.348   1.403   1.657
 6415TIP3    H119188   1.367   1.479   1.712
 6415TIP3    H219189   1.311   1.339   1.717
 6416TIP3   OH219190   2.876   0.309   3.138
 6416TIP3    H119191   2.840   0.224   3.163
 6416TIP3    H219192   2.895   0.300   3.044
 6417TIP3   OH219193   0.920   3.678   4.741
 6417TIP3    H119194   0.899   3.751   4.683
 6417TIP3    H219195   1.013   3.660   4.724
 6418TIP3   OH219196   2.591   6.853   1.057
 6418TIP3    H119197   2.502   6.873   1.028
 6418TIP3    H219198   2.595   6.884   1.147
 6419TIP3   OH219199   6.176   7.332   5.395
 6419TIP3    H119200   6.201   7.414   5.437
 6419TIP3    H219201   6.192   7.347   5.302
 6420TIP3   OH219202   1.573   2.479   2.163
 6420TIP3    H119203   1.665   2.473   2.138
 6420TIP3    H219204   1.529   2.509   2.084
 6421TIP3   OH219205   7.991   1.663   0.381
 6421TIP3    H119206   7.954   1.595   0.437
 6421TIP3    H219207   7.927   1.675   0.311
 6422TIP3   OH219208   2.243   3.329   5.780
 6422TIP3    H119209   2.314   3.330   5.844
 6422TIP3    H219210   2.256   3.409   5.729
 6423TIP3   OH219211   3.143   1.612   2.500
 6423TIP3    H119212   3.074   1.568   2.549
 6423TIP3    H219213   3.133   1.705   2.520
 6424TIP3   OH219214   5.001   3.786   5.216
 6424TIP3    H119215   4.914   3.779   5.255
 6424TIP3    H219216   4.998   3.866   5.164
 6425TIP3   OH219217   6.084   1.220   6.632
 6425TIP3    H119218   6.178   1.204   6.626
 6425TIP3    H219219   6.076   1.315   6.643
 6426TIP3   OH219220   1.722   7.481   6.165
 6426TIP3    H119221   1.797   7.541   6.157
 6426TIP3    H219222   1.731   7.444   6.253
 6427TIP3   OH219223   3.111   1.125   4.206
 6427TIP3    H119224   3.180   1.191   4.199
 6427TIP3    H219225   3.157   1.042   4.215
 6428TIP3   OH219226   6.015   1.546   4.751
 6428TIP3    H119227   5.945   1.604   4.781
 6428TIP3    H219228   6.001   1.464   4.799
 6429TIP3   OH219229   3.855   3.969   1.224
 6429TIP3    H119230   3.782   3.939   1.171
 6429TIP3    H219231   3.930   3.966   1.164
 6430TIP3   OH219232   0.920   2.672   0.086
 6430TIP3    H119233   0.905   2.763   0.109
 6430TIP3    H219234   0.835   2.642   0.052
 6431TIP3   OH219235   2.941   6.821   0.680
 6431TIP3    H119236   2.914   6.802   0.590
 6431TIP3    H219237   3.024   6.775   0.690
 6432TIP3   OH219238   0.354   7.350   0.853
 6432TIP3    H119239   0.304   7.339   0.934
 6432TIP3    H219240   0.391   7.263   0.837
 6433TIP3   OH219241   5.120   5.187   4.766
 6433TIP3    H119242   5.122   5.171   4.861
 6433TIP3    H219243   5.148   5.278   4.757
 6434TIP3   OH219244   2.207   1.628   4.619
 6434TIP3    H119245   2.215   1.537   4.591
 6434TIP3    H219246   2.263   1.634   4.697
 6435TIP3   OH219247   0.021   6.250   1.552
 6435TIP3    H119248   0.059   6.211   1.473
 6435TIP3    H219249   0.036   6.185   1.620
 6436TIP3   OH219250   5.087   0.150   5.293
 6436TIP3    H119251   5.171   0.114   5.320
 6436TIP3    H219252   5.044   0.080   5.244
 6437TIP3   OH219253   3.656   2.748   4.449
 6437TIP3    H119254   3.668   2.755   4.544
 6437TIP3    H219255   3.731   2.698   4.419
 6438TIP3   OH219256   5.357   0.556   2.236
 6438TIP3    H119257   5.448   0.572   2.210
 6438TIP3    H219258   5.363   0.493   2.308
 6439TIP3   OH219259   2.620   6.120   0.213
 6439TIP3    H119260   2.604   6.204   0.170
 6439TIP3    H219261   2.641   6.143   0.303
 6440TIP3   OH219262   7.964   1.994   3.524
 6440TIP3    H119263   7.916   2.073   3.498
 6440TIP3    H219264   7.899   1.940   3.569
 6441TIP3   OH219265   5.965   6.977   4.181
 6441TIP3    H119266   5.957   6.967   4.276
 6441TIP3    H219267   6.045   7.028   4.169
 6442TIP3   OH219268   1.444   1.656   5.934
 6442TIP3    H119269   1.432   1.599   5.859
 6442TIP3    H219270   1.421   1.602   6.010
 6443TIP3   OH219271   5.800   5.509   2.871
 6443TIP3    H119272   5.747   5.520   2.949
 6443TIP3    H219273   5.787   5.589   2.820
 6444TIP3   OH219274   8.247   7.231   4.137
 6444TIP3    H119275   8.195   7.161   4.175
 6444TIP3    H219276   8.242   7.217   4.043
 6445TIP3   OH219277   2.743   7.230   1.373
 6445TIP3    H119278   2.799   7.283   1.430
 6445TIP3    H219279   2.761   7.263   1.285
 6446TIP3   OH219280   5.357   0.677   6.273
 6446TIP3    H119281   5.413   0.629   6.334
 6446TIP3    H219282   5.415   0.744   6.235
 6447TIP3   OH219283   5.259   2.437   2.602
 6447TIP3    H119284   5.212   2.419   2.683
 6447TIP3    H219285   5.202   2.497   2.554
 6448TIP3   OH219286   5.517   6.577   5.341
 6448TIP3    H119287   5.596   6.631   5.347
 6448TIP3    H219288   5.550   6.488   5.331
 6449TIP3   OH219289   4.306   2.752   5.624
 6449TIP3    H119290   4.347   2.667   5.603
 6449TIP3    H219291   4.228   2.729   5.675
 6450TIP3   OH219292   4.269   1.469   6.729
 6450TIP3    H119293   4.337   1.429   6.783
 6450TIP3    H219294   4.275   1.424   6.644
 6451TIP3   OH219295   2.236   6.337   3.437
 6451TIP3    H119296   2.169   6.390   3.394
 6451TIP3    H219297   2.283   6.398   3.493
 6452TIP3   OH219298   4.736   7.587   6.019
 6452TIP3    H119299   4.817   7.558   5.976
 6452TIP3    H219300   4.741   7.549   6.107
 6453TIP3   OH219301   0.000   5.988   3.045
 6453TIP3    H119302  -0.032   5.899   3.030
 6453TIP3    H219303   0.089   5.987   3.011
 6454TIP3   OH219304   7.705   0.463   5.268
 6454TIP3    H119305   7.699   0.407   5.191
 6454TIP3    H219306   7.749   0.542   5.237
 6455TIP3   OH219307   1.782   5.823   0.643
 6455TIP3    H119308   1.844   5.888   0.610
 6455TIP3    H219309   1.733   5.870   0.711
 6456TIP3   OH219310   3.882   6.402   3.955
 6456TIP3    H119311   3.840   6.452   4.024
 6456TIP3    H219312   3.960   6.364   3.997
 6457TIP3   OH219313   1.048   1.508   2.079
 6457TIP3    H119314   1.028   1.436   2.019
 6457TIP3    H219315   1.020   1.475   2.165
 6458TIP3   OH219316   1.011   0.732   6.712
 6458TIP3    H119317   0.931   0.679   6.714
 6458TIP3    H219318   1.068   0.686   6.651
 6459TIP3   OH219319   7.792   6.321   2.258
 6459TIP3    H119320   7.805   6.292   2.349
 6459TIP3    H219321   7.706   6.286   2.234
 6460TIP3   OH219322   3.890   5.839   4.858
 6460TIP3    H119323   3.839   5.836   4.777
 6460TIP3    H219324   3.850   5.772   4.914
 6461TIP3   OH219325   4.545   2.175   1.250
 6461TIP3    H119326   4.617   2.217   1.203
 6461TIP3    H219327   4.584   2.098   1.290
 6462TIP3   OH219328   4.810   3.699   3.996
 6462TIP3    H119329   4.826   3.674   3.906
 6462TIP3    H219330   4.715   3.712   4.001
 6463TIP3   OH219331   0.490   1.768   2.418
 6463TIP3    H119332   0.532   1.682   2.417
 6463TIP3    H219333   0.532   1.816   2.347
 6464TIP3   OH219334   2.983   0.718   2.318
 6464TIP3    H119335   2.989   0.755   2.406
 6464TIP3    H219336   3.008   0.626   2.329
 6465TIP3   OH219337   5.034   4.460   3.735
 6465TIP3    H119338   4.940   4.473   3.732
 6465TIP3    H219339   5.055   4.412   3.655
 6466TIP3   OH219340   6.097   1.686   5.601
 6466TIP3    H119341   6.134   1.600   5.616
 6466TIP3    H219342   6.153   1.725   5.533
 6467TIP3   OH219343   3.312   2.652   6.283
 6467TIP3    H119344   3.372   2.715   6.244
 6467TIP3    H219345   3.248   2.705   6.331
 6468TIP3   OH219346   8.033   6.006   5.719
 6468TIP3    H119347   8.090   6.082   5.733
 6468TIP3    H219348   8.085   5.946   5.667
 6469TIP3   OH219349   5.725   1.126   1.771
 6469TIP3    H119350   5.639   1.158   1.798
 6469TIP3    H219351   5.742   1.052   1.830
 6470TIP3   OH219352   2.167   0.229   0.629
 6470TIP3    H119353   2.192   0.321   0.616
 6470TIP3    H219354   2.130   0.202   0.545
 6471TIP3   OH219355   7.985   5.977   3.687
 6471TIP3    H119356   7.921   6.048   3.686
 6471TIP3    H219357   7.939   5.903   3.648
 6472TIP3   OH219358   0.234   0.351   2.234
 6472TIP3    H119359   0.261   0.268   2.274
 6472TIP3    H219360   0.167   0.326   2.170
 6473TIP3   OH219361   4.685   7.767   3.144
 6473TIP3    H119362   4.652   7.680   3.165
 6473TIP3    H219363   4.639   7.791   3.063
 6474TIP3   OH219364   5.568   4.092   0.473
 6474TIP3    H119365   5.480   4.128   0.483
 6474TIP3    H219366   5.582   4.089   0.378
 6475TIP3   OH219367   6.357   4.268   2.329
 6475TIP3    H119368   6.388   4.213   2.401
 6475TIP3    H219369   6.404   4.350   2.338
 6476TIP3   OH219370   6.217   2.568   6.107
 6476TIP3    H119371   6.286   2.630   6.130
 6476TIP3    H219372   6.150   2.581   6.174
 6477TIP3   OH219373   0.241   3.445   4.745
 6477TIP3    H119374   0.279   3.366   4.708
 6477TIP3    H219375   0.199   3.416   4.826
 6478TIP3   OH219376   0.441   1.552   5.995
 6478TIP3    H119377   0.460   1.537   6.087
 6478TIP3    H219378   0.501   1.494   5.948
 6479TIP3   OH219379   7.949   0.088   3.062
 6479TIP3    H119380   7.938   0.056   2.972
 6479TIP3    H219381   7.862   0.082   3.101
 6480TIP3   OH219382   3.188   5.958   5.020
 6480TIP3    H119383   3.211   6.028   4.958
 6480TIP3    H219384   3.247   5.971   5.094
 6481TIP3   OH219385   1.026   7.302   2.661
 6481TIP3    H119386   0.978   7.385   2.660
 6481TIP3    H219387   1.115   7.326   2.687
 6482TIP3   OH219388   2.035   4.061   4.352
 6482TIP3    H119389   2.109   4.012   4.316
 6482TIP3    H219390   2.061   4.153   4.343
 6483TIP3   OH219391   6.981   6.989   6.703
 6483TIP3    H119392   6.966   6.971   6.796
 6483TIP3    H219393   6.914   6.937   6.657
 6484TIP3   OH219394   2.905   4.099   0.408
 6484TIP3    H119395   2.919   4.066   0.496
 6484TIP3    H219396   2.886   4.021   0.356
 6485TIP3   OH219397   4.583   2.015   5.216
 6485TIP3    H119398   4.510   2.067   5.249
 6485TIP3    H219399   4.602   2.052   5.129
 6486TIP3   OH219400   7.382   4.179   4.000
 6486TIP3    H119401   7.362   4.110   3.937
 6486TIP3    H219402   7.468   4.211   3.973
 6487TIP3   OH219403   3.364   2.224   5.666
 6487TIP3    H119404   3.448   2.269   5.666
 6487TIP3    H219405   3.343   2.213   5.573
 6488TIP3   OH219406   2.769   5.186   0.437
 6488TIP3    H119407   2.828   5.251   0.474
 6488TIP3    H219408   2.793   5.183   0.344
 6489TIP3   OH219409   2.042   1.824   5.908
 6489TIP3    H119410   2.028   1.919   5.914
 6489TIP3    H219411   2.137   1.813   5.906
 6490TIP3   OH219412   5.069   4.510   5.012
 6490TIP3    H119413   5.032   4.598   5.007
 6490TIP3    H219414   5.046   4.469   4.929
 6491TIP3   OH219415   2.356   4.226   3.769
 6491TIP3    H119416   2.319   4.139   3.753
 6491TIP3    H219417   2.314   4.282   3.703
 6492TIP3   OH219418   5.984   5.458   6.651
 6492TIP3    H119419   6.074   5.428   6.635
 6492TIP3    H219420   5.949   5.478   6.565
 6493TIP3   OH219421   7.049   5.865   3.601
 6493TIP3    H119422   6.985   5.810   3.645
 6493TIP3    H219423   7.104   5.900   3.671
 6494TIP3   OH219424   5.677   2.013   0.532
 6494TIP3    H119425   5.662   1.947   0.464
 6494TIP3    H219426   5.615   1.991   0.601
 6495TIP3   OH219427   2.949   5.486   3.201
 6495TIP3    H119428   2.933   5.405   3.151
 6495TIP3    H219429   3.020   5.530   3.153
 6496TIP3   OH219430   6.709   6.142   6.041
 6496TIP3    H119431   6.693   6.177   5.953
 6496TIP3    H219432   6.803   6.158   6.056
 6497TIP3   OH219433   6.735   2.972   3.077
 6497TIP3    H119434   6.735   3.067   3.087
 6497TIP3    H219435   6.661   2.943   3.131
 6498TIP3   OH219436   6.517   7.690   0.186
 6498TIP3    H119437   6.475   7.776   0.188
 6498TIP3    H219438   6.515   7.664   0.093
 6499TIP3   OH219439   6.641   0.172   2.762
 6499TIP3    H119440   6.651   0.260   2.799
 6499TIP3    H219441   6.595   0.123   2.831
 6500TIP3   OH219442   7.822   0.404   5.512
 6500TIP3    H119443   7.835   0.495   5.540
 6500TIP3    H219444   7.794   0.411   5.421
 6501TIP3   OH219445   0.940   1.331   1.875
 6501TIP3    H119446   0.997   1.330   1.798
 6501TIP3    H219447   0.907   1.241   1.882
 6502TIP3   OH219448   3.714   5.199   6.033
 6502TIP3    H119449   3.801   5.240   6.035
 6502TIP3    H219450   3.653   5.273   6.024
 6503TIP3   OH219451   7.992   1.347   3.154
 6503TIP3    H119452   8.068   1.302   3.117
 6503TIP3    H219453   7.920   1.286   3.140
 6504TIP3   OH219454   4.838   3.543   6.688
 6504TIP3    H119455   4.769   3.601   6.721
 6504TIP3    H219456   4.817   3.457   6.724
 6505TIP3   OH219457   6.589   3.996   5.629
 6505TIP3    H119458   6.541   4.046   5.564
 6505TIP3    H219459   6.527   3.984   5.701
 6506TIP3   OH219460   2.485   4.260   2.361
 6506TIP3    H119461   2.548   4.194   2.332
 6506TIP3    H219462   2.417   4.209   2.405
 6507TIP3   OH219463   7.631   0.678   2.406
 6507TIP3    H119464   7.689   0.750   2.381
 6507TIP3    H219465   7.616   0.691   2.499
 6508TIP3   OH219466   7.577   3.953   3.607
 6508TIP3    H119467   7.557   3.863   3.631
 6508TIP3    H219468   7.673   3.958   3.610
 6509TIP3   OH219469   5.304   2.154   4.966
 6509TIP3    H119470   5.303   2.207   5.046
 6509TIP3    H219471   5.381   2.185   4.918
 6510TIP3   OH219472   2.500   6.936   3.995
 6510TIP3    H119473   2.588   6.970   3.983
 6510TIP3    H219474   2.488   6.933   4.090
 6511TIP3   OH219475   7.424   5.671   4.402
 6511TIP3    H119476   7.422   5.593   4.458
 6511TIP3    H219477   7.376   5.737   4.452
 6512TIP3   OH219478   2.624   5.287   2.714
 6512TIP3    H119479   2.640   5.309   2.622
 6512TIP3    H219480   2.529   5.282   2.721
 6513TIP3   OH219481   6.643   5.974   2.301
 6513TIP3    H119482   6.713   5.953   2.240
 6513TIP3    H219483   6.564   5.978   2.246
 6514TIP3   OH219484   6.522   2.072   5.689
 6514TIP3    H119485   6.500   1.996   5.743
 6514TIP3    H219486   6.605   2.104   5.725
 6515TIP3   OH219487   5.242   1.222   5.440
 6515TIP3    H119488   5.317   1.263   5.397
 6515TIP3    H219489   5.275   1.195   5.525
 6516TIP3   OH219490   5.645   5.903   2.169
 6516TIP3    H119491   5.661   5.997   2.168
 6516TIP3    H219492   5.706   5.868   2.104
 6517TIP3   OH219493   0.098   7.044   6.758
 6517TIP3    H119494   0.149   7.125   6.758
 6517TIP3    H219495   0.039   7.054   6.834
 6518TIP3   OH219496   4.674   5.278   3.155
 6518TIP3    H119497   4.742   5.324   3.104
 6518TIP3    H219498   4.641   5.345   3.215
 6519TIP3   OH219499   3.801   2.848   3.901
 6519TIP3    H119500   3.716   2.837   3.943
 6519TIP3    H219501   3.783   2.902   3.824
 6520TIP3   OH219502   6.326   3.963   4.054
 6520TIP3    H119503   6.331   4.058   4.044
 6520TIP3    H219504   6.290   3.932   3.971
 6521TIP3   OH219505   0.811   4.403   3.768
 6521TIP3    H119506   0.832   4.344   3.696
 6521TIP3    H219507   0.739   4.457   3.735
 6522TIP3   OH219508   7.946   0.299   0.195
 6522TIP3    H119509   7.914   0.211   0.215
 6522TIP3    H219510   7.920   0.352   0.270
 6523TIP3   OH219511   7.111   2.603   0.101
 6523TIP3    H119512   7.057   2.683   0.103
 6523TIP3    H219513   7.169   2.616   0.026
 6524TIP3   OH219514   4.815   5.962   6.486
 6524TIP3    H119515   4.850   5.951   6.574
 6524TIP3    H219516   4.756   5.888   6.474
 6525TIP3   OH219517   2.417   5.493   4.389
 6525TIP3    H119518   2.437   5.413   4.341
 6525TIP3    H219519   2.463   5.483   4.472
 6526TIP3   OH219520   0.809   1.631   5.110
 6526TIP3    H119521   0.798   1.661   5.200
 6526TIP3    H219522   0.829   1.710   5.060
 6527TIP3   OH219523   5.460   3.905   3.488
 6527TIP3    H119524   5.371   3.934   3.471
 6527TIP3    H219525   5.457   3.810   3.475
 6528TIP3   OH219526   4.346   7.249   6.569
 6528TIP3    H119527   4.343   7.169   6.517
 6528TIP3    H219528   4.282   7.307   6.527
 6529TIP3   OH219529   1.625   5.466   5.954
 6529TIP3    H119530   1.627   5.377   5.990
 6529TIP3    H219531   1.576   5.459   5.872
 6530TIP3   OH219532   5.851   2.571   1.614
 6530TIP3    H119533   5.911   2.531   1.552
 6530TIP3    H219534   5.886   2.659   1.628
 6531TIP3   OH219535   8.135   6.186   2.686
 6531TIP3    H119536   8.066   6.146   2.738
 6531TIP3    H219537   8.116   6.160   2.596
 6532TIP3   OH219538   3.061   5.846   6.611
 6532TIP3    H119539   2.983   5.807   6.572
 6532TIP3    H219540   3.116   5.870   6.537
 6533TIP3   OH219541   1.166   1.868   2.883
 6533TIP3    H119542   1.164   1.773   2.879
 6533TIP3    H219543   1.081   1.896   2.850
 6534TIP3   OH219544   5.936   1.106   0.709
 6534TIP3    H119545   6.030   1.111   0.729
 6534TIP3    H219546   5.916   1.012   0.713
 6535TIP3   OH219547   2.991   0.025   5.584
 6535TIP3    H119548   2.920   0.089   5.582
 6535TIP3    H219549   2.969  -0.038   5.515
 6536TIP3   OH219550   1.646   1.881   2.887
 6536TIP3    H119551   1.691   1.958   2.922
 6536TIP3    H219552   1.627   1.828   2.964
 6537TIP3   OH219553   3.372   6.054   5.214
 6537TIP3    H119554   3.405   6.047   5.304
 6537TIP3    H219555   3.334   6.141   5.210
 6538TIP3   OH219556   0.014   0.942   5.983
 6538TIP3    H119557   0.019   0.893   6.065
 6538TIP3    H219558   0.077   0.898   5.925
 6539TIP3   OH219559   2.309   1.240   6.533
 6539TIP3    H119560   2.397   1.210   6.555
 6539TIP3    H219561   2.323   1.311   6.470
 6540TIP3   OH219562   2.554   3.523   0.081
 6540TIP3    H119563   2.645   3.542   0.105
 6540TIP3    H219564   2.507   3.603   0.101
 6541TIP3   OH219565   3.724   4.866   3.687
 6541TIP3    H119566   3.716   4.838   3.596
 6541TIP3    H219567   3.645   4.918   3.703
 6542TIP3   OH219568   5.479   6.818   3.979
 6542TIP3    H119569   5.491   6.879   4.052
 6542TIP3    H219570   5.434   6.743   4.019
 6543TIP3   OH219571   3.557   1.181   0.309
 6543TIP3    H119572   3.528   1.267   0.279
 6543TIP3    H219573   3.611   1.198   0.386
 6544TIP3   OH219574   6.154   4.937   5.096
 6544TIP3    H119575   6.099   5.016   5.095
 6544TIP3    H219576   6.204   4.943   5.178
 6545TIP3   OH219577   0.007   2.656   2.623
 6545TIP3    H119578   0.022   2.716   2.550
 6545TIP3    H219579   0.072   2.680   2.689
 6546TIP3   OH219580   7.336   4.446   5.926
 6546TIP3    H119581   7.324   4.530   5.884
 6546TIP3    H219582   7.430   4.440   5.943
 6547TIP3   OH219583   1.094   1.614   2.809
 6547TIP3    H119584   1.145   1.547   2.855
 6547TIP3    H219585   1.128   1.612   2.720
 6548TIP3   OH219586   2.952   6.834   0.976
 6548TIP3    H119587   2.913   6.802   0.896
 6548TIP3    H219588   2.978   6.756   1.024
 6549TIP3   OH219589   4.128   1.000   0.785
 6549TIP3    H119590   4.039   1.008   0.752
 6549TIP3    H219591   4.120   0.947   0.865
 6550TIP3   OH219592   7.620   3.297   4.985
 6550TIP3    H119593   7.537   3.302   5.032
 6550TIP3    H219594   7.659   3.214   5.012
 6551TIP3   OH219595   4.534   7.087   0.272
 6551TIP3    H119596   4.526   7.063   0.365
 6551TIP3    H219597   4.580   7.014   0.232
 6552TIP3   OH219598   1.980   1.316   5.768
 6552TIP3    H119599   1.884   1.316   5.761
 6552TIP3    H219600   2.010   1.276   5.686
 6553TIP3   OH219601   6.441   2.589   6.288
 6553TIP3    H119602   6.481   2.648   6.352
 6553TIP3    H219603   6.513   2.563   6.231
 6554TIP3   OH219604   3.462   5.296   1.661
 6554TIP3    H119605   3.518   5.369   1.636
 6554TIP3    H219606   3.404   5.331   1.729
 6555TIP3   OH219607   7.206   5.387   5.057
 6555TIP3    H119608   7.170   5.449   5.121
 6555TIP3    H219609   7.227   5.310   5.109
 6556TIP3   OH219610   1.813   3.422   5.809
 6556TIP3    H119611   1.843   3.474   5.883
 6556TIP3    H219612   1.831   3.476   5.732
 6557TIP3   OH219613   0.555   4.357   3.405
 6557TIP3    H119614   0.576   4.451   3.407
 6557TIP3    H219615   0.640   4.313   3.410
 6558TIP3   OH219616   5.980   1.044   2.159
 6558TIP3    H119617   5.999   0.951   2.156
 6558TIP3    H219618   5.986   1.073   2.068
 6559TIP3   OH219619   1.422   1.635   1.801
 6559TIP3    H119620   1.329   1.651   1.817
 6559TIP3    H219621   1.465   1.653   1.884
 6560TIP3   OH219622   0.832   0.788   4.680
 6560TIP3    H119623   0.779   0.864   4.703
 6560TIP3    H219624   0.791   0.715   4.726
 6561TIP3   OH219625   1.356   5.152   5.314
 6561TIP3    H119626   1.286   5.214   5.297
 6561TIP3    H219627   1.431   5.206   5.339
 6562TIP3   OH219628   5.851   0.029   3.995
 6562TIP3    H119629   5.890   0.114   3.977
 6562TIP3    H219630   5.765   0.032   3.952
 6563TIP3   OH219631   3.709   6.140   2.731
 6563TIP3    H119632   3.657   6.154   2.810
 6563TIP3    H219633   3.796   6.174   2.754
 6564TIP3   OH219634   0.010   4.444   0.297
 6564TIP3    H119635  -0.069   4.474   0.252
 6564TIP3    H219636   0.078   4.444   0.230
 6565TIP3   OH219637   6.041   1.144   3.373
 6565TIP3    H119638   6.135   1.164   3.373
 6565TIP3    H219639   6.003   1.206   3.435
 6566TIP3   OH219640   7.231   3.137   5.589
 6566TIP3    H119641   7.164   3.083   5.548
 6566TIP3    H219642   7.294   3.075   5.624
 6567TIP3   OH219643   1.237   0.413   2.424
 6567TIP3    H119644   1.170   0.473   2.457
 6567TIP3    H219645   1.319   0.449   2.455
 6568TIP3   OH219646   6.189   7.470   0.622
 6568TIP3    H119647   6.161   7.485   0.531
 6568TIP3    H219648   6.281   7.496   0.624
 6569TIP3   OH219649   5.230   7.082   5.344
 6569TIP3    H119650   5.228   7.024   5.420
 6569TIP3    H219651   5.301   7.143   5.363
 6570TIP3   OH219652   2.978   4.481   2.481
 6570TIP3    H119653   2.907   4.484   2.417
 6570TIP3    H219654   3.057   4.474   2.427
 6571TIP3   OH219655   7.652   7.467   2.377
 6571TIP3    H119656   7.670   7.508   2.462
 6571TIP3    H219657   7.597   7.391   2.399
 6572TIP3   OH219658   0.810   1.369   3.910
 6572TIP3    H119659   0.776   1.427   3.978
 6572TIP3    H219660   0.905   1.381   3.912
 6573TIP3   OH219661   3.380   7.046   4.022
 6573TIP3    H119662   3.315   7.109   3.990
 6573TIP3    H219663   3.424   7.091   4.094
 6574TIP3   OH219664   1.742   1.552   3.544
 6574TIP3    H119665   1.784   1.536   3.629
 6574TIP3    H219666   1.702   1.639   3.552
 6575TIP3   OH219667   5.805   5.275   4.785
 6575TIP3    H119668   5.754   5.356   4.787
 6575TIP3    H219669   5.742   5.209   4.755
 6576TIP3   OH219670   2.429   3.738   5.962
 6576TIP3    H119671   2.520   3.767   5.954
 6576TIP3    H219672   2.391   3.756   5.876
 6577TIP3   OH219673   0.075   0.116   5.867
 6577TIP3    H119674   0.151   0.060   5.852
 6577TIP3    H219675   0.101   0.173   5.939
 6578TIP3   OH219676   2.185   7.727   6.410
 6578TIP3    H119677   2.189   7.631   6.400
 6578TIP3    H219678   2.134   7.740   6.490
 6579TIP3   OH219679   7.386   3.598   5.606
 6579TIP3    H119680   7.458   3.590   5.544
 6579TIP3    H219681   7.330   3.523   5.589
 6580TIP3   OH219682   5.669   5.392   5.127
 6580TIP3    H119683   5.739   5.380   5.063
 6580TIP3    H219684   5.589   5.371   5.078
 6581TIP3   OH219685   7.420   5.970   4.495
 6581TIP3    H119686   7.434   6.065   4.497
 6581TIP3    H219687   7.338   5.956   4.542
 6582TIP3   OH219688   7.703   3.825   0.559
 6582TIP3    H119689   7.644   3.797   0.489
 6582TIP3    H219690   7.649   3.880   0.615
 6583TIP3   OH219691   5.859   5.866   0.986
 6583TIP3    H119692   5.813   5.835   0.909
 6583TIP3    H219693   5.831   5.807   1.056
 6584TIP3   OH219694   3.245   6.758   2.868
 6584TIP3    H119695   3.207   6.671   2.851
 6584TIP3    H219696   3.200   6.790   2.946
 6585TIP3   OH219697   4.718   2.747   3.053
 6585TIP3    H119698   4.666   2.725   3.130
 6585TIP3    H219699   4.654   2.766   2.985
 6586TIP3   OH219700   0.827   1.254   0.724
 6586TIP3    H119701   0.814   1.162   0.746
 6586TIP3    H219702   0.866   1.253   0.636
 6587TIP3   OH219703   3.441   1.999   2.044
 6587TIP3    H119704   3.534   1.997   2.066
 6587TIP3    H219705   3.402   1.927   2.093
 6588TIP3   OH219706   8.060   0.048   6.166
 6588TIP3    H119707   8.068   0.144   6.170
 6588TIP3    H219708   7.973   0.030   6.202
 6589TIP3   OH219709   1.244   5.281   2.771
 6589TIP3    H119710   1.259   5.309   2.680
 6589TIP3    H219711   1.297   5.340   2.824
 6590TIP3   OH219712   3.771   1.452   1.522
 6590TIP3    H119713   3.716   1.503   1.463
 6590TIP3    H219714   3.718   1.438   1.600
 6591TIP3   OH219715   8.216   1.354   4.209
 6591TIP3    H119716   8.198   1.348   4.115
 6591TIP3    H219717   8.223   1.264   4.238
 6592TIP3   OH219718   3.483   0.621   6.258
 6592TIP3    H119719   3.502   0.671   6.178
 6592TIP3    H219720   3.497   0.684   6.329
 6593TIP3   OH219721   2.578   7.083   2.009
 6593TIP3    H119722   2.659   7.133   2.002
 6593TIP3    H219723   2.591   7.027   2.085
 6594TIP3   OH219724   4.439   2.505   5.543
 6594TIP3    H119725   4.404   2.534   5.459
 6594TIP3    H219726   4.532   2.487   5.525
 6595TIP3   OH219727   2.719   3.143   5.386
 6595TIP3    H119728   2.635   3.174   5.352
 6595TIP3    H219729   2.700   3.113   5.475
 6596TIP3   OH219730   2.405   6.251   4.458
 6596TIP3    H119731   2.311   6.256   4.477
 6596TIP3    H219732   2.444   6.228   4.542
 6597TIP3   OH219733   2.577   1.169   3.758
 6597TIP3    H119734   2.532   1.252   3.746
 6597TIP3    H219735   2.660   1.192   3.800
 6598TIP3   OH219736   1.914   4.192   5.431
 6598TIP3    H119737   1.847   4.125   5.446
 6598TIP3    H219738   1.880   4.245   5.359
 6599TIP3   OH219739   7.944   6.262   0.987
 6599TIP3    H119740   7.946   6.166   0.982
 6599TIP3    H219741   7.851   6.284   0.974
 6600TIP3   OH219742   6.249   6.578   5.940
 6600TIP3    H119743   6.191   6.520   5.891
 6600TIP3    H219744   6.190   6.639   5.984
 6601TIP3   OH219745   7.241   6.999   5.127
 6601TIP3    H119746   7.203   7.078   5.088
 6601TIP3    H219747   7.277   7.028   5.210
 6602TIP3   OH219748   1.367   6.474   0.979
 6602TIP3    H119749   1.423   6.397   0.993
 6602TIP3    H219750   1.278   6.442   0.997
 6603TIP3   OH219751   0.525   0.085   5.035
 6603TIP3    H119752   0.604   0.135   5.017
 6603TIP3    H219753   0.551   0.020   5.100
 6604TIP3   OH219754   0.843   3.077   6.164
 6604TIP3    H119755   0.876   3.156   6.121
 6604TIP3    H219756   0.748   3.081   6.151
 6605TIP3   OH219757   1.326   5.650   4.306
 6605TIP3    H119758   1.410   5.663   4.262
 6605TIP3    H219759   1.297   5.563   4.278
 6606TIP3   OH219760   1.276   4.244   4.393
 6606TIP3    H119761   1.264   4.336   4.373
 6606TIP3    H219762   1.351   4.241   4.452
 6607TIP3   OH219763   3.176   1.658   2.046
 6607TIP3    H119764   3.096   1.709   2.032
 6607TIP3    H219765   3.209   1.641   1.957
 6608TIP3   OH219766   5.419   1.506   2.043
 6608TIP3    H119767   5.363   1.536   1.972
 6608TIP3    H219768   5.508   1.528   2.015
 6609TIP3   OH219769   5.661   7.222   5.141
 6609TIP3    H119770   5.587   7.257   5.090
 6609TIP3    H219771   5.735   7.277   5.115
 6610TIP3   OH219772   0.090   7.098   0.913
 6610TIP3    H119773   0.141   7.062   0.841
 6610TIP3    H219774   0.003   7.060   0.902
 6611TIP3   OH219775   1.310   6.435   6.022
 6611TIP3    H119776   1.396   6.399   6.045
 6611TIP3    H219777   1.248   6.383   6.073
 6612TIP3   OH219778   2.957   6.323   2.306
 6612TIP3    H119779   2.873   6.362   2.332
 6612TIP3    H219780   2.965   6.245   2.361
 6613TIP3   OH219781   7.616   7.491   5.141
 6613TIP3    H119782   7.605   7.568   5.197
 6613TIP3    H219783   7.676   7.435   5.190
 6614TIP3   OH219784   2.708   5.989   1.488
 6614TIP3    H119785   2.781   6.043   1.518
 6614TIP3    H219786   2.630   6.043   1.501
 6615TIP3   OH219787   1.876   4.500   3.728
 6615TIP3    H119788   1.870   4.405   3.741
 6615TIP3    H219789   1.933   4.530   3.799
 6616TIP3   OH219790   4.621   7.694   3.748
 6616TIP3    H119791   4.541   7.672   3.701
 6616TIP3    H219792   4.615   7.788   3.764
 6617TIP3   OH219793   0.023   3.402   5.683
 6617TIP3    H119794   0.066   3.451   5.613
 6617TIP3    H219795   0.096   3.359   5.730
 6618TIP3   OH219796   7.607   0.067   1.801
 6618TIP3    H119797   7.544   0.017   1.749
 6618TIP3    H219798   7.652   0.001   1.853
 6619TIP3   OH219799   0.607   1.266   4.076
 6619TIP3    H119800   0.666   1.264   4.000
 6619TIP3    H219801   0.519   1.272   4.038
 6620TIP3   OH219802   8.249   5.040   5.950
 6620TIP3    H119803   8.227   4.947   5.950
 6620TIP3    H219804   8.260   5.062   6.043
 6621TIP3   OH219805   4.062   1.596   5.849
 6621TIP3    H119806   4.087   1.528   5.786
 6621TIP3    H219807   4.122   1.586   5.922
 6622TIP3   OH219808   5.862   5.490   6.392
 6622TIP3    H119809   5.867   5.475   6.297
 6622TIP3    H219810   5.842   5.583   6.400
 6623TIP3   OH219811   4.410   1.217   2.617
 6623TIP3    H119812   4.362   1.190   2.539
 6623TIP3    H219813   4.478   1.150   2.628
 6624TIP3   OH219814   7.827   6.037   0.904
 6624TIP3    H119815   7.842   6.041   0.810
 6624TIP3    H219816   7.760   6.104   0.920
 6625TIP3   OH219817   0.195   1.681   3.282
 6625TIP3    H119818   0.213   1.631   3.202
 6625TIP3    H219819   0.148   1.619   3.338
 6626TIP3   OH219820   7.898   4.669   5.319
 6626TIP3    H119821   7.908   4.745   5.263
 6626TIP3    H219822   7.982   4.623   5.314
 6627TIP3   OH219823   8.156   5.175   2.554
 6627TIP3    H119824   8.093   5.160   2.625
 6627TIP3    H219825   8.209   5.095   2.552
 6628TIP3   OH219826   8.016   0.526   0.383
 6628TIP3    H119827   8.002   0.611   0.425
 6628TIP3    H219828   7.981   0.462   0.446
 6629TIP3   OH219829   0.863   3.133   0.580
 6629TIP3    H119830   0.856   3.048   0.625
 6629TIP3    H219831   0.898   3.192   0.646
 6630TIP3   OH219832   4.400   2.447   2.182
 6630TIP3    H119833   4.375   2.498   2.104
 6630TIP3    H219834   4.321   2.447   2.236
 6631TIP3   OH219835   4.772   3.896   6.744
 6631TIP3    H119836   4.712   3.962   6.710
 6631TIP3    H219837   4.715   3.828   6.780
 6632TIP3   OH219838   1.437   5.416   2.897
 6632TIP3    H119839   1.444   5.424   2.993
 6632TIP3    H219840   1.526   5.392   2.870
 6633TIP3   OH219841   0.320   5.781   2.567
 6633TIP3    H119842   0.366   5.838   2.628
 6633TIP3    H219843   0.261   5.729   2.621
 6634TIP3   OH219844   7.104   7.438   5.394
 6634TIP3    H119845   7.069   7.504   5.453
 6634TIP3    H219846   7.049   7.361   5.409
 6635TIP3   OH219847   5.792   0.491   2.848
 6635TIP3    H119848   5.812   0.446   2.765
 6635TIP3    H219849   5.703   0.463   2.869
 6636TIP3   OH219850   4.911   0.652   3.859
 6636TIP3    H119851   4.903   0.560   3.882
 6636TIP3    H219852   4.984   0.684   3.912
 6637TIP3   OH219853   4.660   4.058   5.238
 6637TIP3    H119854   4.575   4.097   5.217
 6637TIP3    H219855   4.665   4.058   5.333
 6638TIP3   OH219856   3.734   2.239   1.831
 6638TIP3    H119857   3.811   2.294   1.845
 6638TIP3    H219858   3.747   2.164   1.890
 6639TIP3   OH219859   2.736   0.342   0.390
 6639TIP3    H119860   2.707   0.253   0.411
 6639TIP3    H219861   2.779   0.334   0.304
 6640TIP3   OH219862   2.444   1.984   1.646
 6640TIP3    H119863   2.374   1.959   1.587
 6640TIP3    H219864   2.428   1.933   1.726
 6641TIP3   OH219865   7.814   0.005   1.522
 6641TIP3    H119866   7.778   0.092   1.536
 6641TIP3    H219867   7.772  -0.050   1.589
 6642TIP3   OH219868   2.316   0.320   5.634
 6642TIP3    H119869   2.360   0.391   5.587
 6642TIP3    H219870   2.371   0.243   5.618
 6643TIP3   OH219871   0.136   5.066   6.202
 6643TIP3    H119872   0.228   5.046   6.186
 6643TIP3    H219873   0.119   5.146   6.152
 6644TIP3   OH219874   2.999   7.423   0.832
 6644TIP3    H119875   2.958   7.407   0.747
 6644TIP3    H219876   3.093   7.428   0.813
 6645TIP3   OH219877   2.846   0.902   1.190
 6645TIP3    H119878   2.840   0.977   1.250
 6645TIP3    H219879   2.796   0.833   1.233
 6646TIP3   OH219880   2.431   3.468   5.947
 6646TIP3    H119881   2.487   3.426   6.012
 6646TIP3    H219882   2.434   3.561   5.970
 6647TIP3   OH219883   0.511   4.126   1.458
 6647TIP3    H119884   0.492   4.191   1.391
 6647TIP3    H219885   0.575   4.067   1.417
 6648TIP3   OH219886   7.069   2.418   4.240
 6648TIP3    H119887   7.054   2.324   4.244
 6648TIP3    H219888   7.024   2.447   4.161
 6649TIP3   OH219889   3.519   4.022   3.385
 6649TIP3    H119890   3.458   4.069   3.328
 6649TIP3    H219891   3.509   4.064   3.470
 6650TIP3   OH219892   3.810   6.688   4.792
 6650TIP3    H119893   3.872   6.653   4.727
 6650TIP3    H219894   3.857   6.681   4.875
 6651TIP3   OH219895   5.166   3.216   4.742
 6651TIP3    H119896   5.079   3.185   4.767
 6651TIP3    H219897   5.215   3.137   4.721
 6652TIP3   OH219898   0.648   2.656   4.219
 6652TIP3    H119899   0.585   2.586   4.202
 6652TIP3    H219900   0.599   2.737   4.204
 6653TIP3   OH219901   0.050   1.374   1.571
 6653TIP3    H119902  -0.005   1.382   1.649
 6653TIP3    H219903  -0.012   1.366   1.499
 6654TIP3   OH219904   3.161   4.671   5.327
 6654TIP3    H119905   3.108   4.712   5.395
 6654TIP3    H219906   3.117   4.588   5.309
 6655TIP3   OH219907   4.828   7.255   3.772
 6655TIP3    H119908   4.811   7.182   3.832
 6655TIP3    H219909   4.745   7.302   3.767
 6656TIP3   OH219910   7.566   6.812   0.426
 6656TIP3    H119911   7.538   6.858   0.506
 6656TIP3    H219912   7.646   6.767   0.452
 6657TIP3   OH219913   7.109   5.743   3.211
 6657TIP3    H119914   7.120   5.826   3.165
 6657TIP3    H219915   7.096   5.678   3.142
 6658TIP3   OH219916   4.482   3.472   2.688
 6658TIP3    H119917   4.503   3.422   2.609
 6658TIP3    H219918   4.542   3.547   2.685
 6659TIP3   OH219919   6.721   3.409   0.160
 6659TIP3    H119920   6.786   3.461   0.111
 6659TIP3    H219921   6.713   3.454   0.244
 6660TIP3   OH219922   7.021   1.225   1.291
 6660TIP3    H119923   7.040   1.267   1.375
 6660TIP3    H219924   7.059   1.137   1.299
 6661TIP3   OH219925   1.962   5.245   0.292
 6661TIP3    H119926   2.045   5.289   0.313
 6661TIP3    H219927   1.987   5.153   0.279
 6662TIP3   OH219928   4.601   3.440   4.774
 6662TIP3    H119929   4.527   3.406   4.724
 6662TIP3    H219930   4.679   3.406   4.730
 6663TIP3   OH219931   7.100   7.018   0.303
 6663TIP3    H119932   7.194   7.033   0.306
 6663TIP3    H219933   7.086   6.964   0.225
 6664TIP3   OH219934   0.549   2.710   0.404
 6664TIP3    H119935   0.511   2.622   0.413
 6664TIP3    H219936   0.634   2.703   0.449
 6665TIP3   OH219937   1.483   0.480   2.508
 6665TIP3    H119938   1.529   0.397   2.518
 6665TIP3    H219939   1.552   0.547   2.511
 6666TIP3   OH219940   4.961   4.922   1.276
 6666TIP3    H119941   4.931   4.882   1.194
 6666TIP3    H219942   4.919   4.869   1.344
 6667TIP3   OH219943   3.953   2.122   4.403
 6667TIP3    H119944   3.899   2.058   4.356
 6667TIP3    H219945   4.002   2.069   4.466
 6668TIP3   OH219946   5.435   3.965   5.954
 6668TIP3    H119947   5.460   4.055   5.978
 6668TIP3    H219948   5.449   3.915   6.034
 6669TIP3   OH219949   3.024   4.525   0.954
 6669TIP3    H119950   3.109   4.505   0.993
 6669TIP3    H219951   3.038   4.515   0.859
 6670TIP3   OH219952   3.537   6.702   4.559
 6670TIP3    H119953   3.449   6.734   4.537
 6670TIP3    H219954   3.535   6.690   4.654
 6671TIP3   OH219955   2.995   1.301   1.685
 6671TIP3    H119956   3.051   1.252   1.625
 6671TIP3    H219957   2.934   1.235   1.719
 6672TIP3   OH219958   3.539   0.629   5.313
 6672TIP3    H119959   3.595   0.671   5.247
 6672TIP3    H219960   3.451   0.655   5.289
 6673TIP3   OH219961   5.620   4.426   5.861
 6673TIP3    H119962   5.618   4.381   5.777
 6673TIP3    H219963   5.529   4.444   5.882
 6674TIP3   OH219964   2.988   3.195   3.985
 6674TIP3    H119965   3.019   3.172   4.073
 6674TIP3    H219966   2.909   3.141   3.973
 6675TIP3   OH219967   0.661   7.289   0.430
 6675TIP3    H119968   0.593   7.223   0.419
 6675TIP3    H219969   0.657   7.312   0.523
 6676TIP3   OH219970   7.379   1.635   3.437
 6676TIP3    H119971   7.355   1.692   3.363
 6676TIP3    H219972   7.464   1.599   3.413
 6677TIP3   OH219973   3.737   7.185   6.240
 6677TIP3    H119974   3.819   7.205   6.195
 6677TIP3    H219975   3.685   7.264   6.231
 6678TIP3   OH219976   2.139   4.061   1.083
 6678TIP3    H119977   2.174   4.112   1.155
 6678TIP3    H219978   2.166   3.971   1.101
 6679TIP3   OH219979   3.557   0.012   3.114
 6679TIP3    H119980   3.602  -0.029   3.188
 6679TIP3    H219981   3.610  -0.010   3.038
 6680TIP3   OH219982   7.094   1.536   0.280
 6680TIP3    H119983   7.077   1.519   0.188
 6680TIP3    H219984   7.146   1.617   0.281
 6681TIP3   OH219985   2.161   7.124   2.946
 6681TIP3    H119986   2.207   7.144   3.028
 6681TIP3    H219987   2.096   7.193   2.937
 6682TIP3   OH219988   2.609   2.127   2.349
 6682TIP3    H119989   2.562   2.054   2.310
 6682TIP3    H219990   2.645   2.092   2.431
 6683TIP3   OH219991   8.263   2.522   3.479
 6683TIP3    H119992   8.308   2.521   3.394
 6683TIP3    H219993   8.296   2.445   3.525
 6684TIP3   OH219994   6.974   0.288   4.185
 6684TIP3    H119995   6.941   0.292   4.274
 6684TIP3    H219996   7.056   0.239   4.192
 6685TIP3   OH219997   0.952   3.789   1.593
 6685TIP3    H119998   0.861   3.759   1.590
 6685TIP3    H219999   0.955   3.848   1.669
 6686TIP3   OH220000   0.070   1.620   6.650
 6686TIP3    H120001   0.036   1.541   6.607
 6686TIP3    H220002   0.004   1.640   6.717
 6687TIP3   OH220003   1.400   3.136   3.157
 6687TIP3    H120004   1.330   3.091   3.110
 6687TIP3    H220005   1.447   3.184   3.089
 6688TIP3   OH220006   6.385   7.758   4.486
 6688TIP3    H120007   6.452   7.704   4.527
 6688TIP3    H220008   6.434   7.823   4.435
 6689TIP3   OH220009   5.731   2.035   0.901
 6689TIP3    H120010   5.652   1.995   0.864
 6689TIP3    H220011   5.699   2.112   0.948
 6690TIP3   OH220012   2.423   1.023   0.617
 6690TIP3    H120013   2.514   1.047   0.600
 6690TIP3    H220014   2.415   1.027   0.713
 6691TIP3   OH220015   4.257   2.564   5.342
 6691TIP3    H120016   4.190   2.533   5.281
 6691TIP3    H220017   4.208   2.590   5.420
 6692TIP3   OH220018   5.476   3.052   2.751
 6692TIP3    H120019   5.494   2.969   2.797
 6692TIP3    H220020   5.548   3.061   2.689
 6693TIP3   OH220021   0.658   2.749   6.330
 6693TIP3    H120022   0.745   2.711   6.315
 6693TIP3    H220023   0.675   2.842   6.342
 6694TIP3   OH220024   6.571   6.693   2.430
 6694TIP3    H120025   6.566   6.753   2.505
 6694TIP3    H220026   6.484   6.654   2.425
 6695TIP3   OH220027   7.201   7.155   2.330
 6695TIP3    H120028   7.202   7.245   2.297
 6695TIP3    H220029   7.114   7.122   2.307
 6696TIP3   OH220030   7.936   2.264   6.725
 6696TIP3    H120031   7.893   2.178   6.733
 6696TIP3    H220032   7.961   2.269   6.633
 6697TIP3   OH220033   1.909   0.693   4.412
 6697TIP3    H120034   1.941   0.680   4.501
 6697TIP3    H220035   1.987   0.717   4.361
 6698TIP3   OH220036   6.984   0.809   6.304
 6698TIP3    H120037   6.996   0.813   6.399
 6698TIP3    H220038   6.948   0.894   6.281
 6699TIP3   OH220039   1.612   3.442   1.301
 6699TIP3    H120040   1.638   3.532   1.281
 6699TIP3    H220041   1.651   3.423   1.386
 6700TIP3   OH220042   1.476   7.659   2.237
 6700TIP3    H120043   1.478   7.694   2.326
 6700TIP3    H220044   1.553   7.697   2.194
 6701TIP3   OH220045   6.247   3.661   0.579
 6701TIP3    H120046   6.209   3.581   0.544
 6701TIP3    H220047   6.254   3.645   0.673
 6702TIP3   OH220048   0.293   5.157   6.746
 6702TIP3    H120049   0.386   5.173   6.760
 6702TIP3    H220050   0.249   5.216   6.807
 6703TIP3   OH220051   7.834   6.033   5.454
 6703TIP3    H120052   7.876   6.116   5.478
 6703TIP3    H220053   7.800   5.999   5.537
 6704TIP3   OH220054   8.291   0.992   3.425
 6704TIP3    H120055   8.247   0.956   3.348
 6704TIP3    H220056   8.262   0.937   3.498
 6705TIP3   OH220057   2.440   5.258   5.109
 6705TIP3    H120058   2.403   5.236   5.195
 6705TIP3    H220059   2.518   5.309   5.128
 6706TIP3   OH220060   3.808   0.532   4.403
 6706TIP3    H120061   3.887   0.481   4.420
 6706TIP3    H220062   3.737   0.483   4.444
 6707TIP3   OH220063   2.575   3.203   3.604
 6707TIP3    H120064   2.667   3.186   3.621
 6707TIP3    H220065   2.575   3.256   3.524
 6708TIP3   OH220066   3.163   2.560   2.749
 6708TIP3    H120067   3.225   2.488   2.743
 6708TIP3    H220068   3.217   2.638   2.758
 6709TIP3   OH220069   8.261   2.005   2.266
 6709TIP3    H120070   8.184   1.971   2.311
 6709TIP3    H220071   8.293   2.075   2.323
 6710TIP3   OH220072   0.012   5.107   1.418
 6710TIP3    H120073  -0.027   5.185   1.380
 6710TIP3    H220074   0.101   5.105   1.383
 6711TIP3   OH220075   5.064   2.767   0.517
 6711TIP3    H120076   5.037   2.767   0.425
 6711TIP3    H220077   5.159   2.752   0.514
 6712TIP3   OH220078   2.740   4.397   0.968
 6712TIP3    H120079   2.792   4.476   0.953
 6712TIP3    H220080   2.802   4.325   0.961
 6713TIP3   OH220081   2.108   0.991   2.244
 6713TIP3    H120082   2.113   1.045   2.165
 6713TIP3    H220083   2.025   1.015   2.284
 6714TIP3   OH220084   5.689   0.995   5.622
 6714TIP3    H120085   5.709   1.088   5.628
 6714TIP3    H220086   5.760   0.951   5.669
 6715TIP3   OH220087   1.145   5.089   2.950
 6715TIP3    H120088   1.165   5.000   2.922
 6715TIP3    H220089   1.188   5.145   2.886
 6716TIP3   OH220090   1.752   3.590   2.924
 6716TIP3    H120091   1.829   3.631   2.964
 6716TIP3    H220092   1.683   3.600   2.989
 6717TIP3   OH220093   7.256   5.478   4.049
 6717TIP3    H120094   7.231   5.540   4.117
 6717TIP3    H220095   7.196   5.404   4.060
 6718TIP3   OH220096   7.607   3.267   2.518
 6718TIP3    H120097   7.650   3.306   2.594
 6718TIP3    H220098   7.656   3.299   2.443
 6719TIP3   OH220099   8.082   6.361   2.313
 6719TIP3    H120100   7.998   6.360   2.269
 6719TIP3    H220101   8.061   6.362   2.406
 6720TIP3   OH220102   7.385   6.628   0.663
 6720TIP3    H120103   7.418   6.703   0.613
 6720TIP3    H220104   7.314   6.592   0.610
 6721TIP3   OH220105   8.250   0.525   5.060
 6721TIP3    H120106   8.330   0.552   5.014
 6721TIP3    H220107   8.179   0.545   5.000
 6722TIP3   OH220108   3.338   4.356   4.075
 6722TIP3    H120109   3.348   4.423   4.008
 6722TIP3    H220110   3.300   4.402   4.150
 6723TIP3   OH220111   7.863   6.925   0.851
 6723TIP3    H120112   7.779   6.878   0.850
 6723TIP3    H220113   7.860   6.976   0.932
 6724TIP3   OH220114   4.758   1.805   0.114
 6724TIP3    H120115   4.701   1.730   0.128
 6724TIP3    H220116   4.815   1.779   0.041
 6725TIP3   OH220117   7.285   1.751   0.226
 6725TIP3    H120118   7.284   1.842   0.194
 6725TIP3    H220119   7.281   1.698   0.146
 6726TIP3   OH220120   4.077   0.153   6.654
 6726TIP3    H120121   4.003   0.212   6.667
 6726TIP3    H220122   4.048   0.093   6.585
 6727TIP3   OH220123   7.755   1.777   3.497
 6727TIP3    H120124   7.735   1.786   3.590
 6727TIP3    H220125   7.687   1.826   3.452
 6728TIP3   OH220126   3.385   1.224   4.930
 6728TIP3    H120127   3.433   1.179   4.861
 6728TIP3    H220128   3.352   1.304   4.888
 6729TIP3   OH220129   3.199   1.093   0.425
 6729TIP3    H120130   3.135   1.046   0.479
 6729TIP3    H220131   3.169   1.079   0.335
 6730TIP3   OH220132   0.285   0.396   1.185
 6730TIP3    H120133   0.272   0.443   1.103
 6730TIP3    H220134   0.334   0.317   1.160
 6731TIP3   OH220135   1.082   2.964   4.402
 6731TIP3    H120136   1.035   2.902   4.458
 6731TIP3    H220137   1.147   3.004   4.460
 6732TIP3   OH220138   7.132   5.819   1.306
 6732TIP3    H120139   7.150   5.752   1.372
 6732TIP3    H220140   7.184   5.894   1.334
 6733TIP3   OH220141   2.622   0.477   0.761
 6733TIP3    H120142   2.711   0.489   0.726
 6733TIP3    H220143   2.579   0.561   0.745
 6734TIP3   OH220144   6.013   7.478   3.506
 6734TIP3    H120145   6.108   7.478   3.513
 6734TIP3    H220146   5.982   7.524   3.583
 6735TIP3   OH220147   1.630   2.736   0.027
 6735TIP3    H120148   1.697   2.706  -0.034
 6735TIP3    H220149   1.592   2.656   0.063
 6736TIP3   OH220150   3.282   4.307   5.418
 6736TIP3    H120151   3.235   4.238   5.372
 6736TIP3    H220152   3.346   4.339   5.355
 6737TIP3   OH220153   6.589   2.399   6.622
 6737TIP3    H120154   6.674   2.413   6.580
 6737TIP3    H220155   6.598   2.440   6.708
 6738TIP3   OH220156   4.703   4.425   1.083
 6738TIP3    H120157   4.794   4.394   1.076
 6738TIP3    H220158   4.656   4.374   1.017
 6739TIP3   OH220159   7.011   5.012   4.230
 6739TIP3    H120160   6.927   5.030   4.271
 6739TIP3    H220161   7.043   5.098   4.203
 6740TIP3   OH220162   3.081   4.311   2.716
 6740TIP3    H120163   2.990   4.282   2.720
 6740TIP3    H220164   3.095   4.335   2.625
 6741TIP3   OH220165   5.085   2.259   2.439
 6741TIP3    H120166   5.048   2.187   2.491
 6741TIP3    H220167   5.009   2.313   2.416
 6742TIP3   OH220168   4.263   0.306   5.805
 6742TIP3    H120169   4.262   0.219   5.767
 6742TIP3    H220170   4.350   0.341   5.784
 6743TIP3   OH220171   4.923   5.637   5.760
 6743TIP3    H120172   4.970   5.605   5.837
 6743TIP3    H220173   4.992   5.653   5.695
 6744TIP3   OH220174   6.937   2.052   2.457
 6744TIP3    H120175   6.861   2.090   2.500
 6744TIP3    H220176   6.947   1.966   2.498
 6745TIP3   OH220177   2.909   0.894   6.515
 6745TIP3    H120178   2.840   0.932   6.568
 6745TIP3    H220179   2.960   0.970   6.485
 6746TIP3   OH220180   3.153   0.228   2.788
 6746TIP3    H120181   3.182   0.189   2.870
 6746TIP3    H220182   3.225   0.212   2.727
 6747TIP3   OH220183   1.265   6.046   3.719
 6747TIP3    H120184   1.234   5.960   3.746
 6747TIP3    H220185   1.327   6.072   3.787
 6748TIP3   OH220186   4.973   7.481   2.081
 6748TIP3    H120187   4.900   7.518   2.031
 6748TIP3    H220188   5.014   7.419   2.021
 6749TIP3   OH220189   5.538   2.441   1.871
 6749TIP3    H120190   5.446   2.450   1.845
 6749TIP3    H220191   5.536   2.388   1.951
 6750TIP3   OH220192   4.279   2.081   4.961
 6750TIP3    H120193   4.200   2.049   5.005
 6750TIP3    H220194   4.279   2.036   4.877
 6751TIP3   OH220195   1.806   3.898   3.701
 6751TIP3    H120196   1.760   3.891   3.785
 6751TIP3    H220197   1.843   3.811   3.686
 6752TIP3   OH220198   2.298   1.279   3.662
 6752TIP3    H120199   2.296   1.342   3.589
 6752TIP3    H220200   2.325   1.331   3.738
 6753TIP3   OH220201   6.042   1.504   6.755
 6753TIP3    H120202   6.092   1.567   6.807
 6753TIP3    H220203   5.966   1.483   6.809
 6754TIP3   OH220204   6.007   0.076   5.471
 6754TIP3    H120205   5.991   0.008   5.405
 6754TIP3    H220206   6.030   0.027   5.550
 6755TIP3   OH220207   4.392   3.140   6.303
 6755TIP3    H120208   4.472   3.126   6.353
 6755TIP3    H220209   4.400   3.082   6.228
 6756TIP3   OH220210   0.457   4.282   3.713
 6756TIP3    H120211   0.502   4.327   3.641
 6756TIP3    H220212   0.478   4.334   3.790
 6757TIP3   OH220213   6.453   3.392   3.759
 6757TIP3    H120214   6.480   3.303   3.779
 6757TIP3    H220215   6.468   3.441   3.841
 6758TIP3   OH220216   4.673   0.644   6.577
 6758TIP3    H120217   4.731   0.602   6.514
 6758TIP3    H220218   4.730   0.704   6.626
 6759TIP3   OH220219   8.224   4.516   2.391
 6759TIP3    H120220   8.319   4.510   2.380
 6759TIP3    H220221   8.191   4.429   2.369
 6760TIP3   OH220222   2.087   3.667   3.340
 6760TIP3    H120223   2.163   3.723   3.351
 6760TIP3    H220224   2.075   3.660   3.246
 6761TIP3   OH220225   6.707   2.625   6.760
 6761TIP3    H120226   6.774   2.612   6.826
 6761TIP3    H220227   6.705   2.720   6.746
 6762TIP3   OH220228   4.797   7.201   4.064
 6762TIP3    H120229   4.737   7.209   4.138
 6762TIP3    H220230   4.747   7.151   3.999
 6763TIP3   OH220231   6.353   4.833   2.528
 6763TIP3    H120232   6.373   4.801   2.440
 6763TIP3    H220233   6.317   4.920   2.514
 6764TIP3   OH220234   0.174   3.225   4.910
 6764TIP3    H120235   0.233   3.174   4.855
 6764TIP3    H220236   0.215   3.226   4.996
 6765TIP3   OH220237   0.840   1.388   3.287
 6765TIP3    H120238   0.897   1.464   3.302
 6765TIP3    H220239   0.783   1.386   3.364
 6766TIP3   OH220240   4.505   4.912   3.880
 6766TIP3    H120241   4.506   4.978   3.949
 6766TIP3    H220242   4.487   4.962   3.800
 6767TIP3   OH220243   3.122   1.259   6.635
 6767TIP3    H120244   3.205   1.303   6.615
 6767TIP3    H220245   3.143   1.202   6.709
 6768TIP3   OH220246   4.531   3.365   0.342
 6768TIP3    H120247   4.464   3.429   0.316
 6768TIP3    H220248   4.483   3.301   0.394
 6769TIP3   OH220249   7.164   0.300   6.276
 6769TIP3    H120250   7.081   0.284   6.319
 6769TIP3    H220251   7.143   0.359   6.204
 6770TIP3   OH220252   5.499   3.637   4.611
 6770TIP3    H120253   5.461   3.600   4.531
 6770TIP3    H220254   5.577   3.583   4.627
 6771TIP3   OH220255   5.733   5.409   3.467
 6771TIP3    H120256   5.796   5.425   3.396
 6771TIP3    H220257   5.703   5.319   3.453
 6772TIP3   OH220258   4.008   5.911   3.049
 6772TIP3    H120259   4.023   5.998   3.086
 6772TIP3    H220260   3.913   5.909   3.033
 6773TIP3   OH220261   3.129   5.770   2.096
 6773TIP3    H120262   3.107   5.820   2.017
 6773TIP3    H220263   3.069   5.804   2.163
 6774TIP3   OH220264   6.013   1.332   3.582
 6774TIP3    H120265   6.037   1.269   3.651
 6774TIP3    H220266   5.943   1.385   3.621
 6775TIP3   OH220267   5.182   2.358   3.249
 6775TIP3    H120268   5.231   2.342   3.169
 6775TIP3    H220269   5.134   2.439   3.232
 6776TIP3   OH220270   5.068   5.860   3.029
 6776TIP3    H120271   5.077   5.775   2.986
 6776TIP3    H220272   5.096   5.924   2.964
 6777TIP3   OH220273   6.559   5.298   3.757
 6777TIP3    H120274   6.519   5.213   3.772
 6777TIP3    H220275   6.489   5.361   3.771
 6778TIP3   OH220276   5.420   0.540   1.405
 6778TIP3    H120277   5.329   0.529   1.430
 6778TIP3    H220278   5.429   0.633   1.384
 6779TIP3   OH220279   4.863   6.583   2.288
 6779TIP3    H120280   4.783   6.600   2.237
 6779TIP3    H220281   4.849   6.632   2.369
 6780TIP3   OH220282   5.439   3.292   3.941
 6780TIP3    H120283   5.393   3.339   3.872
 6780TIP3    H220284   5.418   3.200   3.925
 6781TIP3   OH220285   6.298   6.781   2.831
 6781TIP3    H120286   6.317   6.873   2.813
 6781TIP3    H220287   6.358   6.758   2.901
 6782TIP3   OH220288   4.187   0.722   1.305
 6782TIP3    H120289   4.194   0.684   1.392
 6782TIP3    H220290   4.249   0.795   1.305
 6783TIP3   OH220291   5.026   7.136   1.425
 6783TIP3    H120292   5.100   7.187   1.458
 6783TIP3    H220293   4.991   7.188   1.352
 6784TIP3   OH220294   0.643   5.137   5.368
 6784TIP3    H120295   0.646   5.047   5.402
 6784TIP3    H220296   0.729   5.150   5.328
 6785TIP3   OH220297   1.407   1.668   0.827
 6785TIP3    H120298   1.363   1.680   0.912
 6785TIP3    H220299   1.470   1.598   0.843
 6786TIP3   OH220300   8.132   1.629   1.257
 6786TIP3    H120301   8.204   1.659   1.202
 6786TIP3    H220302   8.053   1.653   1.209
 6787TIP3   OH220303   1.506   6.459   3.115
 6787TIP3    H120304   1.579   6.407   3.081
 6787TIP3    H220305   1.499   6.433   3.207
 6788TIP3   OH220306   6.597   2.147   0.362
 6788TIP3    H120307   6.556   2.161   0.448
 6788TIP3    H220308   6.598   2.234   0.322
 6789TIP3   OH220309   6.111   0.900   2.902
 6789TIP3    H120310   6.023   0.865   2.913
 6789TIP3    H220311   6.120   0.965   2.972
 6790TIP3   OH220312   5.929   7.417   6.178
 6790TIP3    H120313   5.898   7.473   6.249
 6790TIP3    H220314   6.019   7.446   6.162
 6791TIP3   OH220315   2.327   3.476   0.614
 6791TIP3    H120316   2.257   3.533   0.581
 6791TIP3    H220317   2.354   3.425   0.538
 6792TIP3   OH220318   6.434   1.895   1.998
 6792TIP3    H120319   6.505   1.839   1.965
 6792TIP3    H220320   6.452   1.982   1.962
 6793TIP3   OH220321   6.162   5.220   5.130
 6793TIP3    H120322   6.208   5.261   5.203
 6793TIP3    H220323   6.216   5.240   5.054
 6794TIP3   OH220324   3.150   3.361   5.762
 6794TIP3    H120325   3.146   3.325   5.851
 6794TIP3    H220326   3.088   3.434   5.764
 6795TIP3   OH220327   7.501   1.084   4.463
 6795TIP3    H120328   7.475   1.068   4.554
 6795TIP3    H220329   7.418   1.094   4.416
 6796TIP3   OH220330   0.082   2.588   4.116
 6796TIP3    H120331   0.047   2.501   4.093
 6796TIP3    H220332   0.163   2.569   4.163
 6797TIP3   OH220333   0.353   0.259   4.593
 6797TIP3    H120334   0.352   0.169   4.627
 6797TIP3    H220335   0.435   0.265   4.545
 6798TIP3   OH220336   1.701   7.162   0.011
 6798TIP3    H120337   1.715   7.253   0.038
 6798TIP3    H220338   1.728   7.161  -0.081
 6799TIP3   OH220339   5.141   6.731   1.733
 6799TIP3    H120340   5.205   6.801   1.720
 6799TIP3    H220341   5.083   6.738   1.658
 6800TIP3   OH220342   1.102   0.600   3.751
 6800TIP3    H120343   1.091   0.572   3.842
 6800TIP3    H220344   1.018   0.640   3.728
 6801TIP3   OH220345   1.657   5.577   4.808
 6801TIP3    H120346   1.568   5.578   4.773
 6801TIP3    H220347   1.711   5.551   4.734
 6802TIP3   OH220348   6.598   1.582   1.082
 6802TIP3    H120349   6.534   1.572   1.012
 6802TIP3    H220350   6.551   1.558   1.162
 6803TIP3   OH220351   1.139   0.903   5.735
 6803TIP3    H120352   1.099   0.826   5.695
 6803TIP3    H220353   1.072   0.938   5.793
 6804TIP3   OH220354   3.224   5.491   2.050
 6804TIP3    H120355   3.181   5.447   2.124
 6804TIP3    H220356   3.191   5.581   2.053
 6805TIP3   OH220357   5.292   0.251   5.077
 6805TIP3    H120358   5.372   0.201   5.094
 6805TIP3    H220359   5.228   0.214   5.138
 6806TIP3   OH220360   7.821   7.339   2.953
 6806TIP3    H120361   7.844   7.254   2.988
 6806TIP3    H220362   7.792   7.321   2.863
 6807TIP3   OH220363   5.019   6.215   5.883
 6807TIP3    H120364   4.930   6.224   5.848
 6807TIP3    H220365   5.073   6.194   5.807
 6808TIP3   OH220366   3.422   5.958   3.358
 6808TIP3    H120367   3.357   5.924   3.419
 6808TIP3    H220368   3.455   6.038   3.399
 6809TIP3   OH220369   6.024   3.938   2.437
 6809TIP3    H120370   5.983   3.868   2.387
 6809TIP3    H220371   5.963   3.957   2.508
 6810TIP3   OH220372   5.763   6.783   2.970
 6810TIP3    H120373   5.726   6.699   2.996
 6810TIP3    H220374   5.759   6.837   3.049
 6811TIP3   OH220375   3.949   3.992   0.685
 6811TIP3    H120376   4.014   3.925   0.664
 6811TIP3    H220377   3.899   4.003   0.604
 6812TIP3   OH220378   2.410   6.502   3.953
 6812TIP3    H120379   2.329   6.532   3.995
 6812TIP3    H220380   2.422   6.562   3.880
 6813TIP3   OH220381   0.580   7.531   2.537
 6813TIP3    H120382   0.491   7.512   2.507
 6813TIP3    H220383   0.569   7.558   2.628
 6814TIP3   OH220384   0.616   3.536   3.120
 6814TIP3    H120385   0.539   3.592   3.124
 6814TIP3    H220386   0.619   3.492   3.205
 6815TIP3   OH220387   0.928   6.325   0.774
 6815TIP3    H120388   0.862   6.387   0.805
 6815TIP3    H220389   0.991   6.380   0.727
 6816TIP3   OH220390   3.154   6.225   5.120
 6816TIP3    H120391   3.064   6.243   5.092
 6816TIP3    H220392   3.208   6.271   5.056
 6817TIP3   OH220393   5.545   1.891   6.529
 6817TIP3    H120394   5.593   1.818   6.568
 6817TIP3    H220395   5.479   1.850   6.474
 6818TIP3   OH220396   0.537   3.214   3.882
 6818TIP3    H120397   0.616   3.264   3.901
 6818TIP3    H220398   0.551   3.178   3.794
 6819TIP3   OH220399   4.135   5.352   4.527
 6819TIP3    H120400   4.227   5.378   4.517
 6819TIP3    H220401   4.118   5.297   4.450
 6820TIP3   OH220402   6.657   6.386   1.774
 6820TIP3    H120403   6.684   6.332   1.848
 6820TIP3    H220404   6.561   6.382   1.776
 6821TIP3   OH220405   0.287   2.733   6.383
 6821TIP3    H120406   0.331   2.817   6.395
 6821TIP3    H220407   0.315   2.680   6.458
 6822TIP3   OH220408   1.456   5.858   4.604
 6822TIP3    H120409   1.538   5.851   4.555
 6822TIP3    H220410   1.479   5.907   4.683
 6823TIP3   OH220411   4.429   3.503   3.867
 6823TIP3    H120412   4.442   3.556   3.787
 6823TIP3    H220413   4.497   3.437   3.863
 6824TIP3   OH220414   7.936   3.256   6.657
 6824TIP3    H120415   7.970   3.198   6.589
 6824TIP3    H220416   7.843   3.266   6.636
 6825TIP3   OH220417   1.389   3.882   0.429
 6825TIP3    H120418   1.345   3.930   0.499
 6825TIP3    H220419   1.389   3.791   0.458
 6826TIP3   OH220420   3.910   3.733   6.350
 6826TIP3    H120421   4.006   3.730   6.355
 6826TIP3    H220422   3.891   3.726   6.256
 6827TIP3   OH220423   2.793   2.425   4.986
 6827TIP3    H120424   2.704   2.397   4.964
 6827TIP3    H220425   2.790   2.520   4.978
 6828TIP3   OH220426   6.218   3.872   6.394
 6828TIP3    H120427   6.233   3.945   6.334
 6828TIP3    H220428   6.301   3.862   6.440
 6829TIP3   OH220429   2.709   2.328   0.676
 6829TIP3    H120430   2.767   2.403   0.682
 6829TIP3    H220431   2.722   2.280   0.758
 6830TIP3   OH220432   7.566   3.805   2.763
 6830TIP3    H120433   7.484   3.845   2.792
 6830TIP3    H220434   7.624   3.880   2.747
 6831TIP3   OH220435   0.019   2.688   5.718
 6831TIP3    H120436   0.068   2.694   5.800
 6831TIP3    H220437  -0.040   2.764   5.720
 6832TIP3   OH220438   2.115   7.249   4.860
 6832TIP3    H120439   2.089   7.337   4.834
 6832TIP3    H220440   2.075   7.236   4.946
 6833TIP3   OH220441   1.987   1.780   4.700
 6833TIP3    H120442   2.050   1.729   4.650
 6833TIP3    H220443   1.903   1.763   4.658
 6834TIP3   OH220444   7.270   2.006   5.419
 6834TIP3    H120445   7.222   2.067   5.363
 6834TIP3    H220446   7.284   1.929   5.364
 6835TIP3   OH220447   5.246   3.048   1.285
 6835TIP3    H120448   5.262   3.143   1.282
 6835TIP3    H220449   5.232   3.029   1.378
 6836TIP3   OH220450   7.335   1.659   1.068
 6836TIP3    H120451   7.321   1.754   1.076
 6836TIP3    H220452   7.264   1.620   1.118
 6837TIP3   OH220453   4.330   6.702   6.131
 6837TIP3    H120454   4.256   6.700   6.192
 6837TIP3    H220455   4.300   6.759   6.059
 6838TIP3   OH220456   4.730   5.109   3.439
 6838TIP3    H120457   4.695   5.055   3.509
 6838TIP3    H220458   4.653   5.135   3.388
 6839TIP3   OH220459   3.971   4.367   0.111
 6839TIP3    H120460   3.982   4.424   0.035
 6839TIP3    H220461   4.059   4.357   0.147
 6840TIP3   OH220462   5.765   0.338   5.549
 6840TIP3    H120463   5.847   0.341   5.599
 6840TIP3    H220464   5.705   0.286   5.603
 6841TIP3   OH220465   4.227   1.511   2.140
 6841TIP3    H120466   4.214   1.605   2.127
 6841TIP3    H220467   4.319   1.503   2.165
 6842TIP3   OH220468   3.510   1.753   2.190
 6842TIP3    H120469   3.462   1.674   2.214
 6842TIP3    H220470   3.524   1.798   2.273
 6843TIP3   OH220471   1.970   5.745   2.706
 6843TIP3    H120472   1.983   5.824   2.655
 6843TIP3    H220473   2.058   5.718   2.733
 6844TIP3   OH220474   4.014   4.608   0.293
 6844TIP3    H120475   4.060   4.652   0.222
 6844TIP3    H220476   4.059   4.524   0.303
 6845TIP3   OH220477   6.325   2.700   0.711
 6845TIP3    H120478   6.290   2.745   0.788
 6845TIP3    H220479   6.314   2.763   0.639
 6846TIP3   OH220480   6.368   6.807   4.222
 6846TIP3    H120481   6.292   6.803   4.165
 6846TIP3    H220482   6.333   6.821   4.309
 6847TIP3   OH220483   1.003   4.354   5.746
 6847TIP3    H120484   0.988   4.329   5.837
 6847TIP3    H220485   1.000   4.272   5.698
 6848TIP3   OH220486   5.926   7.325   4.191
 6848TIP3    H120487   6.018   7.300   4.192
 6848TIP3    H220488   5.919   7.388   4.119
 6849TIP3   OH220489   8.205   6.975   1.549
 6849TIP3    H120490   8.299   6.955   1.551
 6849TIP3    H220491   8.200   7.068   1.570
 6850TIP3   OH220492   2.442   1.127   5.563
 6850TIP3    H120493   2.411   1.067   5.495
 6850TIP3    H220494   2.524   1.088   5.594
 6851TIP3   OH220495   3.733   2.284   1.459
 6851TIP3    H120496   3.764   2.362   1.506
 6851TIP3    H220497   3.701   2.226   1.528
 6852TIP3   OH220498   2.148   1.996   1.813
 6852TIP3    H120499   2.067   1.962   1.850
 6852TIP3    H220500   2.171   2.071   1.868
 6853TIP3   OH220501   3.379   1.754   0.365
 6853TIP3    H120502   3.444   1.796   0.308
 6853TIP3    H220503   3.318   1.712   0.305
 6854TIP3   OH220504   0.853   5.484   1.148
 6854TIP3    H120505   0.904   5.549   1.196
 6854TIP3    H220506   0.915   5.447   1.085
 6855TIP3   OH220507   2.526   4.185   5.892
 6855TIP3    H120508   2.556   4.252   5.831
 6855TIP3    H220509   2.517   4.106   5.840
 6856TIP3   OH220510   4.520   5.784   5.717
 6856TIP3    H120511   4.567   5.712   5.760
 6856TIP3    H220512   4.490   5.839   5.789
 6857TIP3   OH220513   5.777   0.289   4.489
 6857TIP3    H120514   5.837   0.262   4.420
 6857TIP3    H220515   5.819   0.365   4.529
 6858TIP3   OH220516   5.541   4.721   2.237
 6858TIP3    H120517   5.503   4.649   2.287
 6858TIP3    H220518   5.515   4.705   2.147
 6859TIP3   OH220519   3.415   0.964   2.476
 6859TIP3    H120520   3.413   0.868   2.470
 6859TIP3    H220521   3.399   0.982   2.569
 6860TIP3   OH220522   0.246   7.451   0.246
 6860TIP3    H120523   0.182   7.404   0.300
 6860TIP3    H220524   0.309   7.486   0.309
 6861TIP3   OH220525   0.098   5.651   0.929
 6861TIP3    H120526   0.115   5.636   1.022
 6861TIP3    H220527   0.137   5.737   0.910
 6862TIP3   OH220528   5.394   6.134   5.309
 6862TIP3    H120529   5.450   6.056   5.305
 6862TIP3    H220530   5.378   6.157   5.218
 6863TIP3   OH220531   7.217   5.746   5.636
 6863TIP3    H120532   7.175   5.722   5.553
 6863TIP3    H220533   7.267   5.825   5.616
 6864TIP3   OH220534   5.734   2.682   5.624
 6864TIP3    H120535   5.806   2.655   5.567
 6864TIP3    H220536   5.712   2.770   5.594
 6865TIP3   OH220537   1.490   0.442   6.767
 6865TIP3    H120538   1.516   0.477   6.681
 6865TIP3    H220539   1.434   0.367   6.746
 6866TIP3   OH220540   4.375   1.110   0.754
 6866TIP3    H120541   4.373   1.107   0.659
 6866TIP3    H220542   4.283   1.108   0.781
 6867TIP3   OH220543   1.050   6.197   6.732
 6867TIP3    H120544   1.087   6.113   6.701
 6867TIP3    H220545   1.031   6.245   6.652
 6868TIP3   OH220546   0.714   1.488   1.637
 6868TIP3    H120547   0.668   1.476   1.720
 6868TIP3    H220548   0.724   1.400   1.602
 6869TIP3   OH220549   3.739   5.158   4.694
 6869TIP3    H120550   3.763   5.088   4.633
 6869TIP3    H220551   3.821   5.181   4.738
 6870TIP3   OH220552   4.046   4.613   6.179
 6870TIP3    H120553   3.996   4.590   6.258
 6870TIP3    H220554   4.028   4.706   6.166
 6871TIP3   OH220555   5.098   4.305   2.762
 6871TIP3    H120556   5.100   4.400   2.750
 6871TIP3    H220557   5.005   4.283   2.762
 6872TIP3   OH220558   0.606   7.487   1.585
 6872TIP3    H120559   0.598   7.582   1.585
 6872TIP3    H220560   0.648   7.466   1.669
 6873TIP3   OH220561   5.633   2.554   5.853
 6873TIP3    H120562   5.666   2.565   5.764
 6873TIP3    H220563   5.701   2.594   5.908
 6874TIP3   OH220564   7.918   2.454   0.396
 6874TIP3    H120565   7.829   2.423   0.416
 6874TIP3    H220566   7.906   2.512   0.321
 6875TIP3   OH220567   5.868   6.288   4.251
 6875TIP3    H120568   5.845   6.380   4.256
 6875TIP3    H220569   5.962   6.287   4.233
 6876TIP3   OH220570   4.177   5.464   1.333
 6876TIP3    H120571   4.179   5.413   1.252
 6876TIP3    H220572   4.235   5.417   1.392
 6877TIP3   OH220573   4.453   5.649   4.239
 6877TIP3    H120574   4.548   5.659   4.243
 6877TIP3    H220575   4.426   5.642   4.331
 6878TIP3   OH220576   4.549   7.318   3.712
 6878TIP3    H120577   4.491   7.387   3.745
 6878TIP3    H220578   4.496   7.239   3.713
 6879TIP3   OH220579   5.849   6.608   1.106
 6879TIP3    H120580   5.790   6.575   1.174
 6879TIP3    H220581   5.934   6.569   1.126
 6880TIP3   OH220582   2.048   1.543   3.962
 6880TIP3    H120583   2.109   1.580   4.025
 6880TIP3    H220584   2.081   1.572   3.877
 6881TIP3   OH220585   4.083   2.092   1.443
 6881TIP3    H120586   4.131   2.064   1.520
 6881TIP3    H220587   4.053   2.181   1.463
 6882TIP3   OH220588   6.001   2.697   2.463
 6882TIP3    H120589   5.954   2.767   2.419
 6882TIP3    H220590   6.001   2.625   2.400
 6883TIP3   OH220591   3.815   0.784   1.152
 6883TIP3    H120592   3.852   0.737   1.227
 6883TIP3    H220593   3.802   0.716   1.086
 6884TIP3   OH220594   8.107   7.780   4.333
 6884TIP3    H120595   8.019   7.781   4.296
 6884TIP3    H220596   8.165   7.801   4.260
 6885TIP3   OH220597   0.305   2.346   4.837
 6885TIP3    H120598   0.271   2.372   4.922
 6885TIP3    H220599   0.340   2.427   4.799
 6886TIP3   OH220600   6.460   2.246   4.301
 6886TIP3    H120601   6.518   2.180   4.264
 6886TIP3    H220602   6.507   2.329   4.290
 6887TIP3   OH220603   3.881   2.199   3.038
 6887TIP3    H120604   3.928   2.225   3.117
 6887TIP3    H220605   3.821   2.130   3.067
 6888TIP3   OH220606   5.593   1.607   1.305
 6888TIP3    H120607   5.590   1.512   1.305
 6888TIP3    H220608   5.599   1.632   1.213
 6889TIP3   OH220609   5.306   7.574   1.969
 6889TIP3    H120610   5.270   7.489   1.995
 6889TIP3    H220611   5.366   7.598   2.040
 6890TIP3   OH220612   7.702   0.480   0.032
 6890TIP3    H120613   7.652   0.459   0.110
 6890TIP3    H220614   7.636   0.502  -0.034
 6891TIP3   OH220615   0.207   2.724   1.229
 6891TIP3    H120616   0.253   2.724   1.313
 6891TIP3    H220617   0.161   2.641   1.226
 6892TIP3   OH220618   4.535   6.567   5.992
 6892TIP3    H120619   4.547   6.645   5.937
 6892TIP3    H220620   4.449   6.580   6.033
 6893TIP3   OH220621   3.791   0.183   2.050
 6893TIP3    H120622   3.782   0.112   2.114
 6893TIP3    H220623   3.713   0.238   2.065
 6894TIP3   OH220624   4.714   1.009   0.884
 6894TIP3    H120625   4.697   0.923   0.922
 6894TIP3    H220626   4.736   1.064   0.959
 6895TIP3   OH220627   3.690   7.280   0.827
 6895TIP3    H120628   3.747   7.288   0.904
 6895TIP3    H220629   3.747   7.244   0.759
 6896TIP3   OH220630   8.027   6.064   6.432
 6896TIP3    H120631   8.063   6.084   6.519
 6896TIP3    H220632   7.989   5.976   6.442
 6897TIP3   OH220633   0.316   5.983   1.128
 6897TIP3    H120634   0.335   6.068   1.166
 6897TIP3    H220635   0.318   5.922   1.202
 6898TIP3   OH220636   0.844   1.737   6.192
 6898TIP3    H120637   0.816   1.808   6.135
 6898TIP3    H220638   0.862   1.778   6.276
 6899TIP3   OH220639   7.891   1.039   0.730
 6899TIP3    H120640   7.886   0.959   0.782
 6899TIP3    H220641   7.978   1.037   0.690
 6900TIP3   OH220642   7.114   4.987   2.707
 6900TIP3    H120643   7.130   4.975   2.613
 6900TIP3    H220644   7.071   5.072   2.714
 6901TIP3   OH220645   6.868   3.657   2.319
 6901TIP3    H120646   6.948   3.648   2.371
 6901TIP3    H220647   6.820   3.575   2.335
 6902TIP3   OH220648   0.466   4.042   2.892
 6902TIP3    H120649   0.512   4.018   2.812
 6902TIP3    H220650   0.383   4.079   2.861
 6903TIP3   OH220651   3.870   0.331   6.735
 6903TIP3    H120652   3.796   0.294   6.783
 6903TIP3    H220653   3.837   0.415   6.702
 6904TIP3   OH220654   6.962   6.329   2.814
 6904TIP3    H120655   7.045   6.377   2.809
 6904TIP3    H220656   6.980   6.258   2.875
 6905TIP3   OH220657   2.352   4.362   6.460
 6905TIP3    H120658   2.361   4.296   6.529
 6905TIP3    H220659   2.432   4.353   6.408
 6906TIP3   OH220660   4.187   4.808   1.838
 6906TIP3    H120661   4.238   4.888   1.845
 6906TIP3    H220662   4.191   4.769   1.926
 6907TIP3   OH220663   2.342   0.269   6.165
 6907TIP3    H120664   2.247   0.276   6.177
 6907TIP3    H220665   2.379   0.321   6.236
 6908TIP3   OH220666   7.808   7.308   6.073
 6908TIP3    H120667   7.730   7.274   6.030
 6908TIP3    H220668   7.777   7.335   6.160
 6909TIP3   OH220669   5.163   6.464   1.608
 6909TIP3    H120670   5.242   6.421   1.641
 6909TIP3    H220671   5.179   6.557   1.622
 6910TIP3   OH220672   2.611   3.372   6.129
 6910TIP3    H120673   2.668   3.296   6.117
 6910TIP3    H220674   2.624   3.397   6.220
 6911TIP3   OH220675   5.814   7.216   6.002
 6911TIP3    H120676   5.902   7.239   6.034
 6911TIP3    H220677   5.764   7.297   6.010
 6912TIP3   OH220678   2.143   2.877   0.908
 6912TIP3    H120679   2.076   2.812   0.925
 6912TIP3    H220680   2.098   2.961   0.917
 6913TIP3   OH220681   1.825   7.536   2.369
 6913TIP3    H120682   1.742   7.536   2.417
 6913TIP3    H220683   1.861   7.449   2.382
 6914TIP3   OH220684   4.969   2.546   3.862
 6914TIP3    H120685   4.954   2.622   3.918
 6914TIP3    H220686   4.883   2.505   3.854
 6915TIP3   OH220687   8.147   3.306   1.374
 6915TIP3    H120688   8.216   3.365   1.344
 6915TIP3    H220689   8.104   3.354   1.444
 6916TIP3   OH220690   1.947   3.735   4.161
 6916TIP3    H120691   1.893   3.787   4.220
 6916TIP3    H220692   2.008   3.798   4.122
 6917TIP3   OH220693   5.405   4.486   0.191
 6917TIP3    H120694   5.359   4.465   0.110
 6917TIP3    H220695   5.347   4.456   0.261
 6918TIP3   OH220696   4.162   1.471   2.777
 6918TIP3    H120697   4.152   1.377   2.760
 6918TIP3    H220698   4.256   1.486   2.776
 6919TIP3   OH220699   0.301   7.371   1.134
 6919TIP3    H120700   0.330   7.396   1.222
 6919TIP3    H220701   0.207   7.359   1.143
 6920TIP3   OH220702   6.727   5.946   0.286
 6920TIP3    H120703   6.747   5.952   0.193
 6920TIP3    H220704   6.723   6.037   0.316
 6921TIP3   OH220705   5.508   7.097   2.066
 6921TIP3    H120706   5.472   7.136   2.145
 6921TIP3    H220707   5.471   7.008   2.065
 6922TIP3   OH220708   1.391   4.443   0.691
 6922TIP3    H120709   1.435   4.529   0.688
 6922TIP3    H220710   1.366   4.426   0.600
 6923TIP3   OH220711   3.134   5.658   6.388
 6923TIP3    H120712   3.152   5.564   6.391
 6923TIP3    H220713   3.059   5.671   6.446
 6924TIP3   OH220714   0.697   1.326   1.236
 6924TIP3    H120715   0.777   1.371   1.262
 6924TIP3    H220716   0.683   1.353   1.145
 6925TIP3   OH220717   1.791   0.632   5.685
 6925TIP3    H120718   1.800   0.620   5.779
 6925TIP3    H220719   1.698   0.651   5.672
 6926TIP3   OH220720   5.230   1.167   2.943
 6926TIP3    H120721   5.228   1.131   3.031
 6926TIP3    H220722   5.322   1.191   2.930
 6927TIP3   OH220723   2.564   0.353   1.876
 6927TIP3    H120724   2.616   0.416   1.926
 6927TIP3    H220725   2.493   0.329   1.935
 6928TIP3   OH220726   5.267   2.660   0.921
 6928TIP3    H120727   5.228   2.744   0.947
 6928TIP3    H220728   5.326   2.638   0.992
 6929TIP3   OH220729   3.514   6.979   3.585
 6929TIP3    H120730   3.455   6.911   3.618
 6929TIP3    H220731   3.510   6.971   3.490
 6930TIP3   OH220732   1.115   4.299   3.078
 6930TIP3    H120733   1.036   4.249   3.062
 6930TIP3    H220734   1.186   4.234   3.076
 6931TIP3   OH220735   7.894   7.728   5.334
 6931TIP3    H120736   7.847   7.650   5.305
 6931TIP3    H220737   7.941   7.758   5.256
 6932TIP3   OH220738   8.285   5.155   5.039
 6932TIP3    H120739   8.310   5.190   5.125
 6932TIP3    H220740   8.270   5.061   5.055
 6933TIP3   OH220741   6.361   1.234   0.077
 6933TIP3    H120742   6.355   1.150   0.123
 6933TIP3    H220743   6.375   1.211  -0.014
 6934TIP3   OH220744   6.228   6.560   5.042
 6934TIP3    H120745   6.304   6.592   4.993
 6934TIP3    H220746   6.181   6.505   4.980
 6935TIP3   OH220747   8.249   0.429   1.129
 6935TIP3    H120748   8.281   0.390   1.210
 6935TIP3    H220749   8.306   0.504   1.114
 6936TIP3   OH220750   7.209   1.135   2.354
 6936TIP3    H120751   7.147   1.067   2.379
 6936TIP3    H220752   7.201   1.143   2.259
 6937TIP3   OH220753   1.372   2.621   1.526
 6937TIP3    H120754   1.416   2.694   1.570
 6937TIP3    H220755   1.442   2.564   1.496
 6938TIP3   OH220756   7.690   3.027   6.706
 6938TIP3    H120757   7.770   3.021   6.654
 6938TIP3    H220758   7.660   3.117   6.692
 6939TIP3   OH220759   1.563   0.910   3.788
 6939TIP3    H120760   1.554   0.934   3.881
 6939TIP3    H220761   1.528   0.985   3.741
 6940TIP3   OH220762   3.591   5.119   1.142
 6940TIP3    H120763   3.681   5.118   1.176
 6940TIP3    H220764   3.600   5.147   1.051
 6941TIP3   OH220765   1.608   6.159   5.771
 6941TIP3    H120766   1.603   6.249   5.803
 6941TIP3    H220767   1.671   6.116   5.828
 6942TIP3   OH220768   3.262   5.528   6.686
 6942TIP3    H120769   3.280   5.509   6.594
 6942TIP3    H220770   3.245   5.622   6.688
 6943TIP3   OH220771   7.707   3.813   1.850
 6943TIP3    H120772   7.791   3.774   1.827
 6943TIP3    H220773   7.698   3.888   1.791
 6944TIP3   OH220774   5.333   2.721   6.368
 6944TIP3    H120775   5.404   2.671   6.407
 6944TIP3    H220776   5.289   2.659   6.309
 6945TIP3   OH220777   5.536   1.661   0.187
 6945TIP3    H120778   5.490   1.591   0.233
 6945TIP3    H220779   5.494   1.663   0.100
 6946TIP3   OH220780   3.606   5.609   6.323
 6946TIP3    H120781   3.618   5.698   6.291
 6946TIP3    H220782   3.616   5.554   6.245
 6947TIP3   OH220783   0.709   5.647   6.344
 6947TIP3    H120784   0.778   5.652   6.411
 6947TIP3    H220785   0.648   5.717   6.366
 6948TIP3   OH220786   4.525   7.001   5.294
 6948TIP3    H120787   4.524   6.989   5.389
 6948TIP3    H220788   4.436   7.028   5.272
 6949TIP3   OH220789   2.366   3.142   0.849
 6949TIP3    H120790   2.407   3.228   0.841
 6949TIP3    H220791   2.310   3.135   0.772
 6950TIP3   OH220792   3.689   6.224   0.942
 6950TIP3    H120793   3.732   6.306   0.920
 6950TIP3    H220794   3.724   6.161   0.878
 6951TIP3   OH220795   5.365   2.731   2.375
 6951TIP3    H120796   5.435   2.720   2.439
 6951TIP3    H220797   5.409   2.728   2.290
 6952TIP3   OH220798   3.985   1.535   0.469
 6952TIP3    H120799   4.052   1.593   0.505
 6952TIP3    H220800   4.014   1.447   0.494
 6953TIP3   OH220801   1.868   7.204   0.441
 6953TIP3    H120802   1.802   7.213   0.510
 6953TIP3    H220803   1.837   7.132   0.387
 6954TIP3   OH220804   3.981   3.270   3.785
 6954TIP3    H120805   4.058   3.255   3.730
 6954TIP3    H220806   3.923   3.196   3.766
 6955TIP3   OH220807   7.607   5.386   2.721
 6955TIP3    H120808   7.614   5.431   2.805
 6955TIP3    H220809   7.551   5.442   2.668
 6956TIP3   OH220810   3.448   3.696   2.077
 6956TIP3    H120811   3.509   3.768   2.093
 6956TIP3    H220812   3.453   3.681   1.983
 6957TIP3   OH220813   6.629   5.534   4.732
 6957TIP3    H120814   6.653   5.473   4.802
 6957TIP3    H220815   6.612   5.617   4.777
 6958TIP3   OH220816   2.517   2.997   2.731
 6958TIP3    H120817   2.436   3.008   2.682
 6958TIP3    H220818   2.537   2.903   2.724
 6959TIP3   OH220819   3.407   1.698   5.547
 6959TIP3    H120820   3.460   1.725   5.622
 6959TIP3    H220821   3.452   1.621   5.512
 6960TIP3   OH220822   2.304   7.643   4.254
 6960TIP3    H120823   2.397   7.627   4.242
 6960TIP3    H220824   2.262   7.559   4.233
 6961TIP3   OH220825   4.826   5.516   3.904
 6961TIP3    H120826   4.783   5.431   3.902
 6961TIP3    H220827   4.766   5.572   3.954
 6962TIP3   OH220828   5.772   1.029   3.303
 6962TIP3    H120829   5.859   1.068   3.298
 6962TIP3    H220830   5.784   0.941   3.268
 6963TIP3   OH220831   0.049   7.471   2.754
 6963TIP3    H120832   0.047   7.509   2.666
 6963TIP3    H220833   0.102   7.532   2.805
 6964TIP3   OH220834   2.461   4.269   5.154
 6964TIP3    H120835   2.406   4.292   5.078
 6964TIP3    H220836   2.488   4.179   5.137
 6965TIP3   OH220837   0.597   0.632   4.606
 6965TIP3    H120838   0.643   0.559   4.648
 6965TIP3    H220839   0.530   0.657   4.669
 6966TIP3   OH220840   8.018   4.381   1.807
 6966TIP3    H120841   8.070   4.325   1.749
 6966TIP3    H220842   7.977   4.445   1.750
 6967TIP3   OH220843   3.777   7.119   3.357
 6967TIP3    H120844   3.811   7.047   3.409
 6967TIP3    H220845   3.719   7.077   3.293
 6968TIP3   OH220846   7.549   5.112   6.246
 6968TIP3    H120847   7.611   5.145   6.310
 6968TIP3    H220848   7.563   5.167   6.169
 6969TIP3   OH220849   1.723   3.329   2.853
 6969TIP3    H120850   1.629   3.311   2.849
 6969TIP3    H220851   1.730   3.424   2.857
 6970TIP3   OH220852   7.594   1.848   5.996
 6970TIP3    H120853   7.646   1.895   5.931
 6970TIP3    H220854   7.536   1.915   6.033
 6971TIP3   OH220855   7.844   6.128   6.210
 6971TIP3    H120856   7.883   6.105   6.294
 6971TIP3    H220857   7.910   6.182   6.166
 6972TIP3   OH220858   7.776   1.147   0.470
 6972TIP3    H120859   7.816   1.078   0.418
 6972TIP3    H220860   7.787   1.118   0.561
 6973TIP3   OH220861   1.951   5.436   1.715
 6973TIP3    H120862   2.002   5.498   1.664
 6973TIP3    H220863   1.993   5.435   1.801
 6974TIP3   OH220864   7.218   1.355   6.323
 6974TIP3    H120865   7.293   1.326   6.375
 6974TIP3    H220866   7.243   1.443   6.293
 6975TIP3   OH220867   1.749   5.811   6.627
 6975TIP3    H120868   1.746   5.841   6.536
 6975TIP3    H220869   1.664   5.769   6.641
 6976TIP3   OH220870   5.939   5.312   3.953
 6976TIP3    H120871   5.892   5.259   3.890
 6976TIP3    H220872   5.954   5.253   4.027
 6977TIP3   OH220873   3.326   6.160   0.474
 6977TIP3    H120874   3.381   6.187   0.401
 6977TIP3    H220875   3.380   6.175   0.552
 6978TIP3   OH220876   0.356   5.005   1.132
 6978TIP3    H120877   0.291   5.060   1.175
 6978TIP3    H220878   0.344   5.023   1.038
 6979TIP3   OH220879   4.372   2.205   4.518
 6979TIP3    H120880   4.280   2.180   4.524
 6979TIP3    H220881   4.419   2.121   4.514
 6980TIP3   OH220882   6.475   7.680   3.268
 6980TIP3    H120883   6.566   7.668   3.241
 6980TIP3    H220884   6.462   7.775   3.267
 6981TIP3   OH220885   2.760   5.393   0.940
 6981TIP3    H120886   2.760   5.425   0.850
 6981TIP3    H220887   2.771   5.472   0.994
 6982TIP3   OH220888   4.185   0.520   5.427
 6982TIP3    H120889   4.172   0.598   5.481
 6982TIP3    H220890   4.279   0.502   5.434
 6983TIP3   OH220891   3.802   3.171   4.112
 6983TIP3    H120892   3.721   3.201   4.071
 6983TIP3    H220893   3.871   3.196   4.051
 6984TIP3   OH220894   5.653   4.631   0.778
 6984TIP3    H120895   5.669   4.541   0.747
 6984TIP3    H220896   5.604   4.672   0.707
 6985TIP3   OH220897   7.926   1.739   1.832
 6985TIP3    H120898   7.858   1.793   1.872
 6985TIP3    H220899   7.972   1.700   1.906
 6986TIP3   OH220900   2.857   5.957   0.899
 6986TIP3    H120901   2.780   5.993   0.943
 6986TIP3    H220902   2.832   5.955   0.807
 6987TIP3   OH220903   6.881   0.255   3.029
 6987TIP3    H120904   6.787   0.268   3.024
 6987TIP3    H220905   6.900   0.251   3.123
 6988TIP3   OH220906   3.970   0.246   2.295
 6988TIP3    H120907   4.024   0.301   2.239
 6988TIP3    H220908   3.887   0.293   2.303
 6989TIP3   OH220909   2.242   7.459   3.313
 6989TIP3    H120910   2.159   7.497   3.285
 6989TIP3    H220911   2.238   7.461   3.409
 6990TIP3   OH220912   1.649   2.200   2.706
 6990TIP3    H120913   1.577   2.139   2.717
 6990TIP3    H220914   1.670   2.196   2.612
 6991TIP3   OH220915   5.787   1.648   1.511
 6991TIP3    H120916   5.724   1.650   1.439
 6991TIP3    H220917   5.790   1.556   1.537
 6992TIP3   OH220918   3.257   6.940   3.724
 6992TIP3    H120919   3.176   6.959   3.772
 6992TIP3    H220920   3.242   6.975   3.637
 6993TIP3   OH220921   3.128   1.497   3.621
 6993TIP3    H120922   3.159   1.412   3.592
 6993TIP3    H220923   3.201   1.535   3.669
 6994TIP3   OH220924   2.732   7.345   4.253
 6994TIP3    H120925   2.820   7.309   4.266
 6994TIP3    H220926   2.722   7.351   4.158
 6995TIP3   OH220927   1.232   6.682   4.877
 6995TIP3    H120928   1.209   6.648   4.790
 6995TIP3    H220929   1.310   6.632   4.901
 6996TIP3   OH220930   1.506   5.564   0.081
 6996TIP3    H120931   1.421   5.609   0.074
 6996TIP3    H220932   1.556   5.618   0.142
 6997TIP3   OH220933   3.997   7.542   5.779
 6997TIP3    H120934   4.032   7.630   5.760
 6997TIP3    H220935   3.915   7.539   5.730
 6998TIP3   OH220936   0.458   0.716   0.981
 6998TIP3    H120937   0.481   0.649   1.046
 6998TIP3    H220938   0.483   0.799   1.022
 6999TIP3   OH220939   0.289   2.114   5.751
 6999TIP3    H120940   0.284   2.183   5.817
 6999TIP3    H220941   0.231   2.045   5.783
 7000TIP3   OH220942   4.561   1.550   5.597
 7000TIP3    H120943   4.600   1.483   5.653
 7000TIP3    H220944   4.632   1.576   5.537
 7001TIP3   OH220945   3.584   0.882   4.570
 7001TIP3    H120946   3.538   0.854   4.491
 7001TIP3    H220947   3.676   0.884   4.545
 7002TIP3   OH220948   2.206   0.540   2.383
 7002TIP3    H120949   2.268   0.486   2.431
 7002TIP3    H220950   2.245   0.627   2.383
 7003TIP3   OH220951   4.211   1.062   1.157
 7003TIP3    H120952   4.154   1.013   1.098
 7003TIP3    H220953   4.293   1.012   1.158
 7004TIP3   OH220954   0.322   3.073   0.494
 7004TIP3    H120955   0.401   3.108   0.536
 7004TIP3    H220956   0.318   2.982   0.523
 7005TIP3   OH220957   5.820   2.769   0.108
 7005TIP3    H120958   5.829   2.742   0.199
 7005TIP3    H220959   5.907   2.756   0.071
 7006TIP3   OH220960   5.134   1.109   4.660
 7006TIP3    H120961   5.084   1.145   4.733
 7006TIP3    H220962   5.142   1.016   4.680
 7007TIP3   OH220963   3.256   2.411   4.742
 7007TIP3    H120964   3.332   2.456   4.778
 7007TIP3    H220965   3.191   2.414   4.812
 7008TIP3   OH220966   1.683   4.296   2.651
 7008TIP3    H120967   1.665   4.373   2.705
 7008TIP3    H220968   1.746   4.246   2.703
 7009TIP3   OH220969   7.998   5.073   2.276
 7009TIP3    H120970   8.023   5.027   2.195
 7009TIP3    H220971   7.947   5.148   2.245
 7010TIP3   OH220972   0.760   3.160   1.757
 7010TIP3    H120973   0.772   3.247   1.796
 7010TIP3    H220974   0.717   3.109   1.824
 7011TIP3   OH220975   7.126   5.663   4.197
 7011TIP3    H120976   7.089   5.611   4.268
 7011TIP3    H220977   7.163   5.740   4.241
 7012TIP3   OH220978   3.669   5.129   5.775
 7012TIP3    H120979   3.662   5.119   5.870
 7012TIP3    H220980   3.698   5.220   5.762
 7013TIP3   OH220981   6.246   4.238   4.111
 7013TIP3    H120982   6.302   4.225   4.188
 7013TIP3    H220983   6.265   4.328   4.084
 7014TIP3   OH220984   0.624   5.153   5.058
 7014TIP3    H120985   0.591   5.068   5.086
 7014TIP3    H220986   0.698   5.132   5.001
 7015TIP3   OH220987   6.047   6.671   2.027
 7015TIP3    H120988   6.107   6.596   2.024
 7015TIP3    H220989   6.017   6.674   2.118
 7016TIP3   OH220990   0.725   6.738   1.148
 7016TIP3    H120991   0.733   6.683   1.226
 7016TIP3    H220992   0.762   6.822   1.174
 7017TIP3   OH220993   8.038   1.410   4.779
 7017TIP3    H120994   8.105   1.342   4.774
 7017TIP3    H220995   8.015   1.415   4.872
 7018TIP3   OH220996   3.641   7.094   1.729
 7018TIP3    H120997   3.612   7.149   1.657
 7018TIP3    H220998   3.685   7.020   1.687
 7019TIP3   OH220999   4.846   6.017   5.074
 7019TIP3    H121000   4.808   6.052   4.994
 7019TIP3    H221001   4.930   5.981   5.047
 7020TIP3   OH221002   3.049   1.949   5.600
 7020TIP3    H121003   3.120   1.964   5.537
 7020TIP3    H221004   2.970   1.976   5.554
 7021TIP3   OH221005   4.544   0.967   3.634
 7021TIP3    H121006   4.517   0.954   3.725
 7021TIP3    H221007   4.540   0.879   3.595
 7022TIP3   OH221008   8.049   0.671   6.021
 7022TIP3    H121009   8.033   0.759   5.987
 7022TIP3    H221010   8.078   0.622   5.945
 7023TIP3   OH221011   2.903   2.953   2.882
 7023TIP3    H121012   2.877   2.862   2.871
 7023TIP3    H221013   2.894   2.991   2.794
 7024TIP3   OH221014   7.176   6.034   6.557
 7024TIP3    H121015   7.233   6.000   6.625
 7024TIP3    H221016   7.149   5.957   6.508
 7025TIP3   OH221017   2.277   3.130   4.486
 7025TIP3    H121018   2.206   3.175   4.442
 7025TIP3    H221019   2.255   3.136   4.579
 7026TIP3   OH221020   6.332   2.144   2.504
 7026TIP3    H121021   6.274   2.069   2.513
 7026TIP3    H221022   6.414   2.107   2.470
 7027TIP3   OH221023   2.698   2.799   6.575
 7027TIP3    H121024   2.662   2.769   6.491
 7027TIP3    H221025   2.713   2.719   6.625
 7028TIP3   OH221026   2.857   3.229   6.038
 7028TIP3    H121027   2.819   3.189   5.959
 7028TIP3    H221028   2.950   3.238   6.017
 7029TIP3   OH221029   4.287   6.453   6.306
 7029TIP3    H121030   4.289   6.455   6.402
 7029TIP3    H221031   4.227   6.523   6.282
 7030TIP3   OH221032   0.505   3.244   0.274
 7030TIP3    H121033   0.411   3.264   0.272
 7030TIP3    H221034   0.515   3.182   0.346
 7031TIP3   OH221035   7.523   0.075   0.987
 7031TIP3    H121036   7.578   0.102   0.914
 7031TIP3    H221037   7.436   0.064   0.949
 7032TIP3   OH221038   2.561   5.081   3.460
 7032TIP3    H121039   2.632   5.036   3.506
 7032TIP3    H221040   2.503   5.011   3.430
 7033TIP3   OH221041   7.944   5.814   5.324
 7033TIP3    H121042   7.906   5.889   5.369
 7033TIP3    H221043   8.031   5.844   5.297
 7034TIP3   OH221044   5.004   2.077   3.610
 7034TIP3    H121045   4.993   2.102   3.701
 7034TIP3    H221046   5.003   2.161   3.562
 7035TIP3   OH221047   5.579   0.050   3.869
 7035TIP3    H121048   5.558   0.083   3.956
 7035TIP3    H221049   5.554   0.121   3.810
 7036TIP3   OH221050   0.283   7.380   5.983
 7036TIP3    H121051   0.200   7.397   6.029
 7036TIP3    H221052   0.261   7.389   5.890
 7037TIP3   OH221053   1.539   2.131   3.908
 7037TIP3    H121054   1.538   2.114   4.002
 7037TIP3    H221055   1.630   2.117   3.881
 7038TIP3   OH221056   8.070   6.854   5.902
 7038TIP3    H121057   7.986   6.827   5.866
 7038TIP3    H221058   8.050   6.886   5.990
 7039TIP3   OH221059   6.408   4.826   4.891
 7039TIP3    H121060   6.472   4.898   4.889
 7039TIP3    H221061   6.331   4.864   4.934
 7040TIP3   OH221062   0.445   4.533   4.237
 7040TIP3    H121063   0.366   4.481   4.224
 7040TIP3    H221064   0.487   4.495   4.314
 7041TIP3   OH221065   3.148   5.387   1.737
 7041TIP3    H121066   3.216   5.449   1.710
 7041TIP3    H221067   3.160   5.377   1.831
 7042TIP3   OH221068   7.666   5.899   5.622
 7042TIP3    H121069   7.636   5.817   5.583
 7042TIP3    H221070   7.587   5.938   5.660
 7043TIP3   OH221071   8.202   0.898   5.103
 7043TIP3    H121072   8.116   0.938   5.095
 7043TIP3    H221073   8.215   0.851   5.021
 7044TIP3   OH221074   6.771   5.937   5.559
 7044TIP3    H121075   6.767   5.973   5.470
 7044TIP3    H221076   6.845   5.980   5.600
 7045TIP3   OH221077   5.577   5.966   3.174
 7045TIP3    H121078   5.572   5.903   3.102
 7045TIP3    H221079   5.670   5.984   3.183
 7046TIP3   OH221080   2.095   0.203   1.171
 7046TIP3    H121081   2.119   0.272   1.233
 7046TIP3    H221082   2.021   0.239   1.122
 7047TIP3   OH221083   0.261   6.525   5.324
 7047TIP3    H121084   0.191   6.589   5.339
 7047TIP3    H221085   0.331   6.576   5.282
 7048TIP3   OH221086   5.466   1.149   4.783
 7048TIP3    H121087   5.452   1.150   4.689
 7048TIP3    H221088   5.402   1.210   4.818
 7049TIP3   OH221089   7.574   0.987   1.483
 7049TIP3    H121090   7.480   1.003   1.476
 7049TIP3    H221091   7.604   1.051   1.548
 7050TIP3   OH221092   2.073   1.434   5.192
 7050TIP3    H121093   2.032   1.377   5.258
 7050TIP3    H221094   2.081   1.518   5.236
 7051TIP3   OH221095   2.451   6.303   0.663
 7051TIP3    H121096   2.399   6.223   0.666
 7051TIP3    H221097   2.515   6.293   0.734
 7052TIP3   OH221098   1.515   4.555   0.330
 7052TIP3    H121099   1.527   4.562   0.425
 7052TIP3    H221100   1.434   4.603   0.313
 7053TIP3   OH221101   5.004   5.777   2.589
 7053TIP3    H121102   5.062   5.724   2.534
 7053TIP3    H221103   4.916   5.755   2.559
 7054TIP3   OH221104   2.463   4.117   4.526
 7054TIP3    H121105   2.430   4.106   4.615
 7054TIP3    H221106   2.533   4.181   4.534
 7055TIP3   OH221107   7.474   5.936   6.044
 7055TIP3    H121108   7.433   5.947   5.958
 7055TIP3    H221109   7.539   6.006   6.049
 7056TIP3   OH221110   7.501   5.605   4.159
 7056TIP3    H121111   7.470   5.641   4.242
 7056TIP3    H221112   7.456   5.521   4.150
 7057TIP3   OH221113   6.370   5.542   3.443
 7057TIP3    H121114   6.349   5.451   3.466
 7057TIP3    H221115   6.329   5.594   3.513
 7058TIP3   OH221116   0.306   5.802   1.332
 7058TIP3    H121117   0.332   5.710   1.334
 7058TIP3    H221118   0.228   5.806   1.387
 7059TIP3   OH221119   5.615   5.075   5.196
 7059TIP3    H121120   5.639   5.068   5.288
 7059TIP3    H221121   5.681   5.133   5.158
 7060TIP3   OH221122   1.863   2.438   6.481
 7060TIP3    H121123   1.912   2.502   6.533
 7060TIP3    H221124   1.924   2.364   6.470
 7061TIP3   OH221125   3.913   0.992   3.104
 7061TIP3    H121126   3.933   1.001   3.197
 7061TIP3    H221127   3.994   1.017   3.060
 7062TIP3   OH221128   4.595   4.185   1.217
 7062TIP3    H121129   4.616   4.275   1.191
 7062TIP3    H221130   4.505   4.190   1.250
 7063TIP3   OH221131   1.696   0.206   2.762
 7063TIP3    H121132   1.727   0.115   2.764
 7063TIP3    H221133   1.669   0.225   2.851
 7064TIP3   OH221134   7.733   2.054   6.412
 7064TIP3    H121135   7.642   2.035   6.390
 7064TIP3    H221136   7.774   2.077   6.329
 7065TIP3   OH221137   8.165   0.697   1.330
 7065TIP3    H121138   8.236   0.711   1.268
 7065TIP3    H221139   8.134   0.785   1.352
 7066TIP3   OH221140   6.792   4.451   5.392
 7066TIP3    H121141   6.807   4.426   5.301
 7066TIP3    H221142   6.699   4.435   5.405
 7067TIP3   OH221143   7.068   7.530   4.589
 7067TIP3    H121144   7.156   7.542   4.626
 7067TIP3    H221145   7.038   7.619   4.570
 7068TIP3   OH221146   7.278   4.754   5.058
 7068TIP3    H121147   7.357   4.759   5.005
 7068TIP3    H221148   7.208   4.783   4.999
 7069TIP3   OH221149   4.563   5.555   2.810
 7069TIP3    H121150   4.531   5.530   2.723
 7069TIP3    H221151   4.540   5.648   2.818
 7070TIP3   OH221152   4.271   6.581   0.766
 7070TIP3    H121153   4.228   6.665   0.754
 7070TIP3    H221154   4.204   6.524   0.803
 7071TIP3   OH221155   1.972   4.076   2.444
 7071TIP3    H121156   1.977   4.058   2.351
 7071TIP3    H221157   1.940   4.166   2.449
 7072TIP3   OH221158   5.855   1.002   3.948
 7072TIP3    H121159   5.778   0.969   3.901
 7072TIP3    H221160   5.845   0.968   4.037
 7073TIP3   OH221161   4.383   0.654   1.883
 7073TIP3    H121162   4.295   0.635   1.914
 7073TIP3    H221163   4.410   0.575   1.836
 7074TIP3   OH221164   3.990   6.182   6.483
 7074TIP3    H121165   3.952   6.128   6.553
 7074TIP3    H221166   3.942   6.156   6.404
 7075TIP3   OH221167   3.207   2.369   3.419
 7075TIP3    H121168   3.255   2.351   3.500
 7075TIP3    H221169   3.125   2.410   3.448
 7076TIP3   OH221170   3.759   3.756   5.329
 7076TIP3    H121171   3.750   3.673   5.376
 7076TIP3    H221172   3.716   3.820   5.386
 7077TIP3   OH221173   5.538   7.384   5.852
 7077TIP3    H121174   5.469   7.418   5.794
 7077TIP3    H221175   5.548   7.293   5.824
 7078TIP3   OH221176   8.087   7.721   2.328
 7078TIP3    H121177   8.037   7.649   2.289
 7078TIP3    H221178   8.038   7.743   2.407
 7079TIP3   OH221179   1.947   1.032   3.584
 7079TIP3    H121180   1.935   1.104   3.522
 7079TIP3    H221181   1.859   0.996   3.595
 7080TIP3   OH221182   0.330   5.760   4.456
 7080TIP3    H121183   0.285   5.743   4.539
 7080TIP3    H221184   0.260   5.760   4.390
 7081TIP3   OH221185   3.817   6.639   5.539
 7081TIP3    H121186   3.780   6.652   5.626
 7081TIP3    H221187   3.903   6.599   5.555
 7082TIP3   OH221188   6.591   6.615   6.758
 7082TIP3    H121189   6.634   6.567   6.687
 7082TIP3    H221190   6.603   6.560   6.835
 7083TIP3   OH221191   1.585   2.441   2.981
 7083TIP3    H121192   1.511   2.416   3.036
 7083TIP3    H221193   1.646   2.368   2.989
 7084TIP3   OH221194   2.043   4.950   0.547
 7084TIP3    H121195   2.123   4.897   0.552
 7084TIP3    H221196   2.032   4.968   0.454
 7085TIP3   OH221197   5.304   3.669   2.194
 7085TIP3    H121198   5.303   3.637   2.284
 7085TIP3    H221199   5.393   3.704   2.183
 7086TIP3   OH221200   6.053   3.564   4.000
 7086TIP3    H121201   6.049   3.619   4.078
 7086TIP3    H221202   6.143   3.531   3.999
 7087TIP3   OH221203   8.005   3.024   1.947
 7087TIP3    H121204   7.928   3.081   1.945
 7087TIP3    H221205   7.969   2.935   1.940
 7088TIP3   OH221206   4.485   2.419   4.829
 7088TIP3    H121207   4.398   2.418   4.870
 7088TIP3    H221208   4.492   2.334   4.786
 7089TIP3   OH221209   1.323   1.129   4.017
 7089TIP3    H121210   1.242   1.105   3.972
 7089TIP3    H221211   1.330   1.067   4.089
 7090TIP3   OH221212   3.523   5.712   5.313
 7090TIP3    H121213   3.565   5.795   5.291
 7090TIP3    H221214   3.429   5.730   5.310
 7091TIP3   OH221215   2.583   3.515   1.992
 7091TIP3    H121216   2.581   3.540   1.899
 7091TIP3    H221217   2.665   3.468   2.002
 7092TIP3   OH221218   6.673   0.561   4.866
 7092TIP3    H121219   6.698   0.564   4.958
 7092TIP3    H221220   6.620   0.639   4.853
 7093TIP3   OH221221   4.810   4.317   4.356
 7093TIP3    H121222   4.831   4.243   4.297
 7093TIP3    H221223   4.777   4.275   4.435
 7094TIP3   OH221224   4.871   6.752   0.141
 7094TIP3    H121225   4.931   6.683   0.112
 7094TIP3    H221226   4.889   6.762   0.234
 7095TIP3   OH221227   3.794   7.459   1.348
 7095TIP3    H121228   3.817   7.534   1.403
 7095TIP3    H221229   3.722   7.491   1.293
 7096TIP3   OH221230   1.047   3.061   5.632
 7096TIP3    H121231   1.100   3.006   5.690
 7096TIP3    H221232   0.980   3.001   5.597
 7097TIP3   OH221233   3.793   7.510   2.627
 7097TIP3    H121234   3.865   7.572   2.640
 7097TIP3    H221235   3.753   7.537   2.544
 7098TIP3   OH221236   1.874   2.691   1.596
 7098TIP3    H121237   1.961   2.673   1.561
 7098TIP3    H221238   1.883   2.677   1.691
 7099TIP3   OH221239   5.178   2.030   1.886
 7099TIP3    H121240   5.258   2.021   1.938
 7099TIP3    H221241   5.117   2.077   1.943
 7100TIP3   OH221242   1.294   5.728   5.952
 7100TIP3    H121243   1.360   5.741   5.883
 7100TIP3    H221244   1.215   5.769   5.918
 7101TIP3   OH221245   5.550   0.355   0.101
 7101TIP3    H121246   5.539   0.450   0.101
 7101TIP3    H221247   5.470   0.321   0.061
 7102TIP3   OH221248   6.177   4.488   0.020
 7102TIP3    H121249   6.166   4.466  -0.073
 7102TIP3    H221250   6.090   4.514   0.049
 7103TIP3   OH221251   5.574   5.628   1.942
 7103TIP3    H121252   5.651   5.685   1.936
 7103TIP3    H221253   5.502   5.688   1.963
 7104TIP3   OH221254   1.417   0.746   3.503
 7104TIP3    H121255   1.471   0.668   3.520
 7104TIP3    H221256   1.391   0.777   3.589
 7105TIP3   OH221257   8.180   0.266   3.057
 7105TIP3    H121258   8.108   0.206   3.041
 7105TIP3    H221259   8.258   0.219   3.025
 7106TIP3   OH221260   5.895   2.436   0.116
 7106TIP3    H121261   5.859   2.399   0.036
 7106TIP3    H221262   5.980   2.392   0.127
 7107TIP3   OH221263   5.566   0.810   0.182
 7107TIP3    H121264   5.642   0.867   0.189
 7107TIP3    H221265   5.524   0.814   0.268
 7108TIP3   OH221266   1.155   3.600   0.057
 7108TIP3    H121267   1.227   3.647   0.016
 7108TIP3    H221268   1.173   3.607   0.151
 7109TIP3   OH221269   7.400   7.124   6.260
 7109TIP3    H121270   7.396   7.220   6.263
 7109TIP3    H221271   7.330   7.095   6.319
 7110TIP3   OH221272   0.382   5.829   4.177
 7110TIP3    H121273   0.325   5.906   4.182
 7110TIP3    H221274   0.375   5.789   4.264
 7111TIP3   OH221275   6.167   0.257   2.128
 7111TIP3    H121276   6.253   0.237   2.165
 7111TIP3    H221277   6.184   0.319   2.057
 7112TIP3   OH221278   1.491   1.937   4.660
 7112TIP3    H121279   1.470   1.998   4.731
 7112TIP3    H221280   1.561   1.980   4.611
 7113TIP3   OH221281   4.199   3.247   3.632
 7113TIP3    H121282   4.281   3.291   3.609
 7113TIP3    H221283   4.226   3.157   3.654
 7114TIP3   OH221284   5.667   2.965   5.899
 7114TIP3    H121285   5.750   3.004   5.874
 7114TIP3    H221286   5.691   2.883   5.943
 7115TIP3   OH221287   7.625   3.436   0.504
 7115TIP3    H121288   7.616   3.440   0.409
 7115TIP3    H221289   7.604   3.524   0.534
 7116TIP3   OH221290   7.153   1.160   1.898
 7116TIP3    H121291   7.078   1.143   1.841
 7116TIP3    H221292   7.170   1.077   1.942
 7117TIP3   OH221293   2.842   4.744   3.030
 7117TIP3    H121294   2.917   4.685   3.023
 7117TIP3    H221295   2.823   4.769   2.939
 7118TIP3   OH221296   6.471   5.243   4.105
 7118TIP3    H121297   6.483   5.184   4.030
 7118TIP3    H221298   6.522   5.320   4.082
 7119TIP3   OH221299   1.525   5.371   5.344
 7119TIP3    H121300   1.515   5.465   5.333
 7119TIP3    H221301   1.615   5.353   5.318
 7120TIP3   OH221302   1.208   7.439   3.240
 7120TIP3    H121303   1.120   7.403   3.246
 7120TIP3    H221304   1.257   7.399   3.311
 7121TIP3   OH221305   3.713   4.149   3.065
 7121TIP3    H121306   3.700   4.193   2.981
 7121TIP3    H221307   3.706   4.055   3.045
 7122TIP3   OH221308   1.420   4.350   0.169
 7122TIP3    H121309   1.369   4.394   0.102
 7122TIP3    H221310   1.466   4.421   0.214
 7123TIP3   OH221311   6.595   1.460   0.511
 7123TIP3    H121312   6.682   1.459   0.472
 7123TIP3    H221313   6.537   1.429   0.442
 7124TIP3   OH221314   5.122   1.870   4.125
 7124TIP3    H121315   5.064   1.858   4.049
 7124TIP3    H221316   5.165   1.785   4.135
 7125TIP3   OH221317   7.306   5.692   6.474
 7125TIP3    H121318   7.219   5.729   6.487
 7125TIP3    H221319   7.296   5.634   6.399
 7126TIP3   OH221320   5.848   0.894   5.183
 7126TIP3    H121321   5.780   0.883   5.249
 7126TIP3    H221322   5.817   0.843   5.108
 7127TIP3   OH221323   4.014   0.196   5.469
 7127TIP3    H121324   4.002   0.248   5.390
 7127TIP3    H221325   4.077   0.128   5.444
 7128TIP3   OH221326   3.160   0.951   2.040
 7128TIP3    H121327   3.141   0.961   1.946
 7128TIP3    H221328   3.099   1.010   2.083
 7129TIP3   OH221329   5.226   1.434   3.154
 7129TIP3    H121330   5.199   1.358   3.102
 7129TIP3    H221331   5.146   1.487   3.161
 7130TIP3   OH221332   6.240   6.593   1.757
 7130TIP3    H121333   6.237   6.665   1.819
 7130TIP3    H221334   6.179   6.617   1.688
 7131TIP3   OH221335   1.195   4.080   2.827
 7131TIP3    H121336   1.273   4.053   2.778
 7131TIP3    H221337   1.181   4.171   2.803
 7132TIP3   OH221338   4.606   4.350   2.893
 7132TIP3    H121339   4.582   4.442   2.889
 7132TIP3    H221340   4.570   4.319   2.976
 7133TIP3   OH221341   6.571   5.759   3.867
 7133TIP3    H121342   6.601   5.817   3.937
 7133TIP3    H221343   6.610   5.795   3.788
 7134TIP3   OH221344   4.736   4.814   0.256
 7134TIP3    H121345   4.778   4.739   0.216
 7134TIP3    H221346   4.644   4.788   0.266
 7135TIP3   OH221347   4.348   4.695   5.785
 7135TIP3    H121348   4.333   4.750   5.862
 7135TIP3    H221349   4.342   4.755   5.711
 7136TIP3   OH221350   6.121   1.422   1.627
 7136TIP3    H121351   6.190   1.475   1.668
 7136TIP3    H221352   6.169   1.355   1.578
 7137TIP3   OH221353   2.330   4.550   5.709
 7137TIP3    H121354   2.286   4.471   5.741
 7137TIP3    H221355   2.345   4.532   5.616
 7138TIP3   OH221356   3.619   4.861   5.227
 7138TIP3    H121357   3.614   4.955   5.212
 7138TIP3    H221358   3.529   4.836   5.248
 7139TIP3   OH221359   5.213   6.979   4.430
 7139TIP3    H121360   5.130   6.947   4.395
 7139TIP3    H221361   5.199   7.073   4.444
 7140TIP3   OH221362   5.700   4.498   4.177
 7140TIP3    H121363   5.629   4.545   4.134
 7140TIP3    H221364   5.670   4.484   4.266
 7141TIP3   OH221365   6.795   6.169   3.519
 7141TIP3    H121366   6.853   6.177   3.595
 7141TIP3    H221367   6.855   6.168   3.444
 7142TIP3   OH221368   3.759   2.992   3.052
 7142TIP3    H121369   3.757   3.087   3.056
 7142TIP3    H221370   3.711   2.963   3.129
 7143TIP3   OH221371   0.986   1.712   3.804
 7143TIP3    H121372   1.051   1.742   3.867
 7143TIP3    H221373   1.014   1.623   3.781
 7144TIP3   OH221374   0.897   5.025   2.309
 7144TIP3    H121375   0.981   5.064   2.334
 7144TIP3    H221376   0.848   5.096   2.268
 7145TIP3   OH221377   7.215   6.636   1.938
 7145TIP3    H121378   7.146   6.698   1.916
 7145TIP3    H221379   7.195   6.608   2.027
 7146TIP3   OH221380   0.870   5.771   0.393
 7146TIP3    H121381   0.952   5.763   0.441
 7146TIP3    H221382   0.813   5.820   0.451
 7147TIP3   OH221383   0.006   1.763   0.588
 7147TIP3    H121384  -0.068   1.776   0.647
 7147TIP3    H221385  -0.000   1.671   0.561
 7148TIP3   OH221386   7.516   0.026   2.388
 7148TIP3    H121387   7.506   0.112   2.348
 7148TIP3    H221388   7.575  -0.021   2.329
 7149TIP3   OH221389   3.820   7.101   2.120
 7149TIP3    H121390   3.875   7.098   2.041
 7149TIP3    H221391   3.846   7.182   2.163
 7150TIP3   OH221392   2.339   1.689   6.562
 7150TIP3    H121393   2.275   1.619   6.578
 7150TIP3    H221394   2.286   1.766   6.542
 7151TIP3   OH221395   6.639   6.856   0.469
 7151TIP3    H121396   6.625   6.853   0.564
 7151TIP3    H221397   6.733   6.841   0.458
 7152TIP3   OH221398   5.399   7.528   2.239
 7152TIP3    H121399   5.330   7.471   2.272
 7152TIP3    H221400   5.479   7.494   2.279
 7153TIP3   OH221401   6.082   6.788   3.075
 7153TIP3    H121402   6.066   6.802   2.981
 7153TIP3    H221403   6.115   6.698   3.080
 7154TIP3   OH221404   1.137   7.491   6.447
 7154TIP3    H121405   1.116   7.442   6.368
 7154TIP3    H221406   1.066   7.555   6.456
 7155TIP3   OH221407   1.934   4.597   3.093
 7155TIP3    H121408   1.952   4.663   3.026
 7155TIP3    H221409   1.875   4.642   3.155
 7156TIP3   OH221410   7.311   7.121   5.982
 7156TIP3    H121411   7.329   7.096   6.073
 7156TIP3    H221412   7.298   7.037   5.937
 7157TIP3   OH221413   0.629   6.317   1.983
 7157TIP3    H121414   0.667   6.229   1.984
 7157TIP3    H221415   0.666   6.358   1.905
 7158TIP3   OH221416   3.476   1.579   5.208
 7158TIP3    H121417   3.482   1.669   5.241
 7158TIP3    H221418   3.539   1.576   5.136
 7159TIP3   OH221419   6.953   2.661   3.510
 7159TIP3    H121420   7.015   2.733   3.519
 7159TIP3    H221421   6.953   2.619   3.596
 7160TIP3   OH221422   0.058   1.721   2.928
 7160TIP3    H121423   0.029   1.631   2.944
 7160TIP3    H221424   0.023   1.771   3.002
 7161TIP3   OH221425   2.437   7.734   3.875
 7161TIP3    H121426   2.522   7.700   3.904
 7161TIP3    H221427   2.413   7.798   3.942
 7162TIP3   OH221428   7.073   4.996   6.475
 7162TIP3    H121429   7.048   5.031   6.560
 7162TIP3    H221430   7.168   5.004   6.472
 7163TIP3   OH221431   2.485   4.793   5.809
 7163TIP3    H121432   2.562   4.788   5.866
 7163TIP3    H221433   2.484   4.709   5.763
 7164TIP3   OH221434   0.011   3.244   6.062
 7164TIP3    H121435  -0.021   3.160   6.030
 7164TIP3    H221436  -0.068   3.296   6.076
 7165TIP3   OH221437   7.813   5.837   3.112
 7165TIP3    H121438   7.768   5.843   3.028
 7165TIP3    H221439   7.802   5.923   3.152
 7166TIP3   OH221440   6.955   6.489   5.440
 7166TIP3    H121441   7.026   6.426   5.423
 7166TIP3    H221442   6.885   6.436   5.477
 7167TIP3   OH221443   6.100   4.483   3.100
 7167TIP3    H121444   6.021   4.478   3.046
 7167TIP3    H221445   6.150   4.405   3.076
 7168TIP3   OH221446   0.261   3.715   5.967
 7168TIP3    H121447   0.343   3.714   5.916
 7168TIP3    H221448   0.192   3.722   5.901
 7169TIP3   OH221449   2.545   2.944   1.279
 7169TIP3    H121450   2.608   2.992   1.333
 7169TIP3    H221451   2.494   2.892   1.341
 7170TIP3   OH221452   7.605   2.087   0.766
 7170TIP3    H121453   7.618   2.101   0.673
 7170TIP3    H221454   7.529   2.028   0.771
 7171TIP3   OH221455   1.068   4.889   2.038
 7171TIP3    H121456   1.131   4.900   1.967
 7171TIP3    H221457   1.092   4.956   2.102
 7172TIP3   OH221458   5.514   7.745   3.418
 7172TIP3    H121459   5.595   7.696   3.403
 7172TIP3    H221460   5.475   7.754   3.331
 7173TIP3   OH221461   4.147   3.661   3.897
 7173TIP3    H121462   4.188   3.647   3.982
 7173TIP3    H221463   4.143   3.574   3.857
 7174TIP3   OH221464   4.505   2.894   5.520
 7174TIP3    H121465   4.525   2.948   5.597
 7174TIP3    H221466   4.432   2.839   5.547
 7175TIP3   OH221467   8.250   2.325   1.579
 7175TIP3    H121468   8.170   2.276   1.560
 7175TIP3    H221469   8.309   2.306   1.506
 7176TIP3   OH221470   1.262   1.742   1.122
 7176TIP3    H121471   1.357   1.738   1.116
 7176TIP3    H221472   1.231   1.679   1.056
 7177TIP3   OH221473   4.480   6.354   1.231
 7177TIP3    H121474   4.446   6.360   1.142
 7177TIP3    H221475   4.485   6.260   1.249
 7178TIP3   OH221476   1.481   5.783   0.251
 7178TIP3    H121477   1.392   5.799   0.282
 7178TIP3    H221478   1.530   5.761   0.330
 7179TIP3   OH221479   0.356   2.225   4.082
 7179TIP3    H121480   0.298   2.203   4.154
 7179TIP3    H221481   0.310   2.195   4.003
 7180TIP3   OH221482   2.052   5.317   2.847
 7180TIP3    H121483   1.982   5.304   2.782
 7180TIP3    H221484   2.127   5.345   2.796
 7181TIP3   OH221485   7.271   1.413   4.306
 7181TIP3    H121486   7.286   1.434   4.214
 7181TIP3    H221487   7.358   1.417   4.345
 7182TIP3   OH221488   7.082   4.000   0.935
 7182TIP3    H121489   7.083   4.089   0.969
 7182TIP3    H221490   7.139   3.951   0.995
 7183TIP3   OH221491   6.378   3.727   3.852
 7183TIP3    H121492   6.436   3.678   3.911
 7183TIP3    H221493   6.413   3.709   3.764
 7184TIP3   OH221494   3.716   3.964   0.800
 7184TIP3    H121495   3.801   3.986   0.761
 7184TIP3    H221496   3.703   3.872   0.778
 7185TIP3   OH221497   2.589   0.751   1.251
 7185TIP3    H121498   2.512   0.728   1.303
 7185TIP3    H221499   2.610   0.671   1.202
 7186TIP3   OH221500   4.710   1.317   6.182
 7186TIP3    H121501   4.670   1.234   6.208
 7186TIP3    H221502   4.802   1.308   6.207
 7187TIP3   OH221503   4.510   5.090   0.798
 7187TIP3    H121504   4.479   5.001   0.817
 7187TIP3    H221505   4.583   5.077   0.738
 7188TIP3   OH221506   5.364   1.134   2.583
 7188TIP3    H121507   5.278   1.171   2.565
 7188TIP3    H221508   5.418   1.163   2.510
 7189TIP3   OH221509   7.732   0.143   1.165
 7189TIP3    H121510   7.768   0.206   1.103
 7189TIP3    H221511   7.644   0.124   1.131
 7190TIP3   OH221512   6.335   7.413   3.148
 7190TIP3    H121513   6.351   7.507   3.160
 7190TIP3    H221514   6.416   7.380   3.109
 7191TIP3   OH221515   3.988   2.247   6.723
 7191TIP3    H121516   4.050   2.208   6.785
 7191TIP3    H221517   3.980   2.182   6.653
 7192TIP3   OH221518   2.746   1.680   4.565
 7192TIP3    H121519   2.796   1.646   4.639
 7192TIP3    H221520   2.718   1.602   4.517
 7193TIP3   OH221521   4.565   2.799   2.841
 7193TIP3    H121522   4.562   2.751   2.759
 7193TIP3    H221523   4.515   2.879   2.824
 7194TIP3   OH221524   7.296   5.478   6.282
 7194TIP3    H121525   7.206   5.460   6.254
 7194TIP3    H221526   7.330   5.538   6.216
 7195TIP3   OH221527   1.320   6.983   6.023
 7195TIP3    H121528   1.234   6.975   6.063
 7195TIP3    H221529   1.307   6.957   5.932
 7196TIP3   OH221530   5.784   5.153   1.765
 7196TIP3    H121531   5.697   5.125   1.791
 7196TIP3    H221532   5.819   5.197   1.842
 7197TIP3   OH221533   7.292   5.014   0.557
 7197TIP3    H121534   7.226   5.083   0.556
 7197TIP3    H221535   7.357   5.044   0.621
 7198TIP3   OH221536   4.453   3.822   1.993
 7198TIP3    H121537   4.358   3.819   2.003
 7198TIP3    H221538   4.468   3.824   1.899
 7199TIP3   OH221539   6.098   0.478   3.776
 7199TIP3    H121540   6.039   0.541   3.818
 7199TIP3    H221541   6.162   0.532   3.729
 7200TIP3   OH221542   5.751   6.475   4.725
 7200TIP3    H121543   5.804   6.401   4.697
 7200TIP3    H221544   5.715   6.511   4.643
 7201TIP3   OH221545   5.966   1.284   4.819
 7201TIP3    H121546   5.876   1.311   4.839
 7201TIP3    H221547   5.974   1.197   4.859
 7202TIP3   OH221548   7.224   2.153   1.708
 7202TIP3    H121549   7.257   2.222   1.651
 7202TIP3    H221550   7.214   2.077   1.650
 7203TIP3   OH221551   5.510   2.672   2.101
 7203TIP3    H121552   5.563   2.721   2.038
 7203TIP3    H221553   5.559   2.590   2.113
 7204TIP3   OH221554   2.918   5.395   2.810
 7204TIP3    H121555   2.878   5.310   2.793
 7204TIP3    H221556   2.852   5.459   2.782
 7205TIP3   OH221557   3.582   4.813   1.199
 7205TIP3    H121558   3.600   4.906   1.185
 7205TIP3    H221559   3.528   4.810   1.278
 7206TIP3   OH221560   5.139   6.459   1.337
 7206TIP3    H121561   5.167   6.549   1.353
 7206TIP3    H221562   5.130   6.421   1.425
 7207TIP3   OH221563   5.479   5.847   5.445
 7207TIP3    H121564   5.516   5.854   5.357
 7207TIP3    H221565   5.554   5.857   5.504
 7208TIP3   OH221566   0.111   2.025   0.088
 7208TIP3    H121567   0.035   1.969   0.072
 7208TIP3    H221568   0.156   2.028   0.004
 7209TIP3   OH221569   2.479   4.741   0.501
 7209TIP3    H121570   2.399   4.759   0.453
 7209TIP3    H221571   2.532   4.688   0.441
 7210TIP3   OH221572   2.974   1.599   4.745
 7210TIP3    H121573   2.945   1.519   4.702
 7210TIP3    H221574   3.036   1.638   4.683
 7211TIP3   OH221575   3.235   5.397   6.429
 7211TIP3    H121576   3.234   5.320   6.486
 7211TIP3    H221577   3.321   5.394   6.386
 7212TIP3   OH221578   4.631   7.768   1.670
 7212TIP3    H121579   4.572   7.717   1.725
 7212TIP3    H221580   4.630   7.721   1.586
 7213TIP3   OH221581   5.239   5.423   0.271
 7213TIP3    H121582   5.178   5.389   0.205
 7213TIP3    H221583   5.317   5.448   0.221
 7214TIP3   OH221584   6.278   2.998   4.876
 7214TIP3    H121585   6.311   3.045   4.800
 7214TIP3    H221586   6.209   2.941   4.842
 7215TIP3   OH221587   1.493   0.422   0.867
 7215TIP3    H121588   1.453   0.338   0.890
 7215TIP3    H221589   1.419   0.479   0.847
 7216TIP3   OH221590   2.391   6.216   5.694
 7216TIP3    H121591   2.401   6.310   5.676
 7216TIP3    H221592   2.447   6.201   5.771
 7217TIP3   OH221593   3.340   7.255   6.646
 7217TIP3    H121594   3.382   7.174   6.616
 7217TIP3    H221595   3.246   7.236   6.644
 7218TIP3   OH221596   2.085   0.391   4.444
 7218TIP3    H121597   1.993   0.366   4.440
 7218TIP3    H221598   2.121   0.363   4.360
 7219TIP3   OH221599   2.099   5.721   3.861
 7219TIP3    H121600   2.117   5.693   3.951
 7219TIP3    H221601   2.183   5.716   3.817
 7220TIP3   OH221602   7.477   2.207   1.221
 7220TIP3    H121603   7.429   2.133   1.184
 7220TIP3    H221604   7.566   2.173   1.233
 7221TIP3   OH221605   6.389   5.725   0.664
 7221TIP3    H121606   6.475   5.767   0.654
 7221TIP3    H221607   6.330   5.779   0.612
 7222TIP3   OH221608   2.835   2.707   4.998
 7222TIP3    H121609   2.866   2.745   4.915
 7222TIP3    H221610   2.862   2.770   5.065
 7223TIP3   OH221611   5.552   0.210   4.123
 7223TIP3    H121612   5.592   0.159   4.192
 7223TIP3    H221613   5.621   0.269   4.093
 7224TIP3   OH221614   4.072   6.876   6.210
 7224TIP3    H121615   4.086   6.817   6.284
 7224TIP3    H221616   4.020   6.825   6.148
 7225TIP3   OH221617   1.046   2.049   5.842
 7225TIP3    H121618   1.078   1.959   5.849
 7225TIP3    H221619   0.951   2.041   5.854
 7226TIP3   OH221620   5.520   2.580   3.335
 7226TIP3    H121621   5.529   2.514   3.404
 7226TIP3    H221622   5.499   2.531   3.256
 7227TIP3   OH221623   2.144   4.413   6.276
 7227TIP3    H121624   2.076   4.346   6.285
 7227TIP3    H221625   2.214   4.383   6.334
 7228TIP3   OH221626   3.789   1.093   0.047
 7228TIP3    H121627   3.727   1.140  -0.008
 7228TIP3    H221628   3.743   1.012   0.071
 7229TIP3   OH221629   3.070   6.449   1.345
 7229TIP3    H121630   3.055   6.358   1.317
 7229TIP3    H221631   3.165   6.455   1.354
 7230TIP3   OH221632   3.512   2.030   4.731
 7230TIP3    H121633   3.421   2.031   4.700
 7230TIP3    H221634   3.563   2.063   4.656
 7231TIP3   OH221635   2.587   1.837   2.409
 7231TIP3    H121636   2.610   1.903   2.474
 7231TIP3    H221637   2.602   1.753   2.453
 7232TIP3   OH221638   7.560   0.808   2.052
 7232TIP3    H121639   7.495   0.857   2.102
 7232TIP3    H221640   7.570   0.857   1.970
 7233TIP3   OH221641   1.946   7.763   1.362
 7233TIP3    H121642   1.991   7.747   1.444
 7233TIP3    H221643   1.984   7.845   1.329
 7234TIP3   OH221644   7.831   5.854   6.727
 7234TIP3    H121645   7.830   5.950   6.719
 7234TIP3    H221646   7.859   5.824   6.640
 7235TIP3   OH221647   1.957   3.012   5.534
 7235TIP3    H121648   1.889   3.040   5.595
 7235TIP3    H221649   1.914   3.011   5.449
 7236TIP3   OH221650   5.029   2.419   6.475
 7236TIP3    H121651   4.965   2.396   6.542
 7236TIP3    H221652   5.096   2.468   6.521
 7237TIP3   OH221653   1.801   6.118   4.061
 7237TIP3    H121654   1.782   6.037   4.108
 7237TIP3    H221655   1.743   6.183   4.100
 7238TIP3   OH221656   7.770   6.689   0.562
 7238TIP3    H121657   7.778   6.635   0.640
 7238TIP3    H221658   7.848   6.746   0.564
 7239TIP3   OH221659   5.604   7.029   6.316
 7239TIP3    H121660   5.560   7.058   6.396
 7239TIP3    H221661   5.565   7.083   6.247
 7240TIP3   OH221662   3.385   3.903   4.665
 7240TIP3    H121663   3.354   3.937   4.581
 7240TIP3    H221664   3.385   3.979   4.724
 7241TIP3   OH221665   0.001   0.215   1.868
 7241TIP3    H121666   0.083   0.167   1.875
 7241TIP3    H221667  -0.007   0.234   1.774
 7242TIP3   OH221668   5.282   2.302   5.183
 7242TIP3    H121669   5.251   2.327   5.271
 7242TIP3    H221670   5.348   2.368   5.162
 7243TIP3   OH221671   1.873   1.577   1.961
 7243TIP3    H121672   1.843   1.502   1.909
 7243TIP3    H221673   1.897   1.539   2.045
 7244TIP3   OH221674   2.990   2.902   1.865
 7244TIP3    H121675   3.056   2.838   1.839
 7244TIP3    H221676   2.921   2.851   1.907
 7245TIP3   OH221677   1.191   6.705   5.706
 7245TIP3    H121678   1.208   6.749   5.622
 7245TIP3    H221679   1.106   6.664   5.694
 7246TIP3   OH221680   0.296   1.424   5.534
 7246TIP3    H121681   0.247   1.348   5.504
 7246TIP3    H221682   0.346   1.452   5.457
 7247TIP3   OH221683   6.289   1.344   4.014
 7247TIP3    H121684   6.256   1.362   3.926
 7247TIP3    H221685   6.370   1.394   4.020
 7248TIP3   OH221686   3.887   6.503   2.730
 7248TIP3    H121687   3.809   6.533   2.776
 7248TIP3    H221688   3.854   6.466   2.648
 7249TIP3   OH221689   5.150   5.777   3.667
 7249TIP3    H121690   5.120   5.740   3.584
 7249TIP3    H221691   5.229   5.728   3.687
 7250TIP3   OH221692   3.761   6.874   5.042
 7250TIP3    H121693   3.757   6.877   5.138
 7250TIP3    H221694   3.679   6.831   5.017
 7251TIP3   OH221695   4.633   7.524   5.772
 7251TIP3    H121696   4.671   7.540   5.858
 7251TIP3    H221697   4.702   7.480   5.723
 7252TIP3   OH221698   6.976   5.705   5.732
 7252TIP3    H121699   7.059   5.741   5.700
 7252TIP3    H221700   6.995   5.678   5.822
 7253TIP3   OH221701   0.617   4.685   1.956
 7253TIP3    H121702   0.671   4.751   1.999
 7253TIP3    H221703   0.675   4.647   1.889
 7254TIP3   OH221704   1.563   0.216   1.075
 7254TIP3    H121705   1.497   0.152   1.046
 7254TIP3    H221706   1.647   0.172   1.059
 7255TIP3   OH221707   7.797   0.374   4.221
 7255TIP3    H121708   7.774   0.467   4.222
 7255TIP3    H221709   7.892   0.372   4.234
 7256TIP3   OH221710   4.780   1.661   1.138
 7256TIP3    H121711   4.706   1.716   1.165
 7256TIP3    H221712   4.767   1.646   1.045
 7257TIP3   OH221713   4.730   7.344   4.782
 7257TIP3    H121714   4.758   7.435   4.797
 7257TIP3    H221715   4.768   7.295   4.855
 7258TIP3   OH221716   0.916   6.195   4.089
 7258TIP3    H121717   0.974   6.148   4.149
 7258TIP3    H221718   0.928   6.153   4.005
 7259TIP3   OH221719   5.137   5.380   2.842
 7259TIP3    H121720   5.121   5.473   2.857
 7259TIP3    H221721   5.186   5.377   2.760
 7260TIP3   OH221722   0.861   0.078   5.525
 7260TIP3    H121723   0.820   0.103   5.442
 7260TIP3    H221724   0.955   0.082   5.507
 7261TIP3   OH221725   6.256   1.711   4.058
 7261TIP3    H121726   6.213   1.783   4.105
 7261TIP3    H221727   6.294   1.657   4.127
 7262TIP3   OH221728   4.140   4.059   0.847
 7262TIP3    H121729   4.060   4.035   0.799
 7262TIP3    H221730   4.134   4.154   0.856
 7263TIP3   OH221731   4.638   6.877   6.300
 7263TIP3    H121732   4.714   6.830   6.333
 7263TIP3    H221733   4.562   6.829   6.333
 7264TIP3   OH221734   0.442   5.734   5.023
 7264TIP3    H121735   0.466   5.679   5.098
 7264TIP3    H221736   0.456   5.824   5.053
 7265TIP3   OH221737   8.003   7.106   3.046
 7265TIP3    H121738   8.009   7.168   3.119
 7265TIP3    H221739   8.032   7.023   3.083
 7266TIP3   OH221740   1.996   2.245   5.299
 7266TIP3    H121741   1.931   2.306   5.334
 7266TIP3    H221742   2.079   2.291   5.305
 7267TIP3   OH221743   5.208   3.361   6.338
 7267TIP3    H121744   5.124   3.320   6.359
 7267TIP3    H221745   5.190   3.412   6.259
 7268TIP3   OH221746   6.183   6.641   4.724
 7268TIP3    H121747   6.131   6.711   4.685
 7268TIP3    H221748   6.119   6.578   4.756
 7269TIP3   OH221749   0.238   4.243   6.695
 7269TIP3    H121750   0.157   4.258   6.743
 7269TIP3    H221751   0.308   4.256   6.760
 7270TIP3   OH221752   0.226   7.253   6.620
 7270TIP3    H121753   0.167   7.300   6.560
 7270TIP3    H221754   0.288   7.320   6.649
 7271TIP3   OH221755   7.124   7.501   2.527
 7271TIP3    H121756   7.032   7.522   2.513
 7271TIP3    H221757   7.126   7.406   2.536
 7272TIP3   OH221758   5.254   5.136   1.795
 7272TIP3    H121759   5.238   5.153   1.888
 7272TIP3    H221760   5.199   5.061   1.774
 7273TIP3   OH221761   7.747   5.659   0.683
 7273TIP3    H121762   7.665   5.708   0.677
 7273TIP3    H221763   7.761   5.646   0.777
 7274TIP3   OH221764   0.163   5.433   0.343
 7274TIP3    H121765   0.098   5.489   0.386
 7274TIP3    H221766   0.243   5.485   0.343
 7275TIP3   OH221767   3.196   0.301   4.444
 7275TIP3    H121768   3.234   0.372   4.497
 7275TIP3    H221769   3.187   0.228   4.505
 7276TIP3   OH221770   6.845   4.507   1.516
 7276TIP3    H121771   6.768   4.550   1.480
 7276TIP3    H221772   6.834   4.415   1.494
 7277TIP3   OH221773   7.416   5.664   6.105
 7277TIP3    H121774   7.394   5.641   6.015
 7277TIP3    H221775   7.448   5.755   6.099
 7278TIP3   OH221776   6.417   2.492   1.991
 7278TIP3    H121777   6.435   2.408   2.032
 7278TIP3    H221778   6.358   2.472   1.919
 7279TIP3   OH221779   4.805   1.066   1.763
 7279TIP3    H121780   4.866   0.998   1.734
 7279TIP3    H221781   4.749   1.081   1.687
 7280TIP3   OH221782   5.511   7.743   4.625
 7280TIP3    H121783   5.605   7.732   4.639
 7280TIP3    H221784   5.502   7.833   4.594
 7281TIP3   OH221785   2.178   6.715   0.173
 7281TIP3    H121786   2.154   6.804   0.199
 7281TIP3    H221787   2.261   6.725   0.127
 7282TIP3   OH221788   2.073   6.309   3.736
 7282TIP3    H121789   2.032   6.375   3.681
 7282TIP3    H221790   2.167   6.319   3.720
 7283TIP3   OH221791   1.685   0.606   0.015
 7283TIP3    H121792   1.627   0.603   0.091
 7283TIP3    H221793   1.692   0.699  -0.005
 7284TIP3   OH221794   3.071   6.726   3.994
 7284TIP3    H121795   3.147   6.749   4.047
 7284TIP3    H221796   3.036   6.647   4.035
 7285TIP3   OH221797   5.191   1.582   2.885
 7285TIP3    H121798   5.225   1.620   2.966
 7285TIP3    H221799   5.257   1.601   2.819
 7286TIP3   OH221800   5.443   0.725   4.946
 7286TIP3    H121801   5.350   0.737   4.926
 7286TIP3    H221802   5.451   0.752   5.038
 7287TIP3   OH221803   1.328   3.752   0.882
 7287TIP3    H121804   1.255   3.764   0.944
 7287TIP3    H221805   1.368   3.669   0.908
 7288TIP3   OH221806   6.397   0.275   0.813
 7288TIP3    H121807   6.477   0.271   0.865
 7288TIP3    H221808   6.392   0.366   0.784
 7289TIP3   OH221809   7.855   7.366   1.899
 7289TIP3    H121810   7.917   7.439   1.901
 7289TIP3    H221811   7.854   7.332   1.988
 7290TIP3   OH221812   4.670   0.373   3.867
 7290TIP3    H121813   4.714   0.343   3.787
 7290TIP3    H221814   4.660   0.295   3.920
 7291TIP3   OH221815   6.156   3.257   5.970
 7291TIP3    H121816   6.216   3.250   5.896
 7291TIP3    H221817   6.111   3.172   5.973
 7292TIP3   OH221818   7.421   5.786   2.174
 7292TIP3    H121819   7.429   5.866   2.123
 7292TIP3    H221820   7.379   5.724   2.114
 7293TIP3   OH221821   3.858   7.342   4.050
 7293TIP3    H121822   3.949   7.329   4.076
 7293TIP3    H221823   3.861   7.351   3.955
 7294TIP3   OH221824   2.072   1.701   5.250
 7294TIP3    H121825   2.063   1.746   5.166
 7294TIP3    H221826   2.040   1.765   5.315
 7295TIP3   OH221827   0.600   4.231   0.834
 7295TIP3    H121828   0.603   4.266   0.745
 7295TIP3    H221829   0.666   4.282   0.882
 7296TIP3   OH221830   0.366   1.743   4.657
 7296TIP3    H121831   0.295   1.807   4.669
 7296TIP3    H221832   0.359   1.686   4.734
 7297TIP3   OH221833   4.760   0.045   2.064
 7297TIP3    H121834   4.725  -0.040   2.091
 7297TIP3    H221835   4.851   0.044   2.093
 7298TIP3   OH221836   3.169   0.789   0.178
 7298TIP3    H121837   3.154   0.881   0.160
 7298TIP3    H221838   3.238   0.788   0.245
 7299TIP3   OH221839   6.771   6.422   4.222
 7299TIP3    H121840   6.834   6.350   4.228
 7299TIP3    H221841   6.740   6.434   4.311
 7300TIP3   OH221842   3.364   0.239   6.764
 7300TIP3    H121843   3.390   0.215   6.675
 7300TIP3    H221844   3.270   0.260   6.756
 7301TIP3   OH221845   0.365   0.367   0.683
 7301TIP3    H121846   0.290   0.416   0.649
 7301TIP3    H221847   0.431   0.373   0.614
 7302TIP3   OH221848   0.908   2.895   1.209
 7302TIP3    H121849   0.952   2.963   1.259
 7302TIP3    H221850   0.896   2.823   1.271
 7303TIP3   OH221851   3.465   3.764   1.354
 7303TIP3    H121852   3.476   3.767   1.449
 7303TIP3    H221853   3.534   3.706   1.323
 7304TIP3   OH221854   4.585   5.108   4.468
 7304TIP3    H121855   4.569   5.202   4.466
 7304TIP3    H221856   4.537   5.077   4.545
 7305TIP3   OH221857   5.132   6.799   0.530
 7305TIP3    H121858   5.059   6.826   0.586
 7305TIP3    H221859   5.182   6.738   0.584
 7306TIP3   OH221860   5.538   0.310   5.978
 7306TIP3    H121861   5.483   0.378   6.017
 7306TIP3    H221862   5.563   0.345   5.893
 7307TIP3   OH221863   4.351   6.838   2.282
 7307TIP3    H121864   4.267   6.793   2.276
 7307TIP3    H221865   4.375   6.857   2.191
 7308TIP3   OH221866   0.723   3.503   5.369
 7308TIP3    H121867   0.672   3.544   5.440
 7308TIP3    H221868   0.737   3.413   5.399
 7309TIP3   OH221869   6.147   5.172   3.827
 7309TIP3    H121870   6.072   5.178   3.768
 7309TIP3    H221871   6.119   5.218   3.906
 7310TIP3   OH221872   3.515   6.191   6.010
 7310TIP3    H121873   3.581   6.153   5.952
 7310TIP3    H221874   3.527   6.146   6.094
 7311TIP3   OH221875   4.878   3.170   3.206
 7311TIP3    H121876   4.947   3.221   3.163
 7311TIP3    H221877   4.917   3.140   3.288
 7312TIP3   OH221878   7.408   2.621   1.447
 7312TIP3    H121879   7.502   2.613   1.432
 7312TIP3    H221880   7.378   2.530   1.458
 7313TIP3   OH221881   8.043   2.090   2.457
 7313TIP3    H121882   8.125   2.139   2.451
 7313TIP3    H221883   8.071   1.999   2.465
 7314TIP3   OH221884   0.558   3.432   2.072
 7314TIP3    H121885   0.515   3.370   2.014
 7314TIP3    H221886   0.536   3.401   2.160
 7315TIP3   OH221887   7.623   5.211   5.468
 7315TIP3    H121888   7.601   5.295   5.509
 7315TIP3    H221889   7.700   5.181   5.515
 7316TIP3   OH221890   3.635   5.245   4.174
 7316TIP3    H121891   3.713   5.198   4.204
 7316TIP3    H221892   3.670   5.325   4.134
 7317TIP3   OH221893   3.809   4.699   3.268
 7317TIP3    H121894   3.881   4.695   3.205
 7317TIP3    H221895   3.732   4.718   3.216
 7318TIP3   OH221896   7.232   0.328   3.185
 7318TIP3    H121897   7.221   0.421   3.206
 7318TIP3    H221898   7.218   0.323   3.091
 7319TIP3   OH221899   3.581   6.056   2.509
 7319TIP3    H121900   3.616   6.056   2.598
 7319TIP3    H221901   3.586   6.148   2.481
 7320TIP3   OH221902   0.752   2.740   5.020
 7320TIP3    H121903   0.764   2.650   5.049
 7320TIP3    H221904   0.657   2.753   5.025
 7321TIP3   OH221905   4.754   7.494   6.275
 7321TIP3    H121906   4.706   7.432   6.330
 7321TIP3    H221907   4.749   7.577   6.321
 7322TIP3   OH221908   5.741   7.607   3.374
 7322TIP3    H121909   5.812   7.662   3.341
 7322TIP3    H221910   5.785   7.541   3.427
 7323TIP3   OH221911   7.875   6.486   0.758
 7323TIP3    H121912   7.890   6.406   0.809
 7323TIP3    H221913   7.782   6.482   0.734
 7324TIP3   OH221914   1.127   2.082   0.550
 7324TIP3    H121915   1.206   2.040   0.583
 7324TIP3    H221916   1.079   2.110   0.628
 7325TIP3   OH221917   5.557   0.078   1.785
 7325TIP3    H121918   5.648   0.050   1.792
 7325TIP3    H221919   5.555   0.166   1.823
 7326TIP3   OH221920   0.923   4.040   0.253
 7326TIP3    H121921   0.897   4.051   0.162
 7326TIP3    H221922   0.869   4.103   0.301
 7327TIP3   OH221923   2.282   6.270   6.622
 7327TIP3    H121924   2.279   6.243   6.714
 7327TIP3    H221925   2.232   6.203   6.576
 7328TIP3   OH221926   7.966   3.577   1.274
 7328TIP3    H121927   7.892   3.517   1.271
 7328TIP3    H221928   7.984   3.588   1.367
 7329TIP3   OH221929   1.119   6.917   6.209
 7329TIP3    H121930   1.078   6.838   6.176
 7329TIP3    H221931   1.078   6.931   6.295
 7330TIP3   OH221932   3.390   3.720   3.897
 7330TIP3    H121933   3.400   3.793   3.836
 7330TIP3    H221934   3.395   3.761   3.983
 7331TIP3   OH221935   5.925   5.549   5.075
 7331TIP3    H121936   5.904   5.571   4.985
 7331TIP3    H221937   6.006   5.497   5.068
 7332TIP3   OH221938   8.276   1.467   2.982
 7332TIP3    H121939   8.244   1.387   3.023
 7332TIP3    H221940   8.297   1.441   2.892
 7333TIP3   OH221941   5.825   3.967   0.194
 7333TIP3    H121942   5.884   4.017   0.250
 7333TIP3    H221943   5.829   4.011   0.109
 7334TIP3   OH221944   4.378   4.420   1.292
 7334TIP3    H121945   4.311   4.357   1.265
 7334TIP3    H221946   4.388   4.406   1.386
 7335TIP3   OH221947   5.208   3.708   4.725
 7335TIP3    H121948   5.260   3.628   4.724
 7335TIP3    H221949   5.268   3.777   4.698
 7336TIP3   OH221950   7.703   7.513   4.887
 7336TIP3    H121951   7.661   7.499   4.972
 7336TIP3    H221952   7.791   7.478   4.897
 7337TIP3   OH221953   1.362   4.659   1.289
 7337TIP3    H121954   1.304   4.608   1.232
 7337TIP3    H221955   1.432   4.688   1.231
 7338TIP3   OH221956   3.411   2.082   4.436
 7338TIP3    H121957   3.473   2.144   4.475
 7338TIP3    H221958   3.325   2.111   4.467
 7339TIP3   OH221959   0.413   1.203   2.426
 7339TIP3    H121960   0.472   1.263   2.381
 7339TIP3    H221961   0.406   1.128   2.367
 7340TIP3   OH221962   6.342   4.522   3.461
 7340TIP3    H121963   6.271   4.500   3.521
 7340TIP3    H221964   6.300   4.568   3.389
 7341TIP3   OH221965   6.638   3.895   4.940
 7341TIP3    H121966   6.578   3.959   4.977
 7341TIP3    H221967   6.654   3.833   5.011
 7342TIP3   OH221968   4.627   4.069   6.574
 7342TIP3    H121969   4.547   4.019   6.556
 7342TIP3    H221970   4.595   4.154   6.605
 7343TIP3   OH221971   1.661   3.609   0.384
 7343TIP3    H121972   1.620   3.594   0.299
 7343TIP3    H221973   1.673   3.521   0.421
 7344TIP3   OH221974   0.041   7.313   1.084
 7344TIP3    H121975   0.042   7.250   1.012
 7344TIP3    H221976  -0.048   7.347   1.085
 7345TIP3   OH221977   3.092   1.694   3.357
 7345TIP3    H121978   3.131   1.781   3.358
 7345TIP3    H221979   3.077   1.673   3.449
 7346TIP3   OH221980   2.479   1.045   5.879
 7346TIP3    H121981   2.456   1.137   5.877
 7346TIP3    H221982   2.460   1.013   5.791
 7347TIP3   OH221983   4.980   1.838   0.295
 7347TIP3    H121984   5.037   1.896   0.245
 7347TIP3    H221985   4.905   1.824   0.238
 7348TIP3   OH221986   4.666   4.616   1.294
 7348TIP3    H121987   4.588   4.669   1.279
 7348TIP3    H221988   4.668   4.555   1.221
 7349TIP3   OH221989   1.452   6.204   3.864
 7349TIP3    H121990   1.424   6.280   3.915
 7349TIP3    H221991   1.451   6.235   3.773
 7350TIP3   OH221992   7.233   0.373   6.643
 7350TIP3    H121993   7.313   0.355   6.594
 7350TIP3    H221994   7.184   0.433   6.587
 7351TIP3   OH221995   6.632   0.953   0.451
 7351TIP3    H121996   6.614   1.016   0.520
 7351TIP3    H221997   6.645   1.006   0.372
 7352TIP3   OH221998   7.818   3.549   6.750
 7352TIP3    H121999   7.829   3.585   6.662
 7352TIP3    H222000   7.733   3.581   6.778
 7353TIP3   OH222001   0.179   3.378   0.283
 7353TIP3    H122002   0.251   3.405   0.226
 7353TIP3    H222003   0.108   3.439   0.262
 7354TIP3   OH222004   4.492   3.251   3.005
 7354TIP3    H122005   4.567   3.193   3.014
 7354TIP3    H222006   4.416   3.193   3.011
 7355TIP3   OH222007   3.152   2.742   4.664
 7355TIP3    H122008   3.160   2.787   4.579
 7355TIP3    H222009   3.087   2.674   4.649
 7356TIP3   OH222010   0.609   6.030   1.116
 7356TIP3    H122011   0.521   5.994   1.111
 7356TIP3    H222012   0.620   6.081   1.036
 7357TIP3   OH222013   5.541   7.791   0.755
 7357TIP3    H122014   5.633   7.808   0.774
 7357TIP3    H222015   5.519   7.716   0.811
 7358TIP3   OH222016   1.611   2.545   6.634
 7358TIP3    H122017   1.661   2.573   6.557
 7358TIP3    H222018   1.580   2.457   6.612
 7359TIP3   OH222019   3.113   6.532   2.848
 7359TIP3    H122020   3.166   6.478   2.907
 7359TIP3    H222021   3.101   6.478   2.770
 7360TIP3   OH222022   2.575   7.442   6.288
 7360TIP3    H122023   2.629   7.459   6.211
 7360TIP3    H222024   2.549   7.529   6.320
 7361TIP3   OH222025   0.969   0.457   3.387
 7361TIP3    H122026   1.001   0.368   3.373
 7361TIP3    H222027   1.048   0.509   3.403
 7362TIP3   OH222028   3.976   0.101   3.956
 7362TIP3    H122029   4.010   0.159   4.025
 7362TIP3    H222030   3.985   0.151   3.876
 7363TIP3   OH222031   1.375   0.702   4.117
 7363TIP3    H122032   1.358   0.789   4.153
 7363TIP3    H222033   1.459   0.712   4.071
 7364TIP3   OH222034   1.274   3.071   2.120
 7364TIP3    H122035   1.261   3.017   2.198
 7364TIP3    H222036   1.363   3.050   2.090
 7365TIP3   OH222037   4.187   1.690   3.522
 7365TIP3    H122038   4.124   1.682   3.450
 7365TIP3    H222039   4.218   1.780   3.516
 7366TIP3   OH222040   7.031   1.563   2.556
 7366TIP3    H122041   7.106   1.557   2.496
 7366TIP3    H222042   7.004   1.472   2.569
 7367TIP3   OH222043   3.310   2.264   1.522
 7367TIP3    H122044   3.240   2.269   1.588
 7367TIP3    H222045   3.349   2.178   1.535
 7368TIP3   OH222046   2.667   0.468   3.213
 7368TIP3    H122047   2.650   0.447   3.305
 7368TIP3    H222048   2.744   0.415   3.191
 7369TIP3   OH222049   1.791   2.451   3.896
 7369TIP3    H122050   1.827   2.501   3.823
 7369TIP3    H222051   1.698   2.444   3.876
 7370TIP3   OH222052   7.112   3.994   1.892
 7370TIP3    H122053   7.080   3.904   1.898
 7370TIP3    H222054   7.179   4.001   1.959
 7371TIP3   OH222055   1.460   5.959   4.848
 7371TIP3    H122056   1.505   5.919   4.923
 7371TIP3    H222057   1.378   5.993   4.885
 7372TIP3   OH222058   0.542   3.972   0.718
 7372TIP3    H122059   0.611   3.973   0.652
 7372TIP3    H222060   0.513   4.063   0.725
 7373TIP3   OH222061   8.010   6.979   0.051
 7373TIP3    H122062   7.971   6.905   0.004
 7373TIP3    H222063   8.098   6.987   0.014
 7374TIP3   OH222064   1.646   0.142   1.689
 7374TIP3    H122065   1.735   0.125   1.659
 7374TIP3    H222066   1.603   0.186   1.616
 7375TIP3   OH222067   7.059   3.050   5.918
 7375TIP3    H122068   7.062   2.956   5.936
 7375TIP3    H222069   7.143   3.083   5.950
 7376TIP3   OH222070   7.032   5.345   0.406
 7376TIP3    H122071   6.991   5.407   0.345
 7376TIP3    H222072   7.126   5.362   0.397
 7377TIP3   OH222073   4.331   0.236   6.641
 7377TIP3    H122074   4.332   0.329   6.620
 7377TIP3    H222075   4.238   0.215   6.649
 7378TIP3   OH222076   0.686   1.152   0.981
 7378TIP3    H122077   0.757   1.197   1.027
 7378TIP3    H222078   0.731   1.090   0.923
 7379TIP3   OH222079   3.126   6.570   5.175
 7379TIP3    H122080   3.125   6.585   5.270
 7379TIP3    H222081   3.128   6.475   5.165
 7380TIP3   OH222082   3.153   3.423   4.559
 7380TIP3    H122083   3.059   3.407   4.567
 7380TIP3    H222084   3.167   3.508   4.600
 7381TIP3   OH222085   0.934   2.014   2.489
 7381TIP3    H122086   0.983   1.968   2.420
 7381TIP3    H222087   0.964   2.105   2.483
 7382TIP3   OH222088   3.896   3.727   4.028
 7382TIP3    H122089   3.907   3.665   4.100
 7382TIP3    H222090   3.960   3.700   3.963
 7383TIP3   OH222091   7.553   4.728   3.975
 7383TIP3    H122092   7.597   4.658   3.926
 7383TIP3    H222093   7.505   4.777   3.908
 7384TIP3   OH222094   3.107   6.688   1.765
 7384TIP3    H122095   3.143   6.771   1.795
 7384TIP3    H222096   3.129   6.626   1.834
 7385TIP3   OH222097   7.119   4.597   0.944
 7385TIP3    H122098   7.085   4.584   0.855
 7385TIP3    H222099   7.175   4.521   0.960
 7386TIP3   OH222100   5.134   0.616   1.246
 7386TIP3    H122101   5.101   0.553   1.182
 7386TIP3    H222102   5.144   0.566   1.327
 7387TIP3   OH222103   1.939   1.258   4.894
 7387TIP3    H122104   1.953   1.164   4.885
 7387TIP3    H222105   1.895   1.268   4.978
 7388TIP3   OH222106   7.553   7.643   4.313
 7388TIP3    H122107   7.564   7.738   4.302
 7388TIP3    H222108   7.634   7.616   4.357
 7389TIP3   OH222109   1.482   0.644   1.632
 7389TIP3    H122110   1.506   0.713   1.694
 7389TIP3    H222111   1.388   0.656   1.620
 7390TIP3   OH222112   1.098   5.032   0.872
 7390TIP3    H122113   1.068   5.064   0.957
 7390TIP3    H222114   1.131   4.944   0.890
 7391TIP3   OH222115   2.643   2.922   3.781
 7391TIP3    H122116   2.558   2.958   3.754
 7391TIP3    H222117   2.706   2.958   3.719
 7392TIP3   OH222118   7.545   3.626   4.615
 7392TIP3    H122119   7.570   3.708   4.573
 7392TIP3    H222120   7.450   3.623   4.607
 7393TIP3   OH222121   5.195   7.524   6.302
 7393TIP3    H122122   5.120   7.469   6.281
 7393TIP3    H222123   5.253   7.466   6.352
 7394TIP3   OH222124   7.374   3.882   2.476
 7394TIP3    H122125   7.465   3.910   2.463
 7394TIP3    H222126   7.323   3.963   2.471
 7395TIP3   OH222127   7.259   3.550   4.607
 7395TIP3    H122128   7.200   3.616   4.643
 7395TIP3    H222129   7.202   3.493   4.555
 7396TIP3   OH222130   2.546   6.284   4.217
 7396TIP3    H122131   2.596   6.222   4.269
 7396TIP3    H222132   2.474   6.311   4.274
 7397TIP3   OH222133   6.388   1.655   4.471
 7397TIP3    H122134   6.351   1.567   4.458
 7397TIP3    H222135   6.439   1.647   4.552
 7398TIP3   OH222136   7.000   6.810   6.014
 7398TIP3    H122137   6.996   6.872   6.087
 7398TIP3    H222138   6.909   6.793   5.991
 7399TIP3   OH222139   3.893   5.310   3.915
 7399TIP3    H122140   3.881   5.308   3.820
 7399TIP3    H222141   3.868   5.222   3.944
 7400TIP3   OH222142   4.561   2.602   1.702
 7400TIP3    H122143   4.533   2.675   1.646
 7400TIP3    H222144   4.653   2.587   1.677
 7401TIP3   OH222145   5.660   0.475   0.668
 7401TIP3    H122146   5.748   0.507   0.690
 7401TIP3    H222147   5.634   0.423   0.744
 7402TIP3   OH222148   4.922   3.992   3.712
 7402TIP3    H122149   4.999   3.962   3.664
 7402TIP3    H222150   4.930   3.953   3.799
 7403TIP3   OH222151   6.884   5.668   6.505
 7403TIP3    H122152   6.789   5.671   6.502
 7403TIP3    H222153   6.906   5.577   6.484
 7404TIP3   OH222154   1.354   6.116   5.869
 7404TIP3    H122155   1.349   6.091   5.777
 7404TIP3    H222156   1.339   6.210   5.869
 7405TIP3   OH222157   7.450   7.344   0.308
 7405TIP3    H122158   7.456   7.395   0.389
 7405TIP3    H222159   7.403   7.265   0.332
 7406TIP3   OH222160   6.308   4.505   6.141
 7406TIP3    H122161   6.282   4.503   6.049
 7406TIP3    H222162   6.330   4.414   6.162
 7407TIP3   OH222163   6.273   1.804   6.354
 7407TIP3    H122164   6.215   1.815   6.278
 7407TIP3    H222165   6.222   1.838   6.428
 7408TIP3   OH222166   2.010  -0.002   0.712
 7408TIP3    H122167   2.066   0.073   0.694
 7408TIP3    H222168   2.025  -0.022   0.804
 7409TIP3   OH222169   6.220   6.492   5.309
 7409TIP3    H122170   6.226   6.534   5.223
 7409TIP3    H222171   6.213   6.399   5.290
 7410TIP3   OH222172   2.145   0.476   2.957
 7410TIP3    H122173   2.116   0.425   3.033
 7410TIP3    H222174   2.077   0.462   2.891
 7411TIP3   OH222175   4.411   7.151   4.978
 7411TIP3    H122176   4.334   7.097   4.995
 7411TIP3    H222177   4.439   7.180   5.065
 7412TIP3   OH222178   7.502   6.056   4.004
 7412TIP3    H122179   7.446   6.131   4.026
 7412TIP3    H222180   7.442   5.986   3.981
 7413TIP3   OH222181   1.457   3.985   4.085
 7413TIP3    H122182   1.392   3.926   4.125
 7413TIP3    H222183   1.404   4.057   4.050
 7414TIP3   OH222184   3.255   0.204   2.513
 7414TIP3    H122185   3.203   0.278   2.484
 7414TIP3    H222186   3.260   0.145   2.438
 7415TIP3   OH222187   2.012   6.048   3.211
 7415TIP3    H122188   1.953   6.093   3.150
 7415TIP3    H222189   1.998   5.955   3.192
 7416TIP3   OH222190   6.127   7.070   2.656
 7416TIP3    H122191   6.082   6.993   2.690
 7416TIP3    H222192   6.192   7.091   2.723
 7417TIP3   OH222193   0.443   4.232   0.197
 7417TIP3    H122194   0.475   4.258   0.110
 7417TIP3    H222195   0.359   4.190   0.180
 7418TIP3   OH222196   4.441   5.224   3.865
 7418TIP3    H122197   4.416   5.262   3.781
 7418TIP3    H222198   4.365   5.172   3.891
 7419TIP3   OH222199   0.245   2.333   6.698
 7419TIP3    H122200   0.285   2.246   6.693
 7419TIP3    H222201   0.316   2.393   6.673
 7420TIP3   OH222202   0.917   7.079   2.550
 7420TIP3    H122203   0.941   7.169   2.575
 7420TIP3    H222204   0.970   7.061   2.473
 7421TIP3   OH222205   5.522   4.182   3.566
 7421TIP3    H122206   5.497   4.100   3.524
 7421TIP3    H222207   5.540   4.158   3.657
 7422TIP3   OH222208   7.241   3.246   0.739
 7422TIP3    H122209   7.146   3.246   0.742
 7422TIP3    H222210   7.265   3.338   0.754
 7423TIP3   OH222211   3.372   1.849   5.261
 7423TIP3    H122212   3.420   1.928   5.289
 7423TIP3    H222213   3.328   1.818   5.340
 7424TIP3   OH222214   0.760   7.044   4.174
 7424TIP3    H122215   0.836   7.008   4.219
 7424TIP3    H222216   0.717   7.101   4.238
 7425TIP3   OH222217   8.264   1.525   5.433
 7425TIP3    H122218   8.309   1.601   5.398
 7425TIP3    H222219   8.291   1.453   5.377
 7426TIP3   OH222220   4.803   6.176   3.493
 7426TIP3    H122221   4.738   6.204   3.558
 7426TIP3    H222222   4.844   6.098   3.532
 7427TIP3   OH222223   1.532   5.780   1.942
 7427TIP3    H122224   1.578   5.850   1.896
 7427TIP3    H222225   1.586   5.702   1.928
 7428TIP3   OH222226   2.610   1.862   3.809
 7428TIP3    H122227   2.693   1.895   3.776
 7428TIP3    H222228   2.579   1.802   3.741
 7429TIP3   OH222229   1.413   7.060   3.595
 7429TIP3    H122230   1.320   7.061   3.572
 7429TIP3    H222231   1.415   7.029   3.686
 7430TIP3   OH222232   5.251   1.435   0.153
 7430TIP3    H122233   5.181   1.463   0.213
 7430TIP3    H222234   5.240   1.340   0.146
 7431TIP3   OH222235   1.685   5.253   0.613
 7431TIP3    H122236   1.688   5.157   0.610
 7431TIP3    H222237   1.665   5.279   0.523
 7432TIP3   OH222238   5.271   1.416   5.781
 7432TIP3    H122239   5.326   1.430   5.704
 7432TIP3    H222240   5.199   1.361   5.749
 7433TIP3   OH222241   2.474   0.363   6.552
 7433TIP3    H122242   2.458   0.415   6.474
 7433TIP3    H222243   2.499   0.428   6.619
 7434TIP3   OH222244   2.411   7.371   6.597
 7434TIP3    H122245   2.504   7.361   6.576
 7434TIP3    H222246   2.378   7.281   6.604
 7435TIP3   OH222247   8.053   3.465   3.994
 7435TIP3    H122248   8.044   3.538   4.055
 7435TIP3    H222249   8.147   3.450   3.989
 7436TIP3   OH222250   2.710   3.920   4.545
 7436TIP3    H122251   2.795   3.909   4.503
 7436TIP3    H222252   2.685   4.011   4.525
 7437TIP3   OH222253   4.124   5.451   3.914
 7437TIP3    H122254   4.034   5.419   3.909
 7437TIP3    H222255   4.165   5.398   3.982
 7438TIP3   OH222256   2.513   7.172   3.418
 7438TIP3    H122257   2.558   7.172   3.334
 7438TIP3    H222258   2.522   7.262   3.451
 7439TIP3   OH222259   5.797   4.301   0.270
 7439TIP3    H122260   5.721   4.336   0.223
 7439TIP3    H222261   5.813   4.363   0.341
 7440TIP3   OH222262   1.227   3.925   5.274
 7440TIP3    H122263   1.133   3.919   5.253
 7440TIP3    H222264   1.260   3.836   5.262
 7441TIP3   OH222265   7.405   3.240   0.529
 7441TIP3    H122266   7.485   3.290   0.546
 7441TIP3    H222267   7.376   3.211   0.616
 7442TIP3   OH222268   7.386   0.810   4.390
 7442TIP3    H122269   7.320   0.872   4.359
 7442TIP3    H222270   7.350   0.724   4.370
 7443TIP3   OH222271   3.531   3.517   2.477
 7443TIP3    H122272   3.561   3.598   2.518
 7443TIP3    H222273   3.544   3.449   2.544
 7444TIP3   OH222274   6.939   3.704   1.092
 7444TIP3    H122275   6.927   3.782   1.145
 7444TIP3    H222276   6.902   3.726   1.007
 7445TIP3   OH222277   7.171   6.001   3.824
 7445TIP3    H122278   7.123   5.965   3.900
 7445TIP3    H222279   7.245   5.942   3.813
 7446TIP3   OH222280   5.420   1.937   5.421
 7446TIP3    H122281   5.360   2.000   5.462
 7446TIP3    H222282   5.473   1.991   5.362
 7447TIP3   OH222283   5.924   5.515   1.750
 7447TIP3    H122284   5.910   5.537   1.842
 7447TIP3    H222285   6.017   5.497   1.743
 7448TIP3   OH222286   2.702   5.368   4.652
 7448TIP3    H122287   2.751   5.290   4.678
 7448TIP3    H222288   2.726   5.383   4.561
 7449TIP3   OH222289   5.188   4.479   0.348
 7449TIP3    H122290   5.104   4.467   0.304
 7449TIP3    H222291   5.166   4.498   0.439
 7450TIP3   OH222292   0.889   5.349   3.592
 7450TIP3    H122293   0.960   5.315   3.538
 7450TIP3    H222294   0.878   5.283   3.661
 7451TIP3   OH222295   5.996   7.472   3.957
 7451TIP3    H122296   5.926   7.475   3.892
 7451TIP3    H222297   6.075   7.497   3.908
 7452TIP3   OH222298   3.675   0.024   5.826
 7452TIP3    H122299   3.629   0.098   5.786
 7452TIP3    H222300   3.767   0.051   5.826
 7453TIP3   OH222301   1.431   5.063   3.072
 7453TIP3    H122302   1.484   5.141   3.059
 7453TIP3    H222303   1.460   5.028   3.157
 7454TIP3   OH222304   3.974   4.417   1.894
 7454TIP3    H122305   3.881   4.402   1.912
 7454TIP3    H222306   3.976   4.496   1.840
 7455TIP3   OH222307   0.100   3.588   1.012
 7455TIP3    H122308   0.123   3.646   1.085
 7455TIP3    H222309   0.005   3.574   1.021
 7456TIP3   OH222310   6.869   7.417   0.725
 7456TIP3    H122311   6.824   7.354   0.782
 7456TIP3    H222312   6.830   7.501   0.747
 7457TIP3   OH222313   3.001   0.015   0.829
 7457TIP3    H122314   3.051   0.061   0.762
 7457TIP3    H222315   3.065  -0.004   0.898
 7458TIP3   OH222316   6.987   2.345   5.489
 7458TIP3    H122317   6.965   2.380   5.575
 7458TIP3    H222318   7.083   2.351   5.485
 7459TIP3   OH222319   4.529   0.723   6.246
 7459TIP3    H122320   4.569   0.759   6.167
 7459TIP3    H222321   4.533   0.628   6.233
 7460TIP3   OH222322   3.495   5.701   6.634
 7460TIP3    H122323   3.421   5.712   6.694
 7460TIP3    H222324   3.494   5.780   6.580
 7461TIP3   OH222325   0.331   5.020   5.078
 7461TIP3    H122326   0.352   5.081   5.149
 7461TIP3    H222327   0.252   5.055   5.038
 7462TIP3   OH222328   7.851   0.500   1.453
 7462TIP3    H122329   7.845   0.564   1.382
 7462TIP3    H222330   7.877   0.551   1.529
 7463TIP3   OH222331   4.784   6.174   1.063
 7463TIP3    H122332   4.717   6.232   1.028
 7463TIP3    H222333   4.848   6.232   1.104
 7464TIP3   OH222334   6.673   0.093   3.309
 7464TIP3    H122335   6.648   0.180   3.276
 7464TIP3    H222336   6.767   0.100   3.325
 7465TIP3   OH222337   0.285   7.398   5.435
 7465TIP3    H122338   0.252   7.308   5.444
 7465TIP3    H222339   0.364   7.390   5.383
 7466TIP3   OH222340   3.386   2.938   1.167
 7466TIP3    H122341   3.373   2.855   1.121
 7466TIP3    H222342   3.396   2.912   1.259
 7467TIP3   OH222343   7.403   0.111   1.235
 7467TIP3    H122344   7.456   0.153   1.167
 7467TIP3    H222345   7.439   0.144   1.317
 7468TIP3   OH222346   2.905   5.260   2.068
 7468TIP3    H122347   2.909   5.193   1.999
 7468TIP3    H222348   2.834   5.231   2.125
 7469TIP3   OH222349   4.115   2.137   0.191
 7469TIP3    H122350   4.209   2.153   0.194
 7469TIP3    H222351   4.094   2.137   0.097
 7470TIP3   OH222352   7.140   1.337   3.103
 7470TIP3    H122353   7.091   1.418   3.115
 7470TIP3    H222354   7.230   1.365   3.085
 7471TIP3   OH222355   5.025   3.800   2.845
 7471TIP3    H122356   5.065   3.865   2.786
 7471TIP3    H222357   4.966   3.852   2.900
 7472TIP3   OH222358   5.906   1.320   5.103
 7472TIP3    H122359   5.887   1.395   5.046
 7472TIP3    H222360   5.947   1.358   5.180
 7473TIP3   OH222361   6.679   0.658   5.369
 7473TIP3    H122362   6.723   0.604   5.435
 7473TIP3    H222363   6.640   0.730   5.420
 7474TIP3   OH222364   5.407   7.473   2.611
 7474TIP3    H122365   5.362   7.478   2.696
 7474TIP3    H222366   5.337   7.453   2.549
 7475TIP3   OH222367   2.785   2.394   5.263
 7475TIP3    H122368   2.759   2.479   5.298
 7475TIP3    H222369   2.783   2.405   5.168
 7476TIP3   OH222370   2.839   0.500   4.817
 7476TIP3    H122371   2.932   0.510   4.795
 7476TIP3    H222372   2.792   0.528   4.738
 7477TIP3   OH222373   6.016   4.980   2.070
 7477TIP3    H122374   6.087   5.003   2.010
 7477TIP3    H222375   5.965   4.915   2.021
 7478TIP3   OH222376   1.682   7.089   3.831
 7478TIP3    H122377   1.626   7.163   3.808
 7478TIP3    H222378   1.739   7.078   3.755
 7479TIP3   OH222379   2.166   5.723   5.889
 7479TIP3    H122380   2.087   5.720   5.834
 7479TIP3    H222381   2.216   5.645   5.863
 7480TIP3   OH222382   6.419   7.051   2.026
 7480TIP3    H122383   6.410   7.139   1.990
 7480TIP3    H222384   6.390   7.059   2.117
 7481TIP3   OH222385   2.757   3.097   2.230
 7481TIP3    H122386   2.742   3.186   2.261
 7481TIP3    H222387   2.726   3.042   2.302
 7482TIP3   OH222388   0.852   7.502   2.570
 7482TIP3    H122389   0.905   7.576   2.598
 7482TIP3    H222390   0.762   7.535   2.572
 7483TIP3   OH222391   6.385   1.572   0.914
 7483TIP3    H122392   6.299   1.538   0.888
 7483TIP3    H222393   6.385   1.662   0.882
 7484TIP3   OH222394   4.497   2.878   4.447
 7484TIP3    H122395   4.449   2.812   4.498
 7484TIP3    H222396   4.574   2.831   4.414
 7485TIP3   OH222397   1.242   3.202   1.574
 7485TIP3    H122398   1.198   3.153   1.644
 7485TIP3    H222399   1.251   3.291   1.609
 7486TIP3   OH222400   2.461   2.983   2.297
 7486TIP3    H122401   2.490   3.056   2.243
 7486TIP3    H222402   2.517   2.986   2.375
 7487TIP3   OH222403   3.457   3.472   6.202
 7487TIP3    H122404   3.430   3.477   6.111
 7487TIP3    H222405   3.387   3.423   6.246
 7488TIP3   OH222406   4.545   0.703   4.548
 7488TIP3    H122407   4.556   0.611   4.571
 7488TIP3    H222408   4.629   0.728   4.509
 7489TIP3   OH222409   5.075   2.960   2.039
 7489TIP3    H122410   5.053   2.882   1.987
 7489TIP3    H222411   5.095   2.926   2.126
 7490TIP3   OH222412   3.221   0.079   4.597
 7490TIP3    H122413   3.269   0.006   4.560
 7490TIP3    H222414   3.285   0.126   4.650
 7491TIP3   OH222415   4.864   1.100   6.677
 7491TIP3    H122416   4.940   1.063   6.632
 7491TIP3    H222417   4.901   1.154   6.747
 7492TIP3   OH222418   4.061   0.649   2.881
 7492TIP3    H122419   4.031   0.638   2.971
 7492TIP3    H222420   4.001   0.595   2.829
 7493TIP3   OH222421   3.033   4.912   2.870
 7493TIP3    H122422   3.009   4.933   2.961
 7493TIP3    H222423   3.103   4.848   2.878
 7494TIP3   OH222424   4.458   1.131   6.321
 7494TIP3    H122425   4.543   1.087   6.319
 7494TIP3    H222426   4.436   1.138   6.414
 7495TIP3   OH222427   3.226   6.518   4.745
 7495TIP3    H122428   3.185   6.582   4.802
 7495TIP3    H222429   3.319   6.521   4.768
 7496TIP3   OH222430   2.179   1.427   1.967
 7496TIP3    H122431   2.194   1.443   1.874
 7496TIP3    H222432   2.173   1.515   2.005
 7497TIP3   OH222433   3.540   4.713   1.889
 7497TIP3    H122434   3.603   4.760   1.944
 7497TIP3    H222435   3.594   4.668   1.824
 7498TIP3   OH222436   4.001   6.661   0.565
 7498TIP3    H122437   4.037   6.589   0.513
 7498TIP3    H222438   3.968   6.723   0.501
 7499TIP3   OH222439   7.396   4.576   4.185
 7499TIP3    H122440   7.461   4.632   4.142
 7499TIP3    H222441   7.446   4.502   4.219
 7500TIP3   OH222442   5.188   7.621   6.052
 7500TIP3    H122443   5.237   7.702   6.064
 7500TIP3    H222444   5.206   7.570   6.132
 7501TIP3   OH222445   8.025   2.217   1.262
 7501TIP3    H122446   8.025   2.202   1.356
 7501TIP3    H222447   8.117   2.210   1.237
 7502TIP3   OH222448   6.766   3.558   3.775
 7502TIP3    H122449   6.833   3.579   3.840
 7502TIP3    H222450   6.765   3.634   3.716
 7503TIP3   OH222451   5.693   3.519   2.753
 7503TIP3    H122452   5.746   3.441   2.764
 7503TIP3    H222453   5.644   3.504   2.672
 7504TIP3   OH222454   1.920   1.353   2.927
 7504TIP3    H122455   1.868   1.325   3.002
 7504TIP3    H222456   1.939   1.271   2.881
 7505TIP3   OH222457   7.675   5.004   2.260
 7505TIP3    H122458   7.695   4.913   2.283
 7505TIP3    H222459   7.628   5.039   2.336
 7506TIP3   OH222460   0.477   0.665   3.546
 7506TIP3    H122461   0.433   0.588   3.510
 7506TIP3    H222462   0.502   0.639   3.635
 7507TIP3   OH222463   7.196   3.761   3.352
 7507TIP3    H122464   7.181   3.706   3.430
 7507TIP3    H222465   7.287   3.745   3.329
 7508TIP3   OH222466   7.526   6.507   3.948
 7508TIP3    H122467   7.456   6.572   3.960
 7508TIP3    H222468   7.551   6.517   3.856
 7509TIP3   OH222469   5.244   0.495   0.166
 7509TIP3    H122470   5.176   0.561   0.182
 7509TIP3    H222471   5.212   0.417   0.211
 7510TIP3   OH222472   5.471   6.801   0.807
 7510TIP3    H122473   5.549   6.762   0.767
 7510TIP3    H222474   5.449   6.875   0.750
 7511TIP3   OH222475   8.256   3.545   0.277
 7511TIP3    H122476   8.183   3.493   0.311
 7511TIP3    H222477   8.214   3.620   0.235
 7512TIP3   OH222478   5.195   1.670   3.576
 7512TIP3    H122479   5.199   1.740   3.511
 7512TIP3    H222480   5.119   1.693   3.630
 7513TIP3   OH222481   6.752   4.913   3.810
 7513TIP3    H122482   6.819   4.974   3.779
 7513TIP3    H222483   6.802   4.844   3.854
 7514TIP3   OH222484   4.062   1.840   6.363
 7514TIP3    H122485   4.133   1.777   6.349
 7514TIP3    H222486   3.982   1.788   6.355
 7515TIP3   OH222487   3.550   4.379   0.933
 7515TIP3    H122488   3.514   4.467   0.938
 7515TIP3    H222489   3.606   4.371   1.010
 7516TIP3   OH222490   0.429   2.137   0.303
 7516TIP3    H122491   0.511   2.126   0.255
 7516TIP3    H222492   0.409   2.049   0.337
 7517TIP3   OH222493   6.375   6.189   1.514
 7517TIP3    H122494   6.456   6.183   1.565
 7517TIP3    H222495   6.325   6.111   1.537
 7518TIP3   OH222496   0.550   4.751   2.512
 7518TIP3    H122497   0.565   4.798   2.430
 7518TIP3    H222498   0.626   4.771   2.565
 7519TIP3   OH222499   4.854   2.153   4.753
 7519TIP3    H122500   4.922   2.176   4.816
 7519TIP3    H222501   4.858   2.221   4.686
 7520TIP3   OH222502   0.611   6.587   2.112
 7520TIP3    H122503   0.617   6.517   2.048
 7520TIP3    H222504   0.666   6.657   2.077
 7521TIP3   OH222505   5.076   4.706   6.400
 7521TIP3    H122506   5.118   4.619   6.396
 7521TIP3    H222507   5.071   4.733   6.308
 7522TIP3   OH222508   3.922   6.485   6.216
 7522TIP3    H122509   3.936   6.468   6.309
 7522TIP3    H222510   3.827   6.479   6.205
 7523TIP3   OH222511   4.448   6.811   4.912
 7523TIP3    H122512   4.484   6.762   4.986
 7523TIP3    H222513   4.438   6.900   4.944
 7524TIP3   OH222514   7.238   5.264   6.457
 7524TIP3    H122515   7.271   5.345   6.418
 7524TIP3    H222516   7.265   5.195   6.397
 7525TIP3   OH222517   1.829   1.260   6.500
 7525TIP3    H122518   1.775   1.238   6.425
 7525TIP3    H222519   1.826   1.355   6.507
 7526TIP3   OH222520   3.285   3.751   3.373
 7526TIP3    H122521   3.340   3.685   3.331
 7526TIP3    H222522   3.329   3.770   3.456
 7527TIP3   OH222523   1.838   5.136   5.983
 7527TIP3    H122524   1.751   5.169   6.005
 7527TIP3    H222525   1.898   5.201   6.019
 7528TIP3   OH222526   4.752   5.256   1.720
 7528TIP3    H122527   4.834   5.301   1.701
 7528TIP3    H222528   4.686   5.325   1.720
 7529TIP3   OH222529   7.722   7.318   2.668
 7529TIP3    H122530   7.684   7.247   2.615
 7529TIP3    H222531   7.659   7.390   2.661
 7530TIP3   OH222532   0.330   1.290   4.702
 7530TIP3    H122533   0.328   1.205   4.747
 7530TIP3    H222534   0.259   1.340   4.743
 7531TIP3   OH222535   7.599   7.602   5.630
 7531TIP3    H122536   7.558   7.688   5.621
 7531TIP3    H222537   7.602   7.586   5.724
 7532TIP3   OH222538   5.157   4.451   6.372
 7532TIP3    H122539   5.071   4.414   6.390
 7532TIP3    H222540   5.191   4.397   6.301
 7533TIP3   OH222541   2.687   2.333   1.475
 7533TIP3    H122542   2.614   2.393   1.459
 7533TIP3    H222543   2.752   2.356   1.408
 7534TIP3   OH222544   6.075   6.614   4.417
 7534TIP3    H122545   6.046   6.604   4.327
 7534TIP3    H222546   5.998   6.648   4.464
 7535TIP3   OH222547   0.798   4.772   5.248
 7535TIP3    H122548   0.857   4.746   5.177
 7535TIP3    H222549   0.815   4.865   5.261
 7536TIP3   OH222550   3.355   6.164   0.120
 7536TIP3    H122551   3.430   6.110   0.096
 7536TIP3    H222552   3.387   6.254   0.115
 7537TIP3   OH222553   3.900   7.166   4.330
 7537TIP3    H122554   3.973   7.228   4.325
 7537TIP3    H222555   3.874   7.167   4.422
 7538TIP3   OH222556   0.636   5.754   2.726
 7538TIP3    H122557   0.689   5.790   2.655
 7538TIP3    H222558   0.586   5.828   2.759
 7539TIP3   OH222559   5.126   4.640   3.936
 7539TIP3    H122560   5.042   4.659   3.977
 7539TIP3    H222561   5.116   4.552   3.900
 7540TIP3   OH222562   7.371   0.639   0.782
 7540TIP3    H122563   7.351   0.677   0.697
 7540TIP3    H222564   7.362   0.545   0.769
 7541TIP3   OH222565   1.489   0.649   5.710
 7541TIP3    H122566   1.467   0.663   5.802
 7541TIP3    H222567   1.419   0.694   5.662
 7542TIP3   OH222568   3.781   2.651   1.987
 7542TIP3    H122569   3.836   2.687   1.918
 7542TIP3    H222570   3.801   2.558   1.989
 7543TIP3   OH222571   5.174   4.391   0.866
 7543TIP3    H122572   5.081   4.374   0.853
 7543TIP3    H222573   5.177   4.456   0.936
 7544TIP3   OH222574   8.279   5.916   4.065
 7544TIP3    H122575   8.197   5.945   4.026
 7544TIP3    H222576   8.347   5.957   4.013
 7545TIP3   OH222577   3.077   6.390   2.617
 7545TIP3    H122578   3.020   6.461   2.588
 7545TIP3    H222579   3.048   6.314   2.568
 7546TIP3   OH222580   1.165   1.535   0.951
 7546TIP3    H122581   1.164   1.440   0.944
 7546TIP3    H222582   1.196   1.565   0.866
 7547TIP3   OH222583   1.590   2.312   1.758
 7547TIP3    H122584   1.645   2.382   1.723
 7547TIP3    H222585   1.625   2.232   1.720
 7548TIP3   OH222586   2.403   1.232   1.585
 7548TIP3    H122587   2.339   1.204   1.520
 7548TIP3    H222588   2.398   1.166   1.654
 7549TIP3   OH222589   4.384   2.166   2.955
 7549TIP3    H122590   4.457   2.135   2.901
 7549TIP3    H222591   4.409   2.255   2.979
 7550TIP3   OH222592   5.249   7.778   4.970
 7550TIP3    H122593   5.186   7.747   4.905
 7550TIP3    H222594   5.198   7.790   5.049
 7551TIP3   OH222595   1.658   4.855   2.159
 7551TIP3    H122596   1.588   4.920   2.167
 7551TIP3    H222597   1.730   4.902   2.120
 7552TIP3   OH222598   0.378   2.872   0.748
 7552TIP3    H122599   0.369   2.841   0.838
 7552TIP3    H222600   0.293   2.857   0.708
 7553TIP3   OH222601   7.515   1.318   6.240
 7553TIP3    H122602   7.460   1.251   6.281
 7553TIP3    H222603   7.552   1.366   6.314
 7554TIP3   OH222604   2.846   4.833   3.900
 7554TIP3    H122605   2.755   4.845   3.874
 7554TIP3    H222606   2.890   4.914   3.873
 7555TIP3   OH222607   1.875   5.270   2.242
 7555TIP3    H122608   1.922   5.352   2.223
 7555TIP3    H222609   1.801   5.297   2.296
 7556TIP3   OH222610   2.318   3.567   1.653
 7556TIP3    H122611   2.314   3.504   1.724
 7556TIP3    H222612   2.397   3.618   1.670
 7557TIP3   OH222613   1.290   2.574   5.542
 7557TIP3    H122614   1.213   2.619   5.509
 7557TIP3    H222615   1.256   2.495   5.584
 7558TIP3   OH222616   4.988   6.946   4.625
 7558TIP3    H122617   4.913   6.989   4.664
 7558TIP3    H222618   5.063   6.975   4.677
 7559TIP3   OH222619   0.693   0.063   6.436
 7559TIP3    H122620   0.650   0.005   6.499
 7559TIP3    H222621   0.678   0.151   6.470
 7560TIP3   OH222622   6.069   3.900   3.450
 7560TIP3    H122623   6.036   3.962   3.515
 7560TIP3    H222624   6.004   3.830   3.448
 7561TIP3   OH222625   4.473   7.308   4.129
 7561TIP3    H122626   4.516   7.373   4.073
 7561TIP3    H222627   4.529   7.302   4.207
 7562TIP3   OH222628   5.011   6.625   3.806
 7562TIP3    H122629   5.056   6.544   3.781
 7562TIP3    H222630   5.060   6.694   3.761
 7563TIP3   OH222631   1.592   7.674   5.460
 7563TIP3    H122632   1.623   7.609   5.397
 7563TIP3    H222633   1.621   7.641   5.545
 7564TIP3   OH222634   6.639   5.710   5.582
 7564TIP3    H122635   6.692   5.782   5.548
 7564TIP3    H222636   6.636   5.725   5.676
 7565TIP3   OH222637   8.237   0.084   4.242
 7565TIP3    H122638   8.294   0.067   4.317
 7565TIP3    H222639   8.256   0.013   4.181
 7566TIP3   OH222640   0.163   3.660   2.355
 7566TIP3    H122641   0.210   3.577   2.363
 7566TIP3    H222642   0.214   3.711   2.292
 7567TIP3   OH222643   2.307   7.458   3.045
 7567TIP3    H122644   2.373   7.488   3.107
 7567TIP3    H222645   2.227   7.447   3.097
 7568TIP3   OH222646   7.777   0.336   0.465
 7568TIP3    H122647   7.784   0.298   0.552
 7568TIP3    H222648   7.696   0.387   0.468
 7569TIP3   OH222649   2.261   4.663   4.076
 7569TIP3    H122650   2.236   4.755   4.064
 7569TIP3    H222651   2.239   4.645   4.168
 7570TIP3   OH222652   0.871   5.371   5.740
 7570TIP3    H122653   0.845   5.417   5.661
 7570TIP3    H222654   0.816   5.292   5.742
 7571TIP3   OH222655   2.887   0.260   2.849
 7571TIP3    H122656   2.834   0.188   2.814
 7571TIP3    H222657   2.975   0.241   2.818
 7572TIP3   OH222658   4.294   0.145   4.615
 7572TIP3    H122659   4.258   0.233   4.607
 7572TIP3    H222660   4.241   0.092   4.556
 7573TIP3   OH222661   8.190   6.189   0.523
 7573TIP3    H122662   8.241   6.166   0.601
 7573TIP3    H222663   8.245   6.161   0.449
 7574TIP3   OH222664   0.593   7.492   3.433
 7574TIP3    H122665   0.631   7.516   3.349
 7574TIP3    H222666   0.527   7.427   3.411
 7575TIP3   OH222667   7.500   0.378   5.520
 7575TIP3    H122668   7.587   0.393   5.483
 7575TIP3    H222669   7.499   0.430   5.600
 7576TIP3   OH222670   7.096   1.656   0.767
 7576TIP3    H122671   7.074   1.706   0.688
 7576TIP3    H222672   7.043   1.696   0.836
 7577TIP3   OH222673   7.611   4.005   2.481
 7577TIP3    H122674   7.679   3.939   2.492
 7577TIP3    H222675   7.654   4.076   2.433
 7578TIP3   OH222676   2.861   0.476   0.602
 7578TIP3    H122677   2.801   0.427   0.546
 7578TIP3    H222678   2.883   0.554   0.551
 7579TIP3   OH222679   3.141   2.230   0.216
 7579TIP3    H122680   3.232   2.258   0.214
 7579TIP3    H222681   3.096   2.297   0.268
 7580TIP3   OH222682   4.184   4.697   0.051
 7580TIP3    H122683   4.200   4.761  -0.018
 7580TIP3    H222684   4.254   4.633   0.041
 7581TIP3   OH222685   3.102   2.201   1.706
 7581TIP3    H122686   3.172   2.147   1.743
 7581TIP3    H222687   3.024   2.146   1.709
 7582TIP3   OH222688   2.972   2.819   4.283
 7582TIP3    H122689   3.015   2.850   4.363
 7582TIP3    H222690   3.040   2.821   4.216
 7583TIP3   OH222691   6.450   6.329   1.162
 7583TIP3    H122692   6.465   6.408   1.110
 7583TIP3    H222693   6.377   6.351   1.220
 7584TIP3   OH222694   3.054   0.846   2.537
 7584TIP3    H122695   3.049   0.939   2.558
 7584TIP3    H222696   3.066   0.803   2.621
 7585TIP3   OH222697   6.356   1.131   3.058
 7585TIP3    H122698   6.419   1.170   2.998
 7585TIP3    H222699   6.355   1.038   3.034
 7586TIP3   OH222700   7.306   0.947   1.379
 7586TIP3    H122701   7.278   0.955   1.288
 7586TIP3    H222702   7.226   0.957   1.430
 7587TIP3   OH222703   4.255   1.864   0.789
 7587TIP3    H122704   4.333   1.810   0.801
 7587TIP3    H222705   4.204   1.850   0.868
 7588TIP3   OH222706   6.100   5.944   2.056
 7588TIP3    H122707   6.025   5.911   2.006
 7588TIP3    H222708   6.173   5.889   2.028
 7589TIP3   OH222709   0.084   2.911   1.569
 7589TIP3    H122710   0.038   2.978   1.517
 7589TIP3    H222711   0.049   2.921   1.657
 7590TIP3   OH222712   3.806   0.752   0.625
 7590TIP3    H122713   3.838   0.674   0.580
 7590TIP3    H222714   3.719   0.728   0.657
 7591TIP3   OH222715   1.790   5.070   2.065
 7591TIP3    H122716   1.817   5.118   2.144
 7591TIP3    H222717   1.843   5.108   1.995
 7592TIP3   OH222718   7.276   6.481   1.345
 7592TIP3    H122719   7.343   6.415   1.365
 7592TIP3    H222720   7.325   6.555   1.309
 7593TIP3   OH222721   2.222   2.115   3.189
 7593TIP3    H122722   2.297   2.061   3.215
 7593TIP3    H222723   2.204   2.168   3.266
 7594TIP3   OH222724   6.495   1.804   1.627
 7594TIP3    H122725   6.446   1.853   1.562
 7594TIP3    H222726   6.466   1.713   1.616
 7595TIP3   OH222727   2.032   2.279   1.537
 7595TIP3    H122728   1.983   2.198   1.532
 7595TIP3    H222729   2.107   2.265   1.480
 7596TIP3   OH222730   6.920   0.954   1.105
 7596TIP3    H122731   6.951   0.895   1.174
 7596TIP3    H222732   6.830   0.974   1.129
 7597TIP3   OH222733   5.121   2.322   3.935
 7597TIP3    H122734   5.073   2.246   3.901
 7597TIP3    H222735   5.069   2.397   3.909
 7598TIP3   OH222736   2.163   5.161   6.289
 7598TIP3    H122737   2.092   5.111   6.330
 7598TIP3    H222738   2.150   5.251   6.318
 7599TIP3   OH222739   7.240   0.209   1.679
 7599TIP3    H122740   7.278   0.124   1.702
 7599TIP3    H222741   7.248   0.261   1.759
 7600TIP3   OH222742   3.304   0.889   0.993
 7600TIP3    H122743   3.377   0.919   1.048
 7600TIP3    H222744   3.346   0.839   0.923
 7601TIP3   OH222745   1.880   1.084   0.326
 7601TIP3    H122746   1.947   1.045   0.382
 7601TIP3    H222747   1.882   1.177   0.348
 7602TIP3   OH222748   7.902   5.622   1.447
 7602TIP3    H122749   7.950   5.560   1.393
 7602TIP3    H222750   7.948   5.705   1.435
 7603TIP3   OH222751   2.269   7.072   6.598
 7603TIP3    H122752   2.214   7.065   6.520
 7603TIP3    H222753   2.223   7.021   6.665
 7604TIP3   OH222754   4.412   2.213   5.303
 7604TIP3    H122755   4.445   2.290   5.257
 7604TIP3    H222756   4.329   2.241   5.341
 7605TIP3   OH222757   6.536   6.548   6.312
 7605TIP3    H122758   6.467   6.615   6.315
 7605TIP3    H222759   6.493   6.468   6.341
 7606TIP3   OH222760   2.136   3.323   0.764
 7606TIP3    H122761   2.126   3.403   0.815
 7606TIP3    H222762   2.202   3.344   0.698
 7607TIP3   OH222763   7.822   4.049   6.089
 7607TIP3    H122764   7.816   3.961   6.053
 7607TIP3    H222765   7.744   4.094   6.057
 7608TIP3   OH222766   7.246   0.972   0.374
 7608TIP3    H122767   7.299   1.028   0.318
 7608TIP3    H222768   7.178   1.031   0.409
 7609TIP3   OH222769   3.438   3.684   2.774
 7609TIP3    H122770   3.471   3.703   2.686
 7609TIP3    H222771   3.510   3.639   2.818
 7610TIP3   OH222772   1.822   6.949   5.581
 7610TIP3    H122773   1.790   6.879   5.524
 7610TIP3    H222774   1.914   6.959   5.556
 7611TIP3   OH222775   1.911   7.751   4.818
 7611TIP3    H122776   1.819   7.778   4.811
 7611TIP3    H222777   1.918   7.712   4.905
 7612TIP3   OH222778   3.949   3.374   0.559
 7612TIP3    H122779   3.892   3.410   0.628
 7612TIP3    H222780   4.036   3.374   0.598
 7613TIP3   OH222781   6.517   3.954   3.124
 7613TIP3    H122782   6.557   4.041   3.134
 7613TIP3    H222783   6.424   3.972   3.111
 7614TIP3   OH222784   4.623   6.120   6.395
 7614TIP3    H122785   4.592   6.164   6.475
 7614TIP3    H222786   4.691   6.061   6.425
 7615TIP3   OH222787   4.641   6.917   2.322
 7615TIP3    H122788   4.643   6.957   2.409
 7615TIP3    H222789   4.554   6.876   2.316
 7616TIP3   OH222790   0.083   6.028   5.793
 7616TIP3    H122791   0.030   6.103   5.821
 7616TIP3    H222792   0.108   6.049   5.703
 7617TIP3   OH222793   8.110   0.095   2.035
 7617TIP3    H122794   8.134   0.157   1.966
 7617TIP3    H222795   8.183   0.033   2.038
 7618TIP3   OH222796   5.292   6.767   4.637
 7618TIP3    H122797   5.275   6.829   4.707
 7618TIP3    H222798   5.347   6.816   4.575
 7619TIP3   OH222799   0.039   0.377   2.731
 7619TIP3    H122800   0.045   0.370   2.826
 7619TIP3    H222801  -0.019   0.305   2.706
 7620TIP3   OH222802   3.888   5.118   1.016
 7620TIP3    H122803   3.913   5.060   0.944
 7620TIP3    H222804   3.969   5.165   1.036
 7621TIP3   OH222805   3.139   5.994   5.990
 7621TIP3    H122806   3.154   5.900   6.001
 7621TIP3    H222807   3.045   6.001   5.974
 7622TIP3   OH222808   2.015   0.705   2.134
 7622TIP3    H122809   2.057   0.785   2.165
 7622TIP3    H222810   2.052   0.636   2.189
 7623TIP3   OH222811   7.603   4.269   4.834
 7623TIP3    H122812   7.677   4.218   4.803
 7623TIP3    H222813   7.629   4.300   4.920
 7624TIP3   OH222814   3.778   0.974   3.523
 7624TIP3    H122815   3.822   0.992   3.440
 7624TIP3    H222816   3.819   0.895   3.557
 7625TIP3   OH222817   5.524   1.713   1.021
 7625TIP3    H122818   5.487   1.650   0.959
 7625TIP3    H222819   5.607   1.739   0.981
 7626TIP3   OH222820   3.335   5.352   3.931
 7626TIP3    H122821   3.388   5.428   3.952
 7626TIP3    H222822   3.313   5.314   4.016
 7627TIP3   OH222823   7.455   7.236   0.025
 7627TIP3    H122824   7.424   7.278   0.105
 7627TIP3    H222825   7.375   7.211  -0.022
 7628TIP3   OH222826   5.456   7.098   1.235
 7628TIP3    H122827   5.386   7.158   1.207
 7628TIP3    H222828   5.505   7.080   1.155
 7629TIP3   OH222829   5.135   6.859   0.265
 7629TIP3    H122830   5.128   6.857   0.361
 7629TIP3    H222831   5.123   6.768   0.238
 7630TIP3   OH222832   6.333   5.097   0.018
 7630TIP3    H122833   6.358   5.121   0.108
 7630TIP3    H222834   6.409   5.052  -0.017
 7631TIP3   OH222835   4.196   4.093   5.819
 7631TIP3    H122836   4.139   4.164   5.846
 7631TIP3    H222837   4.232   4.059   5.901
 7632TIP3   OH222838   6.560   1.323   5.801
 7632TIP3    H122839   6.546   1.283   5.887
 7632TIP3    H222840   6.617   1.398   5.819
 7633TIP3   OH222841   3.798   4.522   0.698
 7633TIP3    H122842   3.747   4.518   0.779
 7633TIP3    H222843   3.783   4.611   0.665
 7634TIP3   OH222844   6.869   5.198   3.494
 7634TIP3    H122845   6.788   5.214   3.445
 7634TIP3    H222846   6.892   5.284   3.530
 7635TIP3   OH222847   0.752   3.620   0.486
 7635TIP3    H122848   0.839   3.661   0.491
 7635TIP3    H222849   0.741   3.598   0.394
 7636TIP3   OH222850   7.748   0.004   5.721
 7636TIP3    H122851   7.801  -0.073   5.697
 7636TIP3    H222852   7.699   0.024   5.642
 7637TIP3   OH222853   0.285   0.717   6.438
 7637TIP3    H122854   0.379   0.703   6.451
 7637TIP3    H222855   0.253   0.632   6.407
 7638TIP3   OH222856   2.916   2.461   2.787
 7638TIP3    H122857   2.941   2.382   2.740
 7638TIP3    H222858   2.996   2.514   2.791
 7639TIP3   OH222859   1.828   3.791   2.136
 7639TIP3    H122860   1.754   3.770   2.193
 7639TIP3    H222861   1.903   3.750   2.178
 7640TIP3   OH222862   4.598   1.410   0.627
 7640TIP3    H122863   4.693   1.420   0.632
 7640TIP3    H222864   4.568   1.421   0.717
 7641TIP3   OH222865   7.652   5.333   1.176
 7641TIP3    H122866   7.560   5.305   1.176
 7641TIP3    H222867   7.662   5.384   1.256
 7642TIP3   OH222868   4.891   4.727   4.911
 7642TIP3    H122869   4.846   4.700   4.991
 7642TIP3    H222870   4.827   4.712   4.842
 7643TIP3   OH222871   2.626   6.634   5.546
 7643TIP3    H122872   2.579   6.629   5.462
 7643TIP3    H222873   2.710   6.673   5.524
 7644TIP3   OH222874   2.761   3.884   3.818
 7644TIP3    H122875   2.735   3.825   3.888
 7644TIP3    H222876   2.825   3.834   3.767
 7645TIP3   OH222877   0.696   2.993   5.931
 7645TIP3    H122878   0.660   3.043   6.005
 7645TIP3    H222879   0.736   2.916   5.972
 7646TIP3   OH222880   2.579   7.149   5.334
 7646TIP3    H122881   2.495   7.106   5.353
 7646TIP3    H222882   2.559   7.243   5.335
 7647TIP3   OH222883   0.506   3.294   2.321
 7647TIP3    H122884   0.579   3.250   2.279
 7647TIP3    H222885   0.479   3.236   2.391
 7648TIP3   OH222886   0.296   5.911   6.265
 7648TIP3    H122887   0.281   5.945   6.176
 7648TIP3    H222888   0.230   5.955   6.319
 7649TIP3   OH222889   8.108   5.293   4.028
 7649TIP3    H122890   8.192   5.276   3.985
 7649TIP3    H222891   8.118   5.256   4.115
 7650TIP3   OH222892   7.508   7.712   0.975
 7650TIP3    H122893   7.415   7.711   0.953
 7650TIP3    H222894   7.515   7.654   1.051
 7651TIP3   OH222895   0.751   7.207   4.662
 7651TIP3    H122896   0.837   7.245   4.679
 7651TIP3    H222897   0.724   7.244   4.578
 7652TIP3   OH222898   5.136   3.890   3.574
 7652TIP3    H122899   5.157   3.807   3.531
 7652TIP3    H222900   5.161   3.957   3.511
 7653TIP3   OH222901   0.777   4.213   3.974
 7653TIP3    H122902   0.872   4.216   3.985
 7653TIP3    H222903   0.761   4.264   3.895
 7654TIP3   OH222904   4.423   2.366   1.399
 7654TIP3    H122905   4.404   2.390   1.309
 7654TIP3    H222906   4.486   2.295   1.393
 7655TIP3   OH222907   2.221   2.518   1.884
 7655TIP3    H122908   2.241   2.447   1.945
 7655TIP3    H222909   2.236   2.479   1.797
 7656TIP3   OH222910   7.046   0.442   6.081
 7656TIP3    H122911   7.076   0.513   6.024
 7656TIP3    H222912   6.977   0.482   6.134
 7657TIP3   OH222913   2.736   3.376   1.383
 7657TIP3    H122914   2.794   3.307   1.350
 7657TIP3    H222915   2.743   3.369   1.478
 7658TIP3   OH222916   2.676   4.550   4.343
 7658TIP3    H122917   2.638   4.569   4.257
 7658TIP3    H222918   2.602   4.553   4.403
 7659TIP3   OH222919   0.564   3.851   5.229
 7659TIP3    H122920   0.504   3.789   5.186
 7659TIP3    H222921   0.619   3.883   5.157
 7660TIP3   OH222922   2.598   7.680   1.709
 7660TIP3    H122923   2.678   7.730   1.694
 7660TIP3    H222924   2.531   7.726   1.658
 7661TIP3   OH222925   4.509   0.225   2.836
 7661TIP3    H122926   4.525   0.293   2.771
 7661TIP3    H222927   4.596   0.197   2.864
 7662TIP3   OH222928   2.413   1.451   3.918
 7662TIP3    H122929   2.504   1.459   3.948
 7662TIP3    H222930   2.370   1.529   3.953
 7663TIP3   OH222931   3.398   6.236   4.606
 7663TIP3    H122932   3.355   6.322   4.610
 7663TIP3    H222933   3.459   6.244   4.532
 7664TIP3   OH222934   0.031   5.658   2.497
 7664TIP3    H122935   0.015   5.720   2.568
 7664TIP3    H222936   0.118   5.621   2.516
 7665TIP3   OH222937   7.346   4.681   6.652
 7665TIP3    H122938   7.399   4.668   6.573
 7665TIP3    H222939   7.335   4.776   6.657
 7666TIP3   OH222940   0.222   4.105   0.763
 7666TIP3    H122941   0.150   4.143   0.714
 7666TIP3    H222942   0.219   4.012   0.743
 7667TIP3   OH222943   4.207   3.711   5.387
 7667TIP3    H122944   4.150   3.718   5.311
 7667TIP3    H222945   4.183   3.627   5.427
 7668TIP3   OH222946   7.947   1.026   5.101
 7668TIP3    H122947   7.887   0.982   5.161
 7668TIP3    H222948   7.988   1.095   5.154
 7669TIP3   OH222949   5.877   4.219   0.021
 7669TIP3    H122950   5.880   4.219   0.117
 7669TIP3    H222951   5.827   4.298  -0.001
 7670TIP3   OH222952   3.064   6.539   0.498
 7670TIP3    H122953   3.103   6.482   0.432
 7670TIP3    H222954   2.988   6.578   0.454
 7671TIP3   OH222955   5.119   7.052   0.801
 7671TIP3    H122956   5.096   7.144   0.812
 7671TIP3    H222957   5.037   7.009   0.778
 7672TIP3   OH222958   5.080   6.183   3.210
 7672TIP3    H122959   5.074   6.188   3.114
 7672TIP3    H222960   5.166   6.144   3.226
 7673TIP3   OH222961   3.497   0.864   1.852
 7673TIP3    H122962   3.427   0.810   1.815
 7673TIP3    H222963   3.454   0.915   1.920
 7674TIP3   OH222964   2.706   7.149   0.256
 7674TIP3    H122965   2.694   7.060   0.289
 7674TIP3    H222966   2.634   7.199   0.294
 7675TIP3   OH222967   3.584   1.141   5.138
 7675TIP3    H122968   3.665   1.123   5.091
 7675TIP3    H222969   3.530   1.189   5.076
 7676TIP3   OH222970   6.054   6.564   2.783
 7676TIP3    H122971   6.100   6.528   2.859
 7676TIP3    H222972   6.110   6.543   2.709
 7677TIP3   OH222973   1.062   2.946   6.056
 7677TIP3    H122974   0.974   2.951   6.092
 7677TIP3    H222975   1.082   3.035   6.028
 7678TIP3   OH222976   1.412   1.475   3.723
 7678TIP3    H122977   1.322   1.505   3.733
 7678TIP3    H222978   1.456   1.547   3.678
 7679TIP3   OH222979   0.143   4.311   0.086
 7679TIP3    H122980   0.081   4.241   0.106
 7679TIP3    H222981   0.200   4.274   0.019
 7680TIP3   OH222982   7.937   2.404   4.197
 7680TIP3    H122983   7.999   2.425   4.267
 7680TIP3    H222984   7.922   2.488   4.153
 7681TIP3   OH222985   4.117   7.102   3.196
 7681TIP3    H122986   4.199   7.145   3.221
 7681TIP3    H222987   4.120   7.017   3.239
 7682TIP3   OH222988   5.889   2.986   0.442
 7682TIP3    H122989   5.802   2.989   0.482
 7682TIP3    H222990   5.950   2.995   0.515
 7683TIP3   OH222991   6.759   5.072   2.533
 7683TIP3    H122992   6.813   5.114   2.600
 7683TIP3    H222993   6.748   4.982   2.565
 7684TIP3   OH222994   5.953   1.861   2.358
 7684TIP3    H122995   5.896   1.806   2.303
 7684TIP3    H222996   5.932   1.951   2.331
 7685TIP3   OH222997   5.587   3.545   6.196
 7685TIP3    H122998   5.575   3.639   6.186
 7685TIP3    H222999   5.626   3.535   6.283
 7686TIP3   OH223000   2.120   4.438   1.666
 7686TIP3    H123001   2.051   4.463   1.606
 7686TIP3    H223002   2.103   4.346   1.686
 7687TIP3   OH223003   7.370   1.512   2.180
 7687TIP3    H123004   7.366   1.491   2.086
 7687TIP3    H223005   7.455   1.479   2.208
 7688TIP3   OH223006   1.618   4.016   5.810
 7688TIP3    H123007   1.691   3.962   5.839
 7688TIP3    H223008   1.660   4.092   5.768
 7689TIP3   OH223009   1.353   0.755   6.014
 7689TIP3    H123010   1.411   0.680   6.009
 7689TIP3    H223011   1.266   0.719   5.998
 7690TIP3   OH223012   3.045   1.311   4.971
 7690TIP3    H123013   3.055   1.325   4.877
 7690TIP3    H223014   2.989   1.383   5.001
 7691TIP3   OH223015   7.931   3.054   5.276
 7691TIP3    H123016   7.994   3.099   5.220
 7691TIP3    H223017   7.963   3.070   5.365
 7692TIP3   OH223018   2.464   6.810   3.338
 7692TIP3    H123019   2.422   6.834   3.255
 7692TIP3    H223020   2.456   6.888   3.393
 7693TIP3   OH223021   0.528   4.457   1.670
 7693TIP3    H123022   0.500   4.539   1.630
 7693TIP3    H223023   0.605   4.480   1.721
 7694TIP3   OH223024   4.399   4.188   2.725
 7694TIP3    H123025   4.409   4.238   2.644
 7694TIP3    H223026   4.391   4.254   2.794
 7695TIP3   OH223027   2.804   1.104   2.620
 7695TIP3    H123028   2.749   1.177   2.647
 7695TIP3    H223029   2.889   1.121   2.661
 7696TIP3   OH223030   7.235   0.562   3.586
 7696TIP3    H123031   7.328   0.538   3.578
 7696TIP3    H223032   7.189   0.494   3.537
 7697TIP3   OH223033   0.298   6.080   1.512
 7697TIP3    H123034   0.232   6.064   1.580
 7697TIP3    H223035   0.331   6.168   1.530
 7698TIP3   OH223036   1.548   5.613   4.153
 7698TIP3    H123037   1.582   5.525   4.168
 7698TIP3    H223038   1.594   5.644   4.076
 7699TIP3   OH223039   3.759   4.822   4.280
 7699TIP3    H123040   3.772   4.820   4.185
 7699TIP3    H223041   3.752   4.730   4.305
 7700TIP3   OH223042   8.013   5.754   2.095
 7700TIP3    H123043   8.018   5.848   2.114
 7700TIP3    H223044   7.974   5.750   2.007
 7701TIP3   OH223045   1.636   7.255   6.324
 7701TIP3    H123046   1.641   7.261   6.420
 7701TIP3    H223047   1.558   7.306   6.302
 7702TIP3   OH223048   6.487   1.708   0.535
 7702TIP3    H123049   6.532   1.624   0.542
 7702TIP3    H223050   6.558   1.772   0.524
 7703TIP3   OH223051   7.258   2.764   2.478
 7703TIP3    H123052   7.227   2.729   2.561
 7703TIP3    H223053   7.194   2.731   2.414
 7704TIP3   OH223054   3.492   4.430   2.340
 7704TIP3    H123055   3.555   4.360   2.355
 7704TIP3    H223056   3.545   4.510   2.338
 7705TIP3   OH223057   2.130   5.675   1.142
 7705TIP3    H123058   2.047   5.651   1.183
 7705TIP3    H223059   2.194   5.615   1.181
 7706TIP3   OH223060   3.917   3.160   5.523
 7706TIP3    H123061   3.828   3.129   5.504
 7706TIP3    H223062   3.960   3.163   5.437
 7707TIP3   OH223063   4.484   1.135   1.021
 7707TIP3    H123064   4.465   1.116   0.929
 7707TIP3    H223065   4.550   1.070   1.046
 7708TIP3   OH223066   3.038   0.205   1.675
 7708TIP3    H123067   2.961   0.245   1.717
 7708TIP3    H223068   3.013   0.193   1.584
 7709TIP3   OH223069   2.289   4.710   1.014
 7709TIP3    H123070   2.372   4.665   1.033
 7709TIP3    H223071   2.231   4.685   1.086
 7710TIP3   OH223072   2.318   7.510   6.087
 7710TIP3    H123073   2.287   7.508   6.178
 7710TIP3    H223074   2.256   7.567   6.042
 7711TIP3   OH223075   6.589   0.906   2.109
 7711TIP3    H123076   6.600   0.978   2.171
 7711TIP3    H223077   6.595   0.827   2.162
 7712TIP3   OH223078   4.369   1.826   2.693
 7712TIP3    H123079   4.383   1.919   2.711
 7712TIP3    H223080   4.422   1.808   2.616
 7713TIP3   OH223081   2.062   5.333   1.416
 7713TIP3    H123082   2.063   5.261   1.352
 7713TIP3    H223083   2.128   5.308   1.481
 7714TIP3   OH223084   1.506   7.600   1.842
 7714TIP3    H123085   1.424   7.573   1.883
 7714TIP3    H223086   1.557   7.639   1.913
 7715TIP3   OH223087   1.935   0.980   2.626
 7715TIP3    H123088   1.917   0.911   2.690
 7715TIP3    H223089   2.001   1.036   2.668
 7716TIP3   OH223090   2.462   1.806   5.262
 7716TIP3    H123091   2.490   1.756   5.338
 7716TIP3    H223092   2.506   1.765   5.188
 7717TIP3   OH223093   5.078   4.137   1.679
 7717TIP3    H123094   5.099   4.095   1.595
 7717TIP3    H223095   5.103   4.228   1.668
 7718TIP3   OH223096   4.653   7.135   4.304
 7718TIP3    H123097   4.683   7.090   4.383
 7718TIP3    H223098   4.558   7.134   4.310
 7719TIP3   OH223099   2.659   1.380   2.278
 7719TIP3    H123100   2.721   1.445   2.244
 7719TIP3    H223101   2.583   1.387   2.221
 7720TIP3   OH223102   1.977   1.761   4.976
 7720TIP3    H123103   1.971   1.772   4.881
 7720TIP3    H223104   2.048   1.820   5.002
 7721TIP3   OH223105   0.986   7.126   2.891
 7721TIP3    H123106   1.060   7.159   2.942
 7721TIP3    H223107   1.009   7.146   2.800
 7722TIP3   OH223108   3.786   6.095   4.869
 7722TIP3    H123109   3.828   6.123   4.788
 7722TIP3    H223110   3.836   6.018   4.897
 7723TIP3   OH223111   5.017   3.937   6.167
 7723TIP3    H123112   4.957   3.871   6.133
 7723TIP3    H223113   4.990   3.948   6.259
 7724TIP3   OH223114   2.779   0.300   6.089
 7724TIP3    H123115   2.829   0.275   6.012
 7724TIP3    H223116   2.803   0.391   6.105
 7725TIP3   OH223117   5.115   2.801   4.715
 7725TIP3    H123118   5.174   2.727   4.727
 7725TIP3    H223119   5.041   2.783   4.774
 7726TIP3   OH223120   6.110   3.889   6.031
 7726TIP3    H123121   6.074   3.842   6.107
 7726TIP3    H223122   6.034   3.907   5.976
 7727TIP3   OH223123   6.911   7.604   0.377
 7727TIP3    H123124   6.819   7.589   0.398
 7727TIP3    H223125   6.951   7.626   0.462
 7728TIP3   OH223126   7.951   7.531   5.995
 7728TIP3    H123127   7.992   7.577   6.068
 7728TIP3    H223128   7.907   7.456   6.035
 7729TIP3   OH223129   4.226   7.321   5.897
 7729TIP3    H123130   4.299   7.258   5.901
 7729TIP3    H223131   4.235   7.362   5.810
 7730TIP3   OH223132   5.315   6.911   2.900
 7730TIP3    H123133   5.363   6.916   2.982
 7730TIP3    H223134   5.243   6.974   2.910
 7731TIP3   OH223135   5.992   2.309   3.427
 7731TIP3    H123136   5.901   2.309   3.400
 7731TIP3    H223137   5.991   2.274   3.516
 7732TIP3   OH223138   5.611   2.995   4.065
 7732TIP3    H123139   5.518   3.006   4.047
 7732TIP3    H223140   5.653   3.006   3.979
 7733TIP3   OH223141   4.902   5.417   0.848
 7733TIP3    H123142   4.891   5.486   0.783
 7733TIP3    H223143   4.815   5.406   0.886
 7734TIP3   OH223144   3.696   2.047   3.165
 7734TIP3    H123145   3.657   2.125   3.204
 7734TIP3    H223146   3.621   1.997   3.133
 7735TIP3   OH223147   1.513   2.423   3.955
 7735TIP3    H123148   1.503   2.332   3.927
 7735TIP3    H223149   1.460   2.473   3.893
 7736TIP3   OH223150   3.584   5.457   5.987
 7736TIP3    H123151   3.630   5.527   6.034
 7736TIP3    H223152   3.513   5.502   5.942
 7737TIP3   OH223153   7.026   3.955   3.024
 7737TIP3    H123154   7.084   3.897   3.075
 7737TIP3    H223155   7.050   3.939   2.933
 7738TIP3   OH223156   1.592   3.651   3.901
 7738TIP3    H123157   1.640   3.592   3.843
 7738TIP3    H223158   1.658   3.712   3.933
 7739TIP3   OH223159   7.478   0.163   1.483
 7739TIP3    H123160   7.400   0.126   1.524
 7739TIP3    H223161   7.542   0.171   1.554
 7740TIP3   OH223162   7.808   2.062   5.365
 7740TIP3    H123163   7.874   2.038   5.430
 7740TIP3    H223164   7.831   2.152   5.340
 7741TIP3   OH223165   5.853   6.279   3.718
 7741TIP3    H123166   5.936   6.255   3.678
 7741TIP3    H223167   5.792   6.210   3.692
 7742TIP3   OH223168   2.658   7.318   2.269
 7742TIP3    H123169   2.646   7.312   2.364
 7742TIP3    H223170   2.668   7.411   2.252
 7743TIP3   OH223171   3.113   1.759   1.018
 7743TIP3    H123172   3.165   1.816   1.074
 7743TIP3    H223173   3.164   1.749   0.938
 7744TIP3   OH223174   7.867   2.981   0.189
 7744TIP3    H123175   7.923   3.027   0.251
 7744TIP3    H223176   7.859   2.893   0.224
 7745TIP3   OH223177   1.753   2.168   2.187
 7745TIP3    H123178   1.678   2.116   2.156
 7745TIP3    H223179   1.760   2.240   2.124
 7746TIP3   OH223180   5.472   3.873   3.864
 7746TIP3    H123181   5.465   3.793   3.916
 7746TIP3    H223182   5.564   3.896   3.868
 7747TIP3   OH223183   7.602   1.353   5.976
 7747TIP3    H123184   7.579   1.276   5.923
 7747TIP3    H223185   7.591   1.324   6.066
 7748TIP3   OH223186   4.866   1.450   3.447
 7748TIP3    H123187   4.903   1.509   3.382
 7748TIP3    H223188   4.783   1.421   3.409
 7749TIP3   OH223189   8.025   1.276   2.196
 7749TIP3    H123190   7.952   1.213   2.196
 7749TIP3    H223191   8.041   1.295   2.288
 7750TIP3   OH223192   4.066   4.958   4.682
 7750TIP3    H123193   4.103   4.989   4.765
 7750TIP3    H223194   4.134   4.903   4.644
 7751TIP3   OH223195   1.179   3.286   1.966
 7751TIP3    H123196   1.241   3.216   1.986
 7751TIP3    H223197   1.094   3.242   1.961
 7752TIP3   OH223198   4.942   6.916   6.561
 7752TIP3    H123199   4.967   6.964   6.640
 7752TIP3    H223200   4.880   6.974   6.517
 7753TIP3   OH223201   7.372   2.536   4.639
 7753TIP3    H123202   7.451   2.573   4.600
 7753TIP3    H223203   7.394   2.526   4.732
 7754TIP3   OH223204   7.086   5.180   3.330
 7754TIP3    H123205   7.012   5.188   3.390
 7754TIP3    H223206   7.134   5.103   3.362
 7755TIP3   OH223207   5.822   1.641   5.262
 7755TIP3    H123208   5.891   1.576   5.272
 7755TIP3    H223209   5.776   1.640   5.346
 7756TIP3   OH223210   6.052   7.713   1.587
 7756TIP3    H123211   6.004   7.688   1.666
 7756TIP3    H223212   6.125   7.652   1.583
 7757TIP3   OH223213   7.653   3.642   5.012
 7757TIP3    H123214   7.650   3.728   4.972
 7757TIP3    H223215   7.563   3.611   5.010
 7758TIP3   OH223216   4.680   4.489   1.817
 7758TIP3    H123217   4.707   4.472   1.727
 7758TIP3    H223218   4.646   4.578   1.816
 7759TIP3   OH223219   1.925   4.078   5.743
 7759TIP3    H123220   1.881   4.156   5.708
 7759TIP3    H223221   1.949   4.103   5.832
 7760TIP3   OH223222   5.540   4.701   0.515
 7760TIP3    H123223   5.579   4.713   0.428
 7760TIP3    H223224   5.455   4.745   0.509
 7761TIP3   OH223225   3.961   6.879   5.580
 7761TIP3    H123226   3.947   6.832   5.662
 7761TIP3    H223227   3.905   6.834   5.516
 7762TIP3   OH223228   2.496   0.127   5.485
 7762TIP3    H123229   2.589   0.148   5.477
 7762TIP3    H223230   2.487   0.042   5.442
 7763TIP3   OH223231   5.739   6.765   3.902
 7763TIP3    H123232   5.646   6.788   3.898
 7763TIP3    H223233   5.755   6.718   3.821
 7764TIP3   OH223234   3.561   1.777   5.768
 7764TIP3    H123235   3.640   1.748   5.813
 7764TIP3    H223236   3.592   1.835   5.699
 7765TIP3   OH223237   1.236   3.622   2.610
 7765TIP3    H123238   1.243   3.633   2.705
 7765TIP3    H223239   1.194   3.703   2.580
 7766TIP3   OH223240   3.249   4.142   6.561
 7766TIP3    H123241   3.195   4.169   6.487
 7766TIP3    H223242   3.286   4.058   6.536
 7767TIP3   OH223243   8.228   4.669   1.485
 7767TIP3    H123244   8.296   4.700   1.545
 7767TIP3    H223245   8.191   4.750   1.448
 7768TIP3   OH223246   3.188   5.369   2.588
 7768TIP3    H123247   3.208   5.434   2.656
 7768TIP3    H223248   3.169   5.289   2.636
 7769TIP3   OH223249   4.047   6.941   2.325
 7769TIP3    H123250   4.003   7.021   2.299
 7769TIP3    H223251   4.106   6.967   2.395
 7770TIP3   OH223252   7.840   6.730   1.554
 7770TIP3    H123253   7.798   6.680   1.484
 7770TIP3    H223254   7.799   6.817   1.548
 7771TIP3   OH223255   6.784   1.364   4.282
 7771TIP3    H123256   6.710   1.307   4.303
 7771TIP3    H223257   6.771   1.441   4.338
 7772TIP3   OH223258   5.542   5.232   4.575
 7772TIP3    H123259   5.580   5.151   4.541
 7772TIP3    H223260   5.579   5.301   4.519
 7773TIP3   OH223261   4.803   1.482   2.332
 7773TIP3    H123262   4.815   1.499   2.239
 7773TIP3    H223263   4.754   1.400   2.336
 7774TIP3   OH223264   7.824   1.449   5.827
 7774TIP3    H123265   7.751   1.419   5.881
 7774TIP3    H223266   7.901   1.405   5.863
 7775TIP3   OH223267   0.474   6.038   3.541
 7775TIP3    H123268   0.521   6.057   3.460
 7775TIP3    H223269   0.419   6.115   3.555
 7776TIP3   OH223270   7.458   5.795   4.977
 7776TIP3    H123271   7.367   5.796   4.947
 7776TIP3    H223272   7.510   5.804   4.897
 7777TIP3   OH223273   2.192   6.677   4.000
 7777TIP3    H123274   2.157   6.733   3.930
 7777TIP3    H223275   2.128   6.683   4.070
 7778TIP3   OH223276   2.781   7.263   6.710
 7778TIP3    H123277   2.800   7.355   6.729
 7778TIP3    H223278   2.733   7.264   6.627
 7779TIP3   OH223279   6.266   1.903   4.818
 7779TIP3    H123280   6.234   1.813   4.806
 7779TIP3    H223281   6.233   1.951   4.742
 7780TIP3   OH223282   5.156   1.826   6.394
 7780TIP3    H123283   5.146   1.879   6.473
 7780TIP3    H223284   5.098   1.751   6.409
 7781TIP3   OH223285   0.328   0.054   2.281
 7781TIP3    H123286   0.293   0.094   2.360
 7781TIP3    H223287   0.335  -0.039   2.302
 7782TIP3   OH223288   6.478   3.892   6.527
 7782TIP3    H123289   6.440   3.867   6.610
 7782TIP3    H223290   6.542   3.960   6.549
 7783TIP3   OH223291   3.896   3.510   3.594
 7783TIP3    H123292   3.867   3.580   3.652
 7783TIP3    H223293   3.875   3.429   3.641
 7784TIP3   OH223294   3.826   4.848   2.419
 7784TIP3    H123295   3.906   4.798   2.439
 7784TIP3    H223296   3.851   4.939   2.434
 7785TIP3   OH223297   2.201   1.315   4.542
 7785TIP3    H123298   2.114   1.348   4.518
 7785TIP3    H223299   2.184   1.255   4.615
 7786TIP3   OH223300   0.558   2.003   3.119
 7786TIP3    H123301   0.570   1.943   3.046
 7786TIP3    H223302   0.629   2.067   3.111
 7787TIP3   OH223303   7.340   0.225   5.986
 7787TIP3    H123304   7.318   0.282   5.912
 7787TIP3    H223305   7.392   0.155   5.947
 7788TIP3   OH223306   4.943   2.031   5.895
 7788TIP3    H123307   4.942   2.059   5.986
 7788TIP3    H223308   4.918   1.939   5.897
 7789TIP3   OH223309   2.045   5.979   4.251
 7789TIP3    H123310   1.973   5.916   4.257
 7789TIP3    H223311   2.084   5.978   4.338
 7790TIP3   OH223312   4.928   3.355   5.217
 7790TIP3    H123313   4.921   3.419   5.288
 7790TIP3    H223314   4.850   3.371   5.163
 7791TIP3   OH223315   3.403   1.427   0.986
 7791TIP3    H123316   3.320   1.410   0.940
 7791TIP3    H223317   3.377   1.452   1.074
 7792TIP3   OH223318   7.318   6.563   0.226
 7792TIP3    H123319   7.369   6.482   0.217
 7792TIP3    H223320   7.383   6.633   0.217
 7793TIP3   OH223321   2.835   7.347   3.383
 7793TIP3    H123322   2.772   7.290   3.340
 7793TIP3    H223323   2.889   7.382   3.312
 7794TIP3   OH223324   1.791   2.683   3.270
 7794TIP3    H123325   1.856   2.614   3.276
 7794TIP3    H223326   1.712   2.646   3.308
 7795TIP3   OH223327   6.080   7.377   5.700
 7795TIP3    H123328   6.173   7.366   5.721
 7795TIP3    H223329   6.054   7.454   5.749
 7796TIP3   OH223330   1.625   1.901   4.952
 7796TIP3    H123331   1.635   1.816   4.909
 7796TIP3    H223332   1.539   1.933   4.924
 7797TIP3   OH223333   7.877   6.950   6.103
 7797TIP3    H123334   7.781   6.948   6.100
 7797TIP3    H223335   7.899   7.043   6.094
 7798TIP3   OH223336   4.213   3.717   6.340
 7798TIP3    H123337   4.293   3.666   6.351
 7798TIP3    H223338   4.244   3.804   6.312
 7799TIP3   OH223339   4.686   3.642   2.646
 7799TIP3    H123340   4.623   3.714   2.638
 7799TIP3    H223341   4.765   3.684   2.680
 7800TIP3   OH223342   0.018   0.381   0.230
 7800TIP3    H123343  -0.049   0.442   0.199
 7800TIP3    H223344  -0.032   0.309   0.267
 7801TIP3   OH223345   3.733   0.331   4.067
 7801TIP3    H123346   3.818   0.304   4.102
 7801TIP3    H223347   3.737   0.309   3.974
 7802TIP3   OH223348   0.013   1.843   2.681
 7802TIP3    H123349   0.020   1.819   2.773
 7802TIP3    H223350   0.020   1.939   2.681
 7803TIP3   OH223351   4.915   5.419   4.679
 7803TIP3    H123352   5.007   5.397   4.694
 7803TIP3    H223353   4.875   5.412   4.766
 7804TIP3   OH223354   5.159   4.244   4.516
 7804TIP3    H123355   5.154   4.320   4.458
 7804TIP3    H223356   5.184   4.171   4.459
 7805TIP3   OH223357   3.718   2.219   4.635
 7805TIP3    H123358   3.737   2.126   4.623
 7805TIP3    H223359   3.713   2.253   4.546
 7806TIP3   OH223360   5.544   2.694   3.756
 7806TIP3    H123361   5.549   2.650   3.671
 7806TIP3    H223362   5.568   2.785   3.736
 7807TIP3   OH223363   0.571   2.403   3.058
 7807TIP3    H123364   0.536   2.325   3.015
 7807TIP3    H223365   0.653   2.421   3.012
 7808TIP3   OH223366   4.810   1.026   0.140
 7808TIP3    H123367   4.827   1.049   0.231
 7808TIP3    H223368   4.737   0.964   0.144
 7809TIP3   OH223369   6.867   3.821   0.564
 7809TIP3    H123370   6.809   3.798   0.491
 7809TIP3    H223371   6.910   3.902   0.535
 7810TIP3   OH223372   1.869   6.186   0.007
 7810TIP3    H123373   1.951   6.216   0.046
 7810TIP3    H223374   1.872   6.090   0.017
 7811TIP3   OH223375   6.089   2.226   1.623
 7811TIP3    H123376   6.100   2.304   1.568
 7811TIP3    H223377   5.996   2.206   1.619
 7812TIP3   OH223378   0.988   5.667   1.897
 7812TIP3    H123379   0.907   5.709   1.869
 7812TIP3    H223380   1.039   5.657   1.817
 7813TIP3   OH223381   6.598   4.219   4.027
 7813TIP3    H123382   6.658   4.267   3.970
 7813TIP3    H223383   6.654   4.160   4.077
 7814TIP3   OH223384   6.904   6.189   4.786
 7814TIP3    H123385   6.997   6.176   4.808
 7814TIP3    H223386   6.900   6.280   4.756
 7815TIP3   OH223387   7.685   6.540   2.462
 7815TIP3    H123388   7.767   6.584   2.439
 7815TIP3    H223389   7.659   6.496   2.382
 7816TIP3   OH223390   5.795   7.754   2.593
 7816TIP3    H123391   5.774   7.839   2.554
 7816TIP3    H223392   5.712   7.725   2.631
 7817TIP3   OH223393   2.619   6.238   3.638
 7817TIP3    H123394   2.680   6.190   3.582
 7817TIP3    H223395   2.665   6.320   3.658
 7818TIP3   OH223396   2.704   6.659   3.869
 7818TIP3    H123397   2.757   6.650   3.789
 7818TIP3    H223398   2.639   6.590   3.863
 7819TIP3   OH223399   3.787   0.788   3.886
 7819TIP3    H123400   3.789   0.758   3.977
 7819TIP3    H223401   3.794   0.884   3.893
 7820TIP3   OH223402   1.995   3.937   3.402
 7820TIP3    H123403   1.951   3.852   3.400
 7820TIP3    H223404   1.976   3.977   3.317
 7821TIP3   OH223405   0.172   2.516   0.221
 7821TIP3    H123406   0.149   2.431   0.184
 7821TIP3    H223407   0.250   2.498   0.274
 7822TIP3   OH223408   7.395   1.021   0.962
 7822TIP3    H123409   7.332   1.090   0.945
 7822TIP3    H223410   7.343   0.948   0.997
 7823TIP3   OH223411   5.462   6.380   3.895
 7823TIP3    H123412   5.430   6.306   3.945
 7823TIP3    H223413   5.557   6.370   3.894
 7824TIP3   OH223414   4.971   4.726   5.204
 7824TIP3    H123415   4.952   4.782   5.280
 7824TIP3    H223416   5.038   4.774   5.155
 7825TIP3   OH223417   2.292   5.447   4.937
 7825TIP3    H123418   2.206   5.463   4.976
 7825TIP3    H223419   2.332   5.381   4.994
 7826TIP3   OH223420   0.979   7.205   3.731
 7826TIP3    H123421   0.905   7.180   3.675
 7826TIP3    H223422   0.963   7.161   3.814
 7827TIP3   OH223423   0.635   2.641   2.083
 7827TIP3    H123424   0.643   2.556   2.127
 7827TIP3    H223425   0.556   2.633   2.030
 7828TIP3   OH223426   1.110   5.687   2.399
 7828TIP3    H123427   1.205   5.684   2.402
 7828TIP3    H223428   1.083   5.688   2.491
 7829TIP3   OH223429   3.884   4.180   5.118
 7829TIP3    H123430   3.959   4.175   5.177
 7829TIP3    H223431   3.920   4.157   5.032
 7830TIP3   OH223432   5.929   0.573   5.294
 7830TIP3    H123433   5.946   0.479   5.301
 7830TIP3    H223434   5.849   0.579   5.242
 7831TIP3   OH223435   3.141   3.999   2.853
 7831TIP3    H123436   3.132   3.943   2.776
 7831TIP3    H223437   3.062   4.054   2.851
 7832TIP3   OH223438   2.855   4.750   2.733
 7832TIP3    H123439   2.928   4.801   2.769
 7832TIP3    H223440   2.816   4.808   2.667
 7833TIP3   OH223441   7.812   6.184   3.724
 7833TIP3    H123442   7.752   6.208   3.653
 7833TIP3    H223443   7.770   6.219   3.803
 7834TIP3   OH223444   6.082   2.614   6.332
 7834TIP3    H123445   6.143   2.616   6.406
 7834TIP3    H223446   6.009   2.670   6.359
 7835TIP3   OH223447   6.536   2.633   4.832
 7835TIP3    H123448   6.604   2.624   4.765
 7835TIP3    H223449   6.466   2.574   4.803
 7836TIP3   OH223450   6.924   4.625   3.637
 7836TIP3    H123451   6.921   4.668   3.722
 7836TIP3    H223452   7.018   4.609   3.622
 7837TIP3   OH223453   1.449   1.178   5.837
 7837TIP3    H123454   1.379   1.192   5.901
 7837TIP3    H223455   1.490   1.095   5.865
 7838TIP3   OH223456   2.998   5.444   5.960
 7838TIP3    H123457   2.954   5.503   6.020
 7838TIP3    H223458   3.038   5.377   6.016
 7839TIP3   OH223459   8.292   6.368   3.333
 7839TIP3    H123460   8.201   6.385   3.354
 7839TIP3    H223461   8.309   6.419   3.254
 7840TIP3   OH223462   2.649   7.551   3.042
 7840TIP3    H123463   2.581   7.545   3.109
 7840TIP3    H223464   2.729   7.569   3.091
 7841TIP3   OH223465   3.349   3.298   3.608
 7841TIP3    H123466   3.317   3.274   3.695
 7841TIP3    H223467   3.297   3.374   3.583
 7842TIP3   OH223468   3.242   5.167   5.161
 7842TIP3    H123469   3.225   5.184   5.068
 7842TIP3    H223470   3.265   5.074   5.164
 7843TIP3   OH223471   2.848   2.093   5.475
 7843TIP3    H123472   2.807   2.094   5.562
 7843TIP3    H223473   2.819   2.175   5.435
 7844TIP3   OH223474   4.004   1.018   3.356
 7844TIP3    H123475   4.022   1.095   3.409
 7844TIP3    H223476   4.091   0.981   3.337
 7845TIP3   OH223477   4.292   7.273   1.575
 7845TIP3    H123478   4.243   7.254   1.655
 7845TIP3    H223479   4.249   7.350   1.538
 7846TIP3   OH223480   6.681   1.510   1.788
 7846TIP3    H123481   6.612   1.550   1.736
 7846TIP3    H223482   6.656   1.528   1.879
 7847TIP3   OH223483   4.898   6.902   0.720
 7847TIP3    H123484   4.856   6.951   0.650
 7847TIP3    H223485   4.828   6.854   0.763
 7848TIP3   OH223486   4.028   0.787   1.874
 7848TIP3    H123487   4.064   0.744   1.951
 7848TIP3    H223488   4.099   0.844   1.843
 7849TIP3   OH223489   6.969   0.420   1.782
 7849TIP3    H123490   6.953   0.427   1.688
 7849TIP3    H223491   6.882   0.419   1.822
 7850TIP3   OH223492   4.292   3.067   1.377
 7850TIP3    H123493   4.345   3.118   1.316
 7850TIP3    H223494   4.265   2.990   1.327
 7851TIP3   OH223495   2.634   1.072   4.259
 7851TIP3    H123496   2.636   1.158   4.300
 7851TIP3    H223497   2.542   1.052   4.246
 7852TIP3   OH223498   8.229   5.838   4.805
 7852TIP3    H123499   8.175   5.882   4.871
 7852TIP3    H223500   8.260   5.758   4.849
 7853TIP3   OH223501   0.558   7.386   5.434
 7853TIP3    H123502   0.626   7.425   5.380
 7853TIP3    H223503   0.575   7.292   5.430
 7854TIP3   OH223504   2.731   0.512   4.232
 7854TIP3    H123505   2.749   0.494   4.140
 7854TIP3    H223506   2.808   0.478   4.278
 7855TIP3   OH223507   7.758   6.097   3.204
 7855TIP3    H123508   7.832   6.135   3.157
 7855TIP3    H223509   7.776   6.115   3.296
 7856TIP3   OH223510   1.792   5.220   4.411
 7856TIP3    H123511   1.825   5.152   4.470
 7856TIP3    H223512   1.869   5.246   4.360
 7857TIP3   OH223513   5.954   2.021   3.751
 7857TIP3    H123514   6.015   1.989   3.683
 7857TIP3    H223515   5.914   1.942   3.786
 7858TIP3   OH223516   2.444   5.755   4.321
 7858TIP3    H123517   2.445   5.804   4.403
 7858TIP3    H223518   2.439   5.663   4.347
 7859TIP3   OH223519   6.055   6.873   3.342
 7859TIP3    H123520   6.060   6.901   3.250
 7859TIP3    H223521   6.085   6.949   3.391
 7860TIP3   OH223522   2.351   4.140   5.521
 7860TIP3    H123523   2.346   4.222   5.471
 7860TIP3    H223524   2.382   4.076   5.457
 7861TIP3   OH223525   3.568   5.628   3.768
 7861TIP3    H123526   3.646   5.659   3.815
 7861TIP3    H223527   3.503   5.611   3.836
 7862TIP3   OH223528   7.224   1.934   2.339
 7862TIP3    H123529   7.171   2.007   2.305
 7862TIP3    H223530   7.175   1.903   2.415
 7863TIP3   OH223531   6.743   6.962   4.944
 7863TIP3    H123532   6.744   6.920   5.030
 7863TIP3    H223533   6.782   7.048   4.959
 7864TIP3   OH223534   5.538   5.900   0.793
 7864TIP3    H123535   5.556   5.852   0.874
 7864TIP3    H223536   5.578   5.986   0.806
 7865TIP3   OH223537   5.758   5.728   0.365
 7865TIP3    H123538   5.782   5.781   0.441
 7865TIP3    H223539   5.826   5.745   0.301
 7866TIP3   OH223540   0.359   4.241   6.234
 7866TIP3    H123541   0.345   4.173   6.300
 7866TIP3    H223542   0.365   4.322   6.285
 7867TIP3   OH223543   7.993   1.782   4.040
 7867TIP3    H123544   7.947   1.732   4.107
 7867TIP3    H223545   7.939   1.860   4.028
 7868TIP3   OH223546   3.009   4.307   5.149
 7868TIP3    H123547   3.002   4.225   5.198
 7868TIP3    H223548   3.098   4.305   5.112
 7869TIP3   OH223549   3.030   7.689   3.249
 7869TIP3    H123550   2.943   7.688   3.289
 7869TIP3    H223551   3.035   7.775   3.206
 7870TIP3   OH223552   1.859   5.698   3.493
 7870TIP3    H123553   1.895   5.775   3.536
 7870TIP3    H223554   1.926   5.671   3.430
 7871TIP3   OH223555   7.160   4.411   6.603
 7871TIP3    H123556   7.228   4.476   6.621
 7871TIP3    H223557   7.092   4.459   6.555
 7872TIP3   OH223558   1.056   3.058   3.392
 7872TIP3    H123559   1.123   2.990   3.384
 7872TIP3    H223560   1.016   3.043   3.477
 7873TIP3   OH223561   1.059   5.377   0.989
 7873TIP3    H123562   1.058   5.372   0.894
 7873TIP3    H223563   1.152   5.375   1.012
 7874TIP3   OH223564   6.118   5.502   0.038
 7874TIP3    H123565   6.151   5.424  -0.007
 7874TIP3    H223566   6.171   5.509   0.117
 7875TIP3   OH223567   6.484   3.017   1.282
 7875TIP3    H123568   6.498   3.023   1.376
 7875TIP3    H223569   6.390   3.028   1.271
 7876TIP3   OH223570   1.444   2.313   5.812
 7876TIP3    H123571   1.519   2.293   5.756
 7876TIP3    H223572   1.379   2.246   5.791
 7877TIP3   OH223573   4.762   7.251   3.277
 7877TIP3    H123574   4.694   7.185   3.266
 7877TIP3    H223575   4.842   7.209   3.247
 7878TIP3   OH223576   6.642   3.348   5.680
 7878TIP3    H123577   6.566   3.305   5.720
 7878TIP3    H223578   6.653   3.305   5.595
 7879TIP3   OH223579   6.901   2.528   3.749
 7879TIP3    H123580   6.989   2.548   3.780
 7879TIP3    H223581   6.888   2.436   3.772
 7880TIP3   OH223582   4.135   6.582   1.248
 7880TIP3    H123583   4.172   6.571   1.335
 7880TIP3    H223584   4.103   6.496   1.224
 7881TIP3   OH223585   5.467   3.131   6.235
 7881TIP3    H123586   5.388   3.106   6.187
 7881TIP3    H223587   5.434   3.173   6.315
 7882TIP3   OH223588   4.102   7.762   6.012
 7882TIP3    H123589   4.136   7.845   6.047
 7882TIP3    H223590   4.089   7.780   5.919
 7883TIP3   OH223591   7.824   5.198   4.671
 7883TIP3    H123592   7.836   5.188   4.765
 7883TIP3    H223593   7.850   5.114   4.634
 7884TIP3   OH223594   5.230   5.905   5.523
 7884TIP3    H123595   5.321   5.896   5.496
 7884TIP3    H223596   5.226   5.987   5.571
 7885TIP3   OH223597   4.114   1.776   2.109
 7885TIP3    H123598   4.108   1.842   2.040
 7885TIP3    H223599   4.036   1.790   2.162
 7886TIP3   OH223600   6.290   0.352   5.685
 7886TIP3    H123601   6.319   0.287   5.749
 7886TIP3    H223602   6.349   0.426   5.696
 7887TIP3   OH223603   6.618   4.002   1.553
 7887TIP3    H123604   6.580   4.076   1.601
 7887TIP3    H223605   6.543   3.951   1.525
 7888TIP3   OH223606   7.992   5.410   2.859
 7888TIP3    H123607   7.936   5.333   2.850
 7888TIP3    H223608   8.081   5.376   2.850
 7889TIP3   OH223609   4.826   7.661   4.125
 7889TIP3    H123610   4.864   7.604   4.193
 7889TIP3    H223611   4.888   7.655   4.052
 7890TIP3   OH223612   0.342   2.122   4.615
 7890TIP3    H123613   0.369   2.201   4.568
 7890TIP3    H223614   0.401   2.054   4.583
 7891TIP3   OH223615   3.275   5.351   6.012
 7891TIP3    H123616   3.308   5.428   5.966
 7891TIP3    H223617   3.335   5.280   5.987
 7892TIP3   OH223618   2.732   1.834   1.500
 7892TIP3    H123619   2.695   1.780   1.570
 7892TIP3    H223620   2.711   1.924   1.525
 7893TIP3   OH223621   2.821   7.171   5.238
 7893TIP3    H123622   2.814   7.251   5.186
 7893TIP3    H223623   2.731   7.148   5.258
 7894TIP3   OH223624   3.020   0.564   0.161
 7894TIP3    H123625   2.996   0.565   0.068
 7894TIP3    H223626   3.074   0.642   0.172
 7895TIP3   OH223627   1.904   6.962   1.921
 7895TIP3    H123628   1.930   7.054   1.917
 7895TIP3    H223629   1.986   6.914   1.932
 7896TIP3   OH223630   7.861   1.428   0.455
 7896TIP3    H123631   7.793   1.468   0.509
 7896TIP3    H223632   7.851   1.334   0.470
 7897TIP3   OH223633   2.755   3.708   6.755
 7897TIP3    H123634   2.781   3.787   6.707
 7897TIP3    H223635   2.701   3.741   6.827
 7898TIP3   OH223636   0.202   4.195   5.019
 7898TIP3    H123637   0.119   4.183   5.065
 7898TIP3    H223638   0.207   4.121   4.959
 7899TIP3   OH223639   7.480   0.215   4.796
 7899TIP3    H123640   7.496   0.124   4.820
 7899TIP3    H223641   7.496   0.264   4.877
 7900TIP3   OH223642   3.998   4.587   4.164
 7900TIP3    H123643   3.965   4.527   4.097
 7900TIP3    H223644   3.929   4.591   4.230
 7901TIP3   OH223645   2.209   0.814   5.297
 7901TIP3    H123646   2.287   0.814   5.241
 7901TIP3    H223647   2.239   0.846   5.381
 7902TIP3   OH223648   0.508   0.618   1.232
 7902TIP3    H123649   0.578   0.661   1.281
 7902TIP3    H223650   0.541   0.529   1.218
 7903TIP3   OH223651   6.466   2.713   2.139
 7903TIP3    H123652   6.473   2.642   2.075
 7903TIP3    H223653   6.372   2.729   2.148
 7904TIP3   OH223654   4.338   4.459   2.659
 7904TIP3    H123655   4.258   4.448   2.607
 7904TIP3    H223656   4.311   4.434   2.748
 7905TIP3   OH223657   1.349   2.195   1.832
 7905TIP3    H123658   1.347   2.124   1.897
 7905TIP3    H223659   1.441   2.219   1.826
 7906TIP3   OH223660   3.008   4.084   1.763
 7906TIP3    H123661   3.034   4.144   1.694
 7906TIP3    H223662   3.005   3.998   1.721
 7907TIP3   OH223663   5.758   5.136   0.973
 7907TIP3    H123664   5.671   5.176   0.966
 7907TIP3    H223665   5.741   5.045   0.997
 7908TIP3   OH223666   0.565   7.633   4.135
 7908TIP3    H123667   0.499   7.649   4.203
 7908TIP3    H223668   0.648   7.630   4.182
 7909TIP3   OH223669   5.889   5.667   2.531
 7909TIP3    H123670   5.915   5.726   2.460
 7909TIP3    H223671   5.960   5.674   2.595
 7910TIP3   OH223672   7.783   3.792   5.984
 7910TIP3    H123673   7.692   3.782   5.955
 7910TIP3    H223674   7.818   3.702   5.982
 7911TIP3   OH223675   4.740   1.763   0.484
 7911TIP3    H123676   4.796   1.702   0.533
 7911TIP3    H223677   4.713   1.714   0.407
 7912TIP3   OH223678   3.144   2.666   0.704
 7912TIP3    H123679   3.156   2.594   0.766
 7912TIP3    H223680   3.222   2.665   0.650
 7913TIP3   OH223681   3.098   2.487   1.932
 7913TIP3    H123682   3.092   2.551   1.861
 7913TIP3    H223683   3.040   2.521   2.000
 7914TIP3   OH223684   1.492   0.415   4.580
 7914TIP3    H123685   1.509   0.486   4.518
 7914TIP3    H223686   1.529   0.337   4.539
 7915TIP3   OH223687   6.852   2.217   0.229
 7915TIP3    H123688   6.857   2.196   0.322
 7915TIP3    H223689   6.758   2.225   0.212
 7916TIP3   OH223690   8.006   2.722   1.844
 7916TIP3    H123691   8.060   2.650   1.811
 7916TIP3    H223692   8.001   2.783   1.771
 7917TIP3   OH223693   1.358   5.503   3.939
 7917TIP3    H123694   1.271   5.480   3.971
 7917TIP3    H223695   1.375   5.590   3.976
 7918TIP3   OH223696   1.210   7.717   0.734
 7918TIP3    H123697   1.136   7.778   0.736
 7918TIP3    H223698   1.243   7.715   0.824
 7919TIP3   OH223699   7.578   7.149   1.325
 7919TIP3    H123700   7.605   7.209   1.394
 7919TIP3    H223701   7.653   7.091   1.313
 7920TIP3   OH223702   7.225   4.978   3.429
 7920TIP3    H123703   7.305   4.926   3.418
 7920TIP3    H223704   7.193   4.954   3.516
 7921TIP3   OH223705   6.308   4.013   6.173
 7921TIP3    H123706   6.227   3.989   6.126
 7921TIP3    H223707   6.372   3.948   6.144
 7922TIP3   OH223708   1.865   4.765   5.617
 7922TIP3    H123709   1.855   4.843   5.670
 7922TIP3    H223710   1.919   4.706   5.670
 7923TIP3   OH223711   1.487   0.804   2.298
 7923TIP3    H123712   1.565   0.748   2.309
 7923TIP3    H223713   1.442   0.767   2.222
 7924TIP3   OH223714   6.259   1.134   1.264
 7924TIP3    H123715   6.245   1.200   1.197
 7924TIP3    H223716   6.327   1.077   1.228
 7925TIP3   OH223717   0.008   1.296   5.686
 7925TIP3    H123718   0.029   1.388   5.672
 7925TIP3    H223719   0.085   1.249   5.652
 7926TIP3   OH223720   5.941   4.416   2.316
 7926TIP3    H123721   5.986   4.334   2.335
 7926TIP3    H223722   5.930   4.458   2.401
 7927TIP3   OH223723   4.308   7.139   3.800
 7927TIP3    H123724   4.221   7.099   3.810
 7927TIP3    H223725   4.365   7.086   3.854
 7928TIP3   OH223726   4.182   2.673   6.057
 7928TIP3    H123727   4.199   2.750   6.111
 7928TIP3    H223728   4.268   2.647   6.024
 7929TIP3   OH223729   6.329   1.640   2.278
 7929TIP3    H123730   6.395   1.632   2.209
 7929TIP3    H223731   6.297   1.730   2.269
 7930TIP3   OH223732   7.233   2.660   0.420
 7930TIP3    H123733   7.182   2.581   0.434
 7930TIP3    H223734   7.233   2.672   0.325
 7931TIP3   OH223735   4.001   7.223   6.146
 7931TIP3    H123736   4.048   7.296   6.107
 7931TIP3    H223737   4.054   7.198   6.222
 7932TIP3   OH223738   2.679   3.585   3.283
 7932TIP3    H123739   2.734   3.587   3.205
 7932TIP3    H223740   2.739   3.557   3.353
 7933TIP3   OH223741   3.168   5.618   3.098
 7933TIP3    H123742   3.174   5.614   3.002
 7933TIP3    H223743   3.204   5.703   3.121
 7934TIP3   OH223744   0.803   2.222   5.745
 7934TIP3    H123745   0.769   2.151   5.691
 7934TIP3    H223746   0.743   2.226   5.819
 7935TIP3   OH223747   6.214   6.339   3.761
 7935TIP3    H123748   6.237   6.250   3.786
 7935TIP3    H223749   6.164   6.329   3.680
 7936TIP3   OH223750   4.311   7.502   6.360
 7936TIP3    H123751   4.261   7.582   6.343
 7936TIP3    H223752   4.402   7.528   6.346
 7937TIP3   OH223753   7.839   7.003   2.826
 7937TIP3    H123754   7.870   6.912   2.818
 7937TIP3    H223755   7.902   7.045   2.884
 7938TIP3   OH223756   0.754   0.985   0.787
 7938TIP3    H123757   0.743   0.912   0.847
 7938TIP3    H223758   0.676   0.983   0.731
 7939TIP3   OH223759   2.549   2.728   4.962
 7939TIP3    H123760   2.532   2.744   4.869
 7939TIP3    H223761   2.642   2.706   4.966
 7940TIP3   OH223762   0.833   1.615   2.930
 7940TIP3    H123763   0.920   1.603   2.891
 7940TIP3    H223764   0.796   1.527   2.934
 7941TIP3   OH223765   1.197   6.528   3.284
 7941TIP3    H123766   1.152   6.601   3.241
 7941TIP3    H223767   1.139   6.453   3.269
 7942TIP3   OH223768   6.386   2.166   5.233
 7942TIP3    H123769   6.398   2.079   5.195
 7942TIP3    H223770   6.398   2.154   5.327
 7943TIP3   OH223771   3.509   6.187   1.872
 7943TIP3    H123772   3.522   6.242   1.794
 7943TIP3    H223773   3.591   6.195   1.921
 7944TIP3   OH223774   0.728   5.975   6.289
 7944TIP3    H123775   0.660   5.929   6.241
 7944TIP3    H223776   0.810   5.945   6.249
 7945TIP3   OH223777   3.713   6.664   3.419
 7945TIP3    H123778   3.774   6.704   3.356
 7945TIP3    H223779   3.708   6.572   3.392
 7946TIP3   OH223780   8.093   4.895   1.395
 7946TIP3    H123781   8.152   4.963   1.427
 7946TIP3    H223782   8.076   4.918   1.304
 7947TIP3   OH223783   6.784   6.050   5.309
 7947TIP3    H123784   6.780   5.999   5.228
 7947TIP3    H223785   6.714   6.114   5.301
 7948TIP3   OH223786   0.692   1.520   4.084
 7948TIP3    H123787   0.644   1.441   4.106
 7948TIP3    H223788   0.731   1.548   4.167
 7949TIP3   OH223789   2.804   6.839   4.878
 7949TIP3    H123790   2.766   6.927   4.874
 7949TIP3    H223791   2.898   6.854   4.878
 7950TIP3   OH223792   0.883   2.169   4.415
 7950TIP3    H123793   0.894   2.081   4.452
 7950TIP3    H223794   0.972   2.197   4.393
 7951TIP3   OH223795   0.607   4.422   2.827
 7951TIP3    H123796   0.530   4.374   2.797
 7951TIP3    H223797   0.655   4.442   2.747
 7952TIP3   OH223798   6.859   2.165   4.339
 7952TIP3    H123799   6.879   2.197   4.427
 7952TIP3    H223800   6.783   2.107   4.351
 7953TIP3   OH223801   3.623   6.608   3.757
 7953TIP3    H123802   3.656   6.621   3.669
 7953TIP3    H223803   3.671   6.671   3.811
 7954TIP3   OH223804   3.479   7.020   2.653
 7954TIP3    H123805   3.434   7.079   2.592
 7954TIP3    H223806   3.493   7.072   2.731
 7955TIP3   OH223807   8.158   4.228   4.597
 7955TIP3    H123808   8.129   4.319   4.582
 7955TIP3    H223809   8.081   4.184   4.632
 7956TIP3   OH223810   3.340   3.920   0.435
 7956TIP3    H123811   3.320   4.001   0.387
 7956TIP3    H223812   3.319   3.941   0.526
 7957TIP3   OH223813   3.500   1.922   3.951
 7957TIP3    H123814   3.411   1.957   3.943
 7957TIP3    H223815   3.555   1.984   3.903
 7958TIP3   OH223816   1.788   1.429   4.729
 7958TIP3    H123817   1.846   1.451   4.656
 7958TIP3    H223818   1.838   1.369   4.783
 7959TIP3   OH223819   6.186   1.060   1.773
 7959TIP3    H123820   6.215   1.065   1.682
 7959TIP3    H223821   6.255   1.012   1.818
 7960TIP3   OH223822   7.505   7.445   2.108
 7960TIP3    H123823   7.565   7.462   2.036
 7960TIP3    H223824   7.561   7.414   2.179
 7961TIP3   OH223825   6.150   3.867   3.844
 7961TIP3    H123826   6.212   3.796   3.829
 7961TIP3    H223827   6.064   3.825   3.841
 7962TIP3   OH223828   6.783   7.727   3.303
 7962TIP3    H123829   6.802   7.637   3.278
 7962TIP3    H223830   6.789   7.727   3.399
 7963TIP3   OH223831   5.810   7.718   4.624
 7963TIP3    H123832   5.823   7.763   4.708
 7963TIP3    H223833   5.889   7.665   4.614
 7964TIP3   OH223834   6.817   5.838   4.350
 7964TIP3    H123835   6.863   5.884   4.420
 7964TIP3    H223836   6.783   5.758   4.392
 7965TIP3   OH223837   5.796   6.675   3.633
 7965TIP3    H123838   5.835   6.598   3.592
 7965TIP3    H223839   5.714   6.689   3.585
 7966TIP3   OH223840   1.321   6.013   2.392
 7966TIP3    H123841   1.372   5.933   2.385
 7966TIP3    H223842   1.233   5.989   2.363
 7967TIP3   OH223843   1.712   2.117   0.637
 7967TIP3    H123844   1.647   2.054   0.605
 7967TIP3    H223845   1.661   2.185   0.680
 7968TIP3   OH223846   0.583   3.515   3.445
 7968TIP3    H123847   0.539   3.599   3.432
 7968TIP3    H223848   0.643   3.531   3.518
 7969TIP3   OH223849   5.331   6.615   4.074
 7969TIP3    H123850   5.345   6.545   4.010
 7969TIP3    H223851   5.263   6.581   4.132
 7970TIP3   OH223852   7.087   4.309   0.452
 7970TIP3    H123853   7.026   4.357   0.396
 7970TIP3    H223854   7.043   4.226   0.470
 7971TIP3   OH223855   0.051   2.839   5.265
 7971TIP3    H123856   0.009   2.900   5.326
 7971TIP3    H223857  -0.021   2.791   5.225
 7972TIP3   OH223858   6.833   2.855   5.330
 7972TIP3    H123859   6.739   2.867   5.345
 7972TIP3    H223860   6.850   2.765   5.356
 7973TIP3   OH223861   3.621   1.065   1.137
 7973TIP3    H123862   3.705   1.034   1.169
 7973TIP3    H223863   3.643   1.137   1.077
 7974TIP3   OH223864   1.330   2.798   4.661
 7974TIP3    H123865   1.268   2.728   4.640
 7974TIP3    H223866   1.361   2.828   4.576
 7975TIP3   OH223867   5.759   2.453   5.418
 7975TIP3    H123868   5.789   2.371   5.458
 7975TIP3    H223869   5.832   2.480   5.362
 7976TIP3   OH223870   1.923   2.236   0.122
 7976TIP3    H123871   1.990   2.291   0.163
 7976TIP3    H223872   1.973   2.172   0.072
 7977TIP3   OH223873   7.042   5.090   6.215
 7977TIP3    H123874   7.106   5.045   6.160
 7977TIP3    H223875   7.054   5.053   6.302
 7978TIP3   OH223876   4.601   5.908   0.239
 7978TIP3    H123877   4.572   5.901   0.330
 7978TIP3    H223878   4.617   6.001   0.226
 7979TIP3   OH223879   5.972   6.143   1.068
 7979TIP3    H123880   6.045   6.158   1.008
 7979TIP3    H223881   5.914   6.083   1.020
 7980TIP3   OH223882   5.579   2.762   0.555
 7980TIP3    H123883   5.646   2.696   0.535
 7980TIP3    H223884   5.502   2.735   0.505
 7981TIP3   OH223885   4.634   3.706   5.884
 7981TIP3    H123886   4.673   3.639   5.828
 7981TIP3    H223887   4.547   3.674   5.904
 7982TIP3   OH223888   4.847   6.261   2.802
 7982TIP3    H123889   4.860   6.178   2.757
 7982TIP3    H223890   4.793   6.313   2.743
 7983TIP3   OH223891   7.300   6.605   3.262
 7983TIP3    H123892   7.355   6.546   3.313
 7983TIP3    H223893   7.261   6.664   3.326
 7984TIP3   OH223894   2.691   4.126   2.224
 7984TIP3    H123895   2.772   4.158   2.264
 7984TIP3    H223896   2.672   4.188   2.155
 7985TIP3   OH223897   7.068   6.296   1.113
 7985TIP3    H123898   7.147   6.316   1.163
 7985TIP3    H223899   7.078   6.204   1.089
 7986TIP3   OH223900   2.695   5.504   3.041
 7986TIP3    H123901   2.705   5.423   3.091
 7986TIP3    H223902   2.636   5.558   3.093
 7987TIP3   OH223903   6.588   2.759   2.380
 7987TIP3    H123904   6.506   2.713   2.397
 7987TIP3    H223905   6.576   2.798   2.294
 7988TIP3   OH223906   6.151   5.169   2.765
 7988TIP3    H123907   6.105   5.189   2.846
 7988TIP3    H223908   6.238   5.139   2.794
 7989TIP3   OH223909   3.902   7.196   4.623
 7989TIP3    H123910   3.993   7.214   4.644
 7989TIP3    H223911   3.884   7.110   4.660
 7990TIP3   OH223912   7.761   2.838   2.899
 7990TIP3    H123913   7.738   2.929   2.879
 7990TIP3    H223914   7.847   2.826   2.859
 7991TIP3   OH223915   7.193   1.877   2.844
 7991TIP3    H123916   7.141   1.802   2.873
 7991TIP3    H223917   7.237   1.908   2.923
 7992TIP3   OH223918   5.821   4.683   4.625
 7992TIP3    H123919   5.909   4.686   4.589
 7992TIP3    H223920   5.814   4.763   4.677
 7993TIP3   OH223921   2.357   0.840   0.942
 7993TIP3    H123922   2.434   0.795   0.975
 7993TIP3    H223923   2.286   0.776   0.952
 7994TIP3   OH223924   0.120   7.082   4.646
 7994TIP3    H123925   0.179   7.030   4.591
 7994TIP3    H223926   0.077   7.142   4.585
 7995TIP3   OH223927   8.112   1.643   2.708
 7995TIP3    H123928   8.192   1.691   2.689
 7995TIP3    H223929   8.044   1.711   2.710
 7996TIP3   OH223930   2.816   1.187   1.045
 7996TIP3    H123931   2.870   1.239   0.985
 7996TIP3    H223932   2.759   1.135   0.989
 7997TIP3   OH223933   6.699   0.729   3.543
 7997TIP3    H123934   6.763   0.662   3.517
 7997TIP3    H223935   6.615   0.684   3.540
 7998TIP3   OH223936   7.579   0.790   2.966
 7998TIP3    H123937   7.551   0.847   3.038
 7998TIP3    H223938   7.573   0.702   3.002
 7999TIP3   OH223939   2.879   4.821   1.183
 7999TIP3    H123940   2.962   4.829   1.230
 7999TIP3    H223941   2.883   4.887   1.114
 8000TIP3   OH223942   6.924   0.775   3.036
 8000TIP3    H123943   6.982   0.791   3.111
 8000TIP3    H223944   6.929   0.855   2.984
 8001TIP3   OH223945   3.881   7.002   4.073
 8001TIP3    H123946   3.839   7.060   4.010
 8001TIP3    H223947   3.881   7.052   4.155
 8002TIP3   OH223948   1.209   2.909   0.789
 8002TIP3    H123949   1.190   2.817   0.806
 8002TIP3    H223950   1.174   2.956   0.865
 8003TIP3   OH223951   2.824   7.479   6.101
 8003TIP3    H123952   2.762   7.549   6.077
 8003TIP3    H223953   2.789   7.401   6.057
 8004TIP3   OH223954   5.638   3.284   4.500
 8004TIP3    H123955   5.574   3.233   4.451
 8004TIP3    H223956   5.722   3.242   4.481
 8005TIP3   OH223957   6.244   4.938   3.721
 8005TIP3    H123958   6.203   5.016   3.756
 8005TIP3    H223959   6.194   4.917   3.642
 8006TIP3   OH223960   0.316   0.137   2.820
 8006TIP3    H123961   0.397   0.189   2.820
 8006TIP3    H223962   0.318   0.090   2.737
 8007TIP3   OH223963   8.130   0.832   4.807
 8007TIP3    H123964   8.161   0.778   4.735
 8007TIP3    H223965   8.167   0.919   4.790
 8008TIP3   OH223966   5.027   5.706   4.776
 8008TIP3    H123967   5.058   5.646   4.843
 8008TIP3    H223968   4.941   5.672   4.750
 8009TIP3   OH223969   3.786   0.903   4.238
 8009TIP3    H123970   3.823   0.866   4.318
 8009TIP3    H223971   3.759   0.826   4.187
 8010TIP3   OH223972   7.002   0.661   5.082
 8010TIP3    H123973   7.003   0.640   5.175
 8010TIP3    H223974   6.914   0.697   5.066
 8011TIP3   OH223975   4.883   3.841   2.503
 8011TIP3    H123976   4.862   3.921   2.551
 8011TIP3    H223977   4.871   3.864   2.411
 8012TIP3   OH223978   4.276   1.376   1.826
 8012TIP3    H123979   4.260   1.385   1.732
 8012TIP3    H223980   4.319   1.457   1.851
 8013TIP3   OH223981   1.597   1.595   4.931
 8013TIP3    H123982   1.613   1.555   5.017
 8013TIP3    H223983   1.664   1.559   4.874
 8014TIP3   OH223984   3.161   2.086   4.904
 8014TIP3    H123985   3.091   2.150   4.897
 8014TIP3    H223986   3.117   2.002   4.909
 8015TIP3   OH223987   5.274   1.376   4.875
 8015TIP3    H123988   5.320   1.450   4.914
 8015TIP3    H223989   5.209   1.416   4.817
 8016TIP3   OH223990   6.225   0.079   3.377
 8016TIP3    H123991   6.266   0.055   3.460
 8016TIP3    H223992   6.231   0.001   3.323
 8017TIP3   OH223993   6.988   0.885   1.385
 8017TIP3    H123994   7.029   0.908   1.468
 8017TIP3    H223995   6.967   0.792   1.393
 8018TIP3   OH223996   2.619   6.585   6.413
 8018TIP3    H123997   2.582   6.510   6.460
 8018TIP3    H223998   2.592   6.661   6.466
 8019TIP3   OH223999   2.403   7.806   5.899
 8019TIP3    H124000   2.392   7.850   5.983
 8019TIP3    H224001   2.331   7.743   5.895
 8020TIP3   OH224002   6.668   6.183   2.929
 8020TIP3    H124003   6.624   6.220   2.853
 8020TIP3    H224004   6.693   6.095   2.903
 8021TIP3   OH224005   5.406   0.101   0.507
 8021TIP3    H124006   5.450   0.150   0.439
 8021TIP3    H224007   5.406   0.011   0.476
 8022TIP3   OH224008   1.825   7.119   6.631
 8022TIP3    H124009   1.846   7.047   6.572
 8022TIP3    H224010   1.903   7.174   6.631
 8023TIP3   OH224011   5.662   0.139   4.819
 8023TIP3    H124012   5.724   0.212   4.823
 8023TIP3    H224013   5.700   0.079   4.754
 8024TIP3   OH224014   0.194   5.242   6.488
 8024TIP3    H124015   0.223   5.192   6.564
 8024TIP3    H224016   0.250   5.212   6.417
 8025TIP3   OH224017   3.668   1.990   5.586
 8025TIP3    H124018   3.667   2.054   5.515
 8025TIP3    H224019   3.715   2.034   5.657
 8026TIP3   OH224020   7.081   7.223   2.033
 8026TIP3    H124021   7.088   7.170   2.112
 8026TIP3    H224022   7.002   7.190   1.989
 8027TIP3   OH224023   0.264   4.825   5.561
 8027TIP3    H124024   0.347   4.828   5.608
 8027TIP3    H224025   0.197   4.819   5.629
 8028TIP3   OH224026   4.981   2.652   4.299
 8028TIP3    H124027   5.039   2.633   4.225
 8028TIP3    H224028   4.977   2.569   4.348
 8029TIP3   OH224029   2.525   2.423   4.883
 8029TIP3    H124030   2.528   2.416   4.979
 8029TIP3    H224031   2.443   2.380   4.859
 8030TIP3   OH224032   2.473   0.247   3.444
 8030TIP3    H124033   2.538   0.300   3.490
 8030TIP3    H224034   2.449   0.179   3.506
 8031TIP3   OH224035   1.667   3.394   4.114
 8031TIP3    H124036   1.627   3.326   4.168
 8031TIP3    H224037   1.598   3.459   4.103
 8032TIP3   OH224038   0.146   6.847   3.754
 8032TIP3    H124039   0.102   6.907   3.695
 8032TIP3    H224040   0.222   6.816   3.705
 8033TIP3   OH224041   1.234   0.181   0.170
 8033TIP3    H124042   1.277   0.254   0.214
 8033TIP3    H224043   1.303   0.116   0.157
 8034TIP3   OH224044   8.100   4.867   0.360
 8034TIP3    H124045   8.046   4.930   0.409
 8034TIP3    H224046   8.086   4.784   0.405
 8035TIP3   OH224047   4.385   1.563   0.279
 8035TIP3    H124048   4.352   1.555   0.368
 8035TIP3    H224049   4.336   1.498   0.229
 8036TIP3   OH224050   2.129   3.033   0.666
 8036TIP3    H124051   2.129   3.113   0.615
 8036TIP3    H224052   2.215   2.994   0.652
 8037TIP3   OH224053   4.369   5.268   1.442
 8037TIP3    H124054   4.407   5.209   1.376
 8037TIP3    H224055   4.436   5.335   1.456
 8038TIP3   OH224056   1.560   6.302   5.068
 8038TIP3    H124057   1.513   6.220   5.086
 8038TIP3    H224058   1.646   6.289   5.107
 8039TIP3   OH224059   4.657   6.498   1.868
 8039TIP3    H124060   4.585   6.492   1.804
 8039TIP3    H224061   4.735   6.476   1.818
 8040TIP3   OH224062   6.130   2.262   4.798
 8040TIP3    H124063   6.199   2.288   4.860
 8040TIP3    H224064   6.059   2.323   4.814
 8041TIP3   OH224065   8.108   6.192   3.058
 8041TIP3    H124066   8.187   6.137   3.061
 8041TIP3    H224067   8.061   6.160   2.981
 8042TIP3   OH224068   5.636   2.719   2.474
 8042TIP3    H124069   5.682   2.734   2.557
 8042TIP3    H224070   5.689   2.766   2.409
 8043TIP3   OH224071   1.997   4.888   6.137
 8043TIP3    H124072   1.945   4.939   6.199
 8043TIP3    H224073   2.037   4.953   6.079
 8044TIP3   OH224074   1.283   6.471   4.410
 8044TIP3    H124075   1.308   6.379   4.409
 8044TIP3    H224076   1.326   6.507   4.487
 8045TIP3   OH224077   1.060   3.752   3.081
 8045TIP3    H124078   0.993   3.739   3.148
 8045TIP3    H224079   1.095   3.840   3.099
 8046TIP3   OH224080   3.701   2.992   5.558
 8046TIP3    H124081   3.703   2.900   5.532
 8046TIP3    H224082   3.611   3.007   5.587
 8047TIP3   OH224083   5.226   5.454   4.765
 8047TIP3    H124084   5.265   5.466   4.679
 8047TIP3    H224085   5.236   5.539   4.808
 8048TIP3   OH224086   8.251   3.650   4.434
 8048TIP3    H124087   8.261   3.736   4.475
 8048TIP3    H224088   8.294   3.589   4.495
 8049TIP3   OH224089   3.704   2.475   5.993
 8049TIP3    H124090   3.780   2.434   5.952
 8049TIP3    H224091   3.661   2.522   5.921
 8050TIP3   OH224092   1.393   5.206   6.559
 8050TIP3    H124093   1.450   5.257   6.503
 8050TIP3    H224094   1.327   5.268   6.590
 8051TIP3   OH224095   4.429   0.008   5.109
 8051TIP3    H124096   4.481   0.088   5.108
 8051TIP3    H224097   4.397  -0.002   5.019
 8052TIP3   OH224098   5.381   6.501   0.319
 8052TIP3    H124099   5.304   6.520   0.266
 8052TIP3    H224100   5.381   6.571   0.386
 8053TIP3   OH224101   3.443   5.021   6.276
 8053TIP3    H124102   3.498   4.951   6.241
 8053TIP3    H224103   3.432   5.000   6.368
 8054TIP3   OH224104   2.584   2.681   0.384
 8054TIP3    H124105   2.665   2.632   0.397
 8054TIP3    H224106   2.610   2.756   0.331
 8055TIP3   OH224107   1.898   6.906   6.488
 8055TIP3    H124108   1.974   6.941   6.442
 8055TIP3    H224109   1.925   6.818   6.514
 8056TIP3   OH224110   3.107   7.318   5.870
 8056TIP3    H124111   3.035   7.349   5.815
 8056TIP3    H224112   3.064   7.281   5.947
 8057TIP3   OH224113   0.507   4.068   4.731
 8057TIP3    H124114   0.525   4.129   4.802
 8057TIP3    H224115   0.592   4.051   4.692
 8058TIP3   OH224116   5.196   0.514   5.369
 8058TIP3    H124117   5.218   0.596   5.413
 8058TIP3    H224118   5.141   0.467   5.432
 8059TIP3   OH224119   3.264   2.730   2.418
 8059TIP3    H124120   3.312   2.774   2.348
 8059TIP3    H224121   3.318   2.742   2.496
 8060TIP3   OH224122   1.666   4.048   1.979
 8060TIP3    H124123   1.608   3.973   1.986
 8060TIP3    H224124   1.613   4.115   1.936
 8061TIP3   OH224125   7.284   1.289   6.039
 8061TIP3    H124126   7.242   1.345   6.104
 8061TIP3    H224127   7.378   1.295   6.058
 8062TIP3   OH224128   6.551   4.645   6.110
 8062TIP3    H124129   6.457   4.625   6.118
 8062TIP3    H224130   6.554   4.740   6.100
 8063TIP3   OH224131   3.161   0.551   3.040
 8063TIP3    H124132   3.147   0.509   3.124
 8063TIP3    H224133   3.255   0.568   3.037
 8064TIP3   OH224134   7.158   5.335   5.908
 8064TIP3    H124135   7.222   5.273   5.943
 8064TIP3    H224136   7.205   5.382   5.839
 8065TIP3   OH224137   5.260   2.089   4.212
 8065TIP3    H124138   5.288   2.139   4.135
 8065TIP3    H224139   5.239   2.002   4.179
 8066TIP3   OH224140   5.201   5.513   6.716
 8066TIP3    H124141   5.120   5.481   6.757
 8066TIP3    H224142   5.265   5.444   6.733
 8067TIP3   OH224143   6.862   1.101   0.783
 8067TIP3    H124144   6.917   1.033   0.743
 8067TIP3    H224145   6.923   1.172   0.802
 8068TIP3   OH224146   0.937   4.633   5.741
 8068TIP3    H124147   0.952   4.542   5.717
 8068TIP3    H224148   0.850   4.633   5.781
 8069TIP3   OH224149   6.651   6.968   5.692
 8069TIP3    H124150   6.710   6.893   5.700
 8069TIP3    H224151   6.709   7.044   5.700
 8070TIP3   OH224152   0.999   1.394   5.400
 8070TIP3    H124153   0.990   1.308   5.441
 8070TIP3    H224154   1.038   1.376   5.315
 8071TIP3   OH224155   2.212   7.455   3.577
 8071TIP3    H124156   2.175   7.369   3.594
 8071TIP3    H224157   2.138   7.515   3.582
 8072TIP3   OH224158   7.776   4.241   2.445
 8072TIP3    H124159   7.789   4.294   2.524
 8072TIP3    H224160   7.865   4.223   2.414
 8073TIP3   OH224161   7.061   6.491   3.193
 8073TIP3    H124162   7.142   6.543   3.195
 8073TIP3    H224163   7.067   6.441   3.113
 8074TIP3   OH224164   0.345   5.999   3.267
 8074TIP3    H124165   0.260   6.015   3.307
 8074TIP3    H224166   0.398   6.074   3.292
 8075TIP3   OH224167   6.233   2.833   0.918
 8075TIP3    H124168   6.177   2.906   0.944
 8075TIP3    H224169   6.315   2.846   0.966
 8076TIP3   OH224170   2.341   3.647   3.967
 8076TIP3    H124171   2.273   3.580   3.976
 8076TIP3    H224172   2.360   3.650   3.873
 8077TIP3   OH224173   4.226   5.946   5.810
 8077TIP3    H124174   4.242   5.855   5.784
 8077TIP3    H224175   4.262   5.952   5.899
 8078TIP3   OH224176   4.049   3.300   1.105
 8078TIP3    H124177   4.083   3.366   1.165
 8078TIP3    H224178   4.021   3.228   1.162
 8079TIP3   OH224179   3.545   0.710   1.294
 8079TIP3    H124180   3.507   0.793   1.324
 8079TIP3    H224181   3.631   0.734   1.262
 8080TIP3   OH224182   1.998   6.836   0.625
 8080TIP3    H124183   1.928   6.883   0.579
 8080TIP3    H224184   2.008   6.755   0.575
 8081TIP3   OH224185   4.866   0.184   0.673
 8081TIP3    H124186   4.942   0.134   0.645
 8081TIP3    H224187   4.866   0.177   0.769
 8082TIP3   OH224188   0.208   4.789   2.833
 8082TIP3    H124189   0.154   4.820   2.906
 8082TIP3    H224190   0.252   4.711   2.866
 8083TIP3   OH224191   6.644   3.663   5.212
 8083TIP3    H124192   6.612   3.709   5.290
 8083TIP3    H224193   6.581   3.593   5.197
 8084TIP3   OH224194   0.119   4.211   6.456
 8084TIP3    H124195   0.172   4.201   6.535
 8084TIP3    H224196   0.117   4.305   6.440
 8085TIP3   OH224197   7.546   6.864   5.880
 8085TIP3    H124198   7.540   6.769   5.882
 8085TIP3    H224199   7.582   6.887   5.966
 8086TIP3   OH224200   1.823   4.864   6.679
 8086TIP3    H124201   1.732   4.838   6.686
 8086TIP3    H224202   1.827   4.915   6.598
 8087TIP3   OH224203   2.400   5.041   5.897
 8087TIP3    H124204   2.422   4.953   5.865
 8087TIP3    H224205   2.435   5.044   5.986
 8088TIP3   OH224206   3.290   6.247   0.967
 8088TIP3    H124207   3.207   6.202   0.980
 8088TIP3    H224208   3.356   6.178   0.965
 8089TIP3   OH224209   3.690   4.306   5.275
 8089TIP3    H124210   3.736   4.246   5.216
 8089TIP3    H224211   3.758   4.368   5.304
 8090TIP3   OH224212   2.007   6.712   4.243
 8090TIP3    H124213   2.029   6.630   4.287
 8090TIP3    H224214   2.039   6.780   4.303
 8091TIP3   OH224215   6.801   0.414   0.688
 8091TIP3    H124216   6.775   0.454   0.771
 8091TIP3    H224217   6.806   0.488   0.627
 8092TIP3   OH224218   3.611   6.229   1.482
 8092TIP3    H124219   3.569   6.277   1.553
 8092TIP3    H224220   3.676   6.174   1.526
 8093TIP3   OH224221   7.488   4.659   5.443
 8093TIP3    H124222   7.402   4.692   5.416
 8093TIP3    H224223   7.530   4.735   5.485
 8094TIP3   OH224224   6.211   3.878   5.696
 8094TIP3    H124225   6.137   3.925   5.734
 8094TIP3    H224226   6.285   3.938   5.705
 8095TIP3   OH224227   7.634   3.066   4.466
 8095TIP3    H124228   7.553   3.035   4.506
 8095TIP3    H224229   7.702   3.007   4.499
 8096TIP3   OH224230   5.411   0.139   0.805
 8096TIP3    H124231   5.405   0.110   0.714
 8096TIP3    H224232   5.496   0.183   0.811
 8097TIP3   OH224233   1.475   2.021   3.174
 8097TIP3    H124234   1.445   1.962   3.104
 8097TIP3    H224235   1.408   2.089   3.179
 8098TIP3   OH224236   6.524   6.690   5.395
 8098TIP3    H124237   6.442   6.688   5.346
 8098TIP3    H224238   6.497   6.684   5.487
 8099TIP3   OH224239   6.055   5.243   5.791
 8099TIP3    H124240   6.115   5.236   5.717
 8099TIP3    H224241   6.023   5.155   5.805
 8100TIP3   OH224242   3.085   2.169   4.258
 8100TIP3    H124243   3.139   2.111   4.311
 8100TIP3    H224244   3.038   2.224   4.321
 8101TIP3   OH224245   5.890   1.848   1.227
 8101TIP3    H124246   5.804   1.890   1.234
 8101TIP3    H224247   5.945   1.914   1.185
 8102TIP3   OH224248   3.277   1.620   2.885
 8102TIP3    H124249   3.254   1.533   2.918
 8102TIP3    H224250   3.192   1.663   2.869
 8103TIP3   OH224251   5.562   6.260   4.181
 8103TIP3    H124252   5.619   6.330   4.213
 8103TIP3    H224253   5.619   6.203   4.130
 8104TIP3   OH224254   7.130   3.870   6.717
 8104TIP3    H124255   7.120   3.962   6.690
 8104TIP3    H224256   7.071   3.822   6.659
 8105TIP3   OH224257   3.183   7.744   2.502
 8105TIP3    H124258   3.117   7.801   2.462
 8105TIP3    H224259   3.165   7.750   2.596
 8106TIP3   OH224260   6.880   6.492   3.856
 8106TIP3    H124261   6.874   6.481   3.761
 8106TIP3    H224262   6.820   6.564   3.876
 8107TIP3   OH224263   6.666   6.018   2.557
 8107TIP3    H124264   6.636   5.996   2.469
 8107TIP3    H224265   6.693   5.934   2.595
 8108TIP3   OH224266   4.395   5.099   2.479
 8108TIP3    H124267   4.366   5.174   2.531
 8108TIP3    H224268   4.429   5.137   2.398
 8109TIP3   OH224269   4.029   3.937   4.451
 8109TIP3    H124270   3.987   3.933   4.365
 8109TIP3    H224271   4.025   4.030   4.475
 8110TIP3   OH224272   0.010   6.891   2.242
 8110TIP3    H124273  -0.083   6.871   2.253
 8110TIP3    H224274   0.026   6.964   2.301
 8111TIP3   OH224275   2.089   0.134   6.512
 8111TIP3    H124276   2.166   0.094   6.471
 8111TIP3    H224277   2.023   0.135   6.443
 8112TIP3   OH224278   5.318   2.974   4.706
 8112TIP3    H124279   5.371   2.955   4.784
 8112TIP3    H224280   5.240   2.919   4.717
 8113TIP3   OH224281   7.834   0.907   2.852
 8113TIP3    H124282   7.789   0.842   2.906
 8113TIP3    H224283   7.765   0.946   2.799
 8114TIP3   OH224284   5.128   5.650   5.566
 8114TIP3    H124285   5.197   5.588   5.540
 8114TIP3    H224286   5.169   5.736   5.556
 8115TIP3   OH224287   0.215   2.730   3.442
 8115TIP3    H124288   0.226   2.800   3.378
 8115TIP3    H224289   0.123   2.738   3.469
 8116TIP3   OH224290   5.437   5.316   4.921
 8116TIP3    H124291   5.429   5.228   4.884
 8116TIP3    H224292   5.347   5.347   4.930
 8117TIP3   OH224293   4.726   2.787   5.416
 8117TIP3    H124294   4.734   2.701   5.457
 8117TIP3    H224295   4.636   2.815   5.435
 8118TIP3   OH224296   2.784   5.921   3.848
 8118TIP3    H124297   2.733   5.884   3.776
 8118TIP3    H224298   2.723   5.979   3.893
 8119TIP3   OH224299   2.995   2.535   5.465
 8119TIP3    H124300   2.966   2.462   5.519
 8119TIP3    H224301   2.927   2.601   5.476
 8120TIP3   OH224302   3.869   6.351   6.711
 8120TIP3    H124303   3.925   6.273   6.715
 8120TIP3    H224304   3.874   6.389   6.799
 8121TIP3   OH224305   0.767   0.574   6.765
 8121TIP3    H124306   0.708   0.641   6.730
 8121TIP3    H224307   0.746   0.570   6.858
 8122TIP3   OH224308   2.328   0.914   1.316
 8122TIP3    H124309   2.335   1.006   1.342
 8122TIP3    H224310   2.292   0.870   1.393
 8123TIP3   OH224311   1.292   7.277   5.885
 8123TIP3    H124312   1.246   7.231   5.815
 8123TIP3    H224313   1.347   7.210   5.925
 8124TIP3   OH224314   6.621   0.318   6.201
 8124TIP3    H124315   6.544   0.342   6.252
 8124TIP3    H224316   6.640   0.228   6.227
 8125TIP3   OH224317   7.341   7.320   1.331
 8125TIP3    H124318   7.351   7.328   1.236
 8125TIP3    H224319   7.246   7.324   1.346
 8126TIP3   OH224320   6.897   4.583   1.229
 8126TIP3    H124321   6.845   4.557   1.305
 8126TIP3    H224322   6.928   4.501   1.192
 8127TIP3   OH224323   4.420   1.623   0.556
 8127TIP3    H124324   4.510   1.593   0.540
 8127TIP3    H224325   4.373   1.544   0.584
 8128TIP3   OH224326   2.200   5.733   0.683
 8128TIP3    H124327   2.285   5.689   0.682
 8128TIP3    H224328   2.165   5.715   0.770
 8129TIP3   OH224329   4.475   0.410   4.466
 8129TIP3    H124330   4.532   0.340   4.496
 8129TIP3    H224331   4.515   0.441   4.384
 8130TIP3   OH224332   3.266   3.235   0.087
 8130TIP3    H124333   3.199   3.270   0.029
 8130TIP3    H224334   3.255   3.285   0.169
 8131TIP3   OH224335   0.856   2.909   5.467
 8131TIP3    H124336   0.781   2.907   5.525
 8131TIP3    H224337   0.818   2.911   5.379
 8132TIP3   OH224338   4.612   7.343   6.467
 8132TIP3    H124339   4.521   7.340   6.496
 8132TIP3    H224340   4.655   7.400   6.530
 8133TIP3   OH224341   2.417   5.948   6.618
 8133TIP3    H124342   2.469   5.972   6.694
 8133TIP3    H224343   2.445   6.009   6.550
 8134TIP3   OH224344   5.170   5.581   2.054
 8134TIP3    H124345   5.129   5.528   1.985
 8134TIP3    H224346   5.118   5.662   2.056
 8135TIP3   OH224347   0.709   0.897   3.674
 8135TIP3    H124348   0.719   0.978   3.725
 8135TIP3    H224349   0.625   0.906   3.630
 8136TIP3   OH224350   5.776   7.658   6.629
 8136TIP3    H124351   5.687   7.655   6.664
 8136TIP3    H224352   5.820   7.726   6.680
 8137TIP3   OH224353   6.864   3.266   2.970
 8137TIP3    H124354   6.931   3.222   3.022
 8137TIP3    H224355   6.783   3.253   3.020
 8138TIP3   OH224356   2.140   5.374   3.855
 8138TIP3    H124357   2.208   5.358   3.920
 8138TIP3    H224358   2.154   5.463   3.825
 8139TIP3   OH224359   3.139   2.625   0.163
 8139TIP3    H124360   3.195   2.547   0.152
 8139TIP3    H224361   3.090   2.608   0.243
 8140TIP3   OH224362   0.413   6.465   3.115
 8140TIP3    H124363   0.350   6.533   3.090
 8140TIP3    H224364   0.402   6.456   3.210
 8141TIP3   OH224365   1.309   4.419   1.831
 8141TIP3    H124366   1.302   4.512   1.851
 8141TIP3    H224367   1.286   4.412   1.738
 8142TIP3   OH224368   3.548   0.555   2.973
 8142TIP3    H124369   3.615   0.624   2.971
 8142TIP3    H224370   3.504   0.566   3.057
 8143TIP3   OH224371   3.128   3.453   1.426
 8143TIP3    H124372   3.159   3.434   1.515
 8143TIP3    H224373   3.129   3.368   1.382
 8144TIP3   OH224374   7.211   6.675   5.169
 8144TIP3    H124375   7.262   6.750   5.139
 8144TIP3    H224376   7.169   6.706   5.249
 8145TIP3   OH224377   6.046   2.143   5.994
 8145TIP3    H124378   6.058   2.121   6.086
 8145TIP3    H224379   5.963   2.103   5.970
 8146TIP3   OH224380   2.514   4.571   0.726
 8146TIP3    H124381   2.461   4.497   0.697
 8146TIP3    H224382   2.517   4.630   0.651
 8147TIP3   OH224383   5.478   5.041   3.438
 8147TIP3    H124384   5.427   5.091   3.502
 8147TIP3    H224385   5.435   4.956   3.435
 8148TIP3   OH224386   0.835   5.828   2.539
 8148TIP3    H124387   0.816   5.754   2.482
 8148TIP3    H224388   0.893   5.884   2.488
 8149TIP3   OH224389   0.971   5.103   3.771
 8149TIP3    H124390   0.947   5.055   3.692
 8149TIP3    H224391   0.893   5.099   3.826
 8150TIP3   OH224392   5.310   3.005   6.073
 8150TIP3    H124393   5.299   2.994   5.978
 8150TIP3    H224394   5.223   3.025   6.106
 8151TIP3   OH224395   5.749   1.409   3.576
 8151TIP3    H124396   5.708   1.436   3.494
 8151TIP3    H224397   5.792   1.326   3.554
 8152TIP3   OH224398   4.995   5.413   5.426
 8152TIP3    H124399   4.967   5.492   5.473
 8152TIP3    H224400   4.919   5.388   5.373
 8153TIP3   OH224401   6.781   6.877   3.193
 8153TIP3    H124402   6.805   6.796   3.147
 8153TIP3    H224403   6.693   6.859   3.228
 8154TIP3   OH224404   7.077   2.131   2.232
 8154TIP3    H124405   7.023   2.128   2.153
 8154TIP3    H224406   7.015   2.122   2.304
 8155TIP3   OH224407   6.942   2.338   6.145
 8155TIP3    H124408   6.987   2.264   6.186
 8155TIP3    H224409   6.861   2.300   6.111
 8156TIP3   OH224410   3.420   6.156   4.148
 8156TIP3    H124411   3.407   6.112   4.232
 8156TIP3    H224412   3.332   6.167   4.113
 8157TIP3   OH224413   3.693   5.058   5.513
 8157TIP3    H124414   3.724   5.140   5.474
 8157TIP3    H224415   3.696   5.074   5.607
 8158TIP3   OH224416   3.190   2.162   2.555
 8158TIP3    H124417   3.139   2.132   2.631
 8158TIP3    H224418   3.233   2.083   2.522
 8159TIP3   OH224419   4.604   0.760   4.156
 8159TIP3    H124420   4.670   0.826   4.179
 8159TIP3    H224421   4.654   0.679   4.147
 8160TIP3   OH224422   1.522   5.201   1.686
 8160TIP3    H124423   1.497   5.144   1.613
 8160TIP3    H224424   1.616   5.213   1.676
 8161TIP3   OH224425   6.296   4.695   4.567
 8161TIP3    H124426   6.281   4.608   4.531
 8161TIP3    H224427   6.327   4.680   4.656
 8162TIP3   OH224428   5.401   0.094   2.192
 8162TIP3    H124429   5.440   0.156   2.255
 8162TIP3    H224430   5.365   0.024   2.247
 8163TIP3   OH224431   4.288   7.664   5.235
 8163TIP3    H124432   4.283   7.623   5.321
 8163TIP3    H224433   4.251   7.599   5.175
 8164TIP3   OH224434   5.698   1.281   6.142
 8164TIP3    H124435   5.657   1.240   6.218
 8164TIP3    H224436   5.651   1.245   6.067
 8165TIP3   OH224437   1.221   1.239   2.722
 8165TIP3    H124438   1.184   1.325   2.701
 8165TIP3    H224439   1.155   1.176   2.691
 8166TIP3   OH224440   1.108   6.988   1.404
 8166TIP3    H124441   1.169   7.061   1.409
 8166TIP3    H224442   1.126   6.946   1.320
 8167TIP3   OH224443   5.472   7.621   5.142
 8167TIP3    H124444   5.548   7.661   5.101
 8167TIP3    H224445   5.398   7.678   5.119
 8168TIP3   OH224446   5.178   1.762   5.148
 8168TIP3    H124447   5.123   1.689   5.175
 8168TIP3    H224448   5.120   1.838   5.151
 8169TIP3   OH224449   3.326   2.971   0.614
 8169TIP3    H124450   3.330   3.066   0.624
 8169TIP3    H224451   3.264   2.942   0.681
 8170TIP3   OH224452   4.843   5.607   3.175
 8170TIP3    H124453   4.784   5.681   3.164
 8170TIP3    H224454   4.854   5.571   3.087
 8171TIP3   OH224455   0.617   2.018   1.288
 8171TIP3    H124456   0.699   2.064   1.268
 8171TIP3    H224457   0.595   1.973   1.207
 8172TIP3   OH224458   4.966   1.390   0.922
 8172TIP3    H124459   4.944   1.297   0.927
 8172TIP3    H224460   4.882   1.434   0.909
 8173TIP3   OH224461   7.802   1.192   4.106
 8173TIP3    H124462   7.736   1.258   4.128
 8173TIP3    H224463   7.803   1.133   4.181
 8174TIP3   OH224464   4.670   7.698   0.632
 8174TIP3    H124465   4.690   7.759   0.560
 8174TIP3    H224466   4.579   7.716   0.654
 8175TIP3   OH224467   2.280   2.230   0.351
 8175TIP3    H124468   2.364   2.245   0.395
 8175TIP3    H224469   2.256   2.141   0.375
 8176TIP3   OH224470   6.863   4.385   6.526
 8176TIP3    H124471   6.878   4.410   6.435
 8176TIP3    H224472   6.898   4.297   6.534
 8177TIP3   OH224473   1.381   0.057   3.812
 8177TIP3    H124474   1.305   0.002   3.792
 8177TIP3    H224475   1.441  -0.002   3.858
 8178TIP3   OH224476   4.036   7.698   3.078
 8178TIP3    H124477   4.064   7.790   3.077
 8178TIP3    H224478   4.118   7.648   3.081
 8179TIP3   OH224479   3.872   0.638   1.369
 8179TIP3    H124480   3.954   0.590   1.358
 8179TIP3    H224481   3.894   0.709   1.429
 8180TIP3   OH224482   7.703   6.659   1.294
 8180TIP3    H124483   7.608   6.661   1.301
 8180TIP3    H224484   7.720   6.610   1.213
 8181TIP3   OH224485   4.720   2.006   3.630
 8181TIP3    H124486   4.815   1.989   3.627
 8181TIP3    H224487   4.683   1.927   3.668
 8182TIP3   OH224488   2.262   0.425   1.017
 8182TIP3    H124489   2.265   0.501   1.075
 8182TIP3    H224490   2.212   0.359   1.065
 8183TIP3   OH224491   0.951   3.327   0.808
 8183TIP3    H124492   0.896   3.402   0.786
 8183TIP3    H224493   0.947   3.321   0.904
 8184TIP3   OH224494   7.958   7.025   0.311
 8184TIP3    H124495   7.945   7.119   0.316
 8184TIP3    H224496   7.971   7.007   0.218
 8185TIP3   OH224497   3.478   0.100   5.281
 8185TIP3    H124498   3.564   0.140   5.265
 8185TIP3    H224499   3.416   0.171   5.269
 8186TIP3   OH224500   4.992   5.611   0.643
 8186TIP3    H124501   5.081   5.615   0.610
 8186TIP3    H224502   4.958   5.700   0.630
 8187TIP3   OH224503   6.314   2.020   1.533
 8187TIP3    H124504   6.292   2.025   1.440
 8187TIP3    H224505   6.230   2.034   1.578
 8188TIP3   OH224506   2.461   6.150   3.416
 8188TIP3    H124507   2.486   6.183   3.502
 8188TIP3    H224508   2.378   6.194   3.397
 8189TIP3   OH224509   4.911   0.691   5.487
 8189TIP3    H124510   4.904   0.784   5.468
 8189TIP3    H224511   4.881   0.647   5.407
 8190TIP3   OH224512   6.623   0.975   2.510
 8190TIP3    H124513   6.668   0.934   2.437
 8190TIP3    H224514   6.554   0.913   2.534
 8191TIP3   OH224515   1.163   7.522   5.962
 8191TIP3    H124516   1.237   7.465   5.942
 8191TIP3    H224517   1.199   7.590   6.019
 8192TIP3   OH224518   6.857   2.866   4.641
 8192TIP3    H124519   6.925   2.885   4.577
 8192TIP3    H224520   6.778   2.906   4.605
 8193TIP3   OH224521   0.735   5.360   4.383
 8193TIP3    H124522   0.673   5.393   4.318
 8193TIP3    H224523   0.726   5.421   4.457
 8194TIP3   OH224524   8.268   4.885   6.615
 8194TIP3    H124525   8.193   4.945   6.615
 8194TIP3    H224526   8.273   4.853   6.705
 8195TIP3   OH224527   1.826   2.752   0.849
 8195TIP3    H124528   1.741   2.707   0.852
 8195TIP3    H224529   1.853   2.758   0.940
 8196TIP3   OH224530   2.029   3.389   3.751
 8196TIP3    H124531   2.070   3.318   3.800
 8196TIP3    H224532   2.090   3.407   3.679
 8197TIP3   OH224533   7.028   6.704   6.625
 8197TIP3    H124534   7.071   6.628   6.665
 8197TIP3    H224535   7.096   6.772   6.624
 8198TIP3   OH224536   0.838   6.141   2.203
 8198TIP3    H124537   0.761   6.178   2.245
 8198TIP3    H224538   0.804   6.082   2.136
 8199TIP3   OH224539   2.032   4.707   4.608
 8199TIP3    H124540   1.975   4.720   4.532
 8199TIP3    H224541   2.016   4.783   4.664
 8200TIP3   OH224542   2.238   6.412   2.236
 8200TIP3    H124543   2.203   6.330   2.270
 8200TIP3    H224544   2.320   6.387   2.194
 8201TIP3   OH224545   1.300   6.082   1.713
 8201TIP3    H124546   1.286   5.988   1.702
 8201TIP3    H224547   1.394   6.093   1.701
 8202TIP3   OH224548   6.616   1.740   5.508
 8202TIP3    H124549   6.580   1.674   5.568
 8202TIP3    H224550   6.647   1.811   5.565
 8203TIP3   OH224551   0.066   4.197   5.860
 8203TIP3    H124552   0.139   4.209   5.799
 8203TIP3    H224553  -0.012   4.205   5.805
 8204TIP3   OH224554   5.216   6.625   2.421
 8204TIP3    H124555   5.141   6.567   2.432
 8204TIP3    H224556   5.186   6.710   2.454
 8205TIP3   OH224557   3.542   2.571   1.224
 8205TIP3    H124558   3.457   2.603   1.194
 8205TIP3    H224559   3.527   2.479   1.245
 8206TIP3   OH224560   3.818   7.605   3.508
 8206TIP3    H124561   3.913   7.604   3.492
 8206TIP3    H224562   3.810   7.582   3.601
 8207TIP3   OH224563   0.969   3.144   4.679
 8207TIP3    H124564   0.907   3.212   4.702
 8207TIP3    H224565   0.915   3.071   4.649
 8208TIP3   OH224566   0.130   1.859   6.392
 8208TIP3    H124567   0.153   1.921   6.462
 8208TIP3    H224568   0.160   1.774   6.424
 8209TIP3   OH224569   1.282   7.308   6.570
 8209TIP3    H124570   1.202   7.357   6.553
 8209TIP3    H224571   1.294   7.253   6.492
 8210TIP3   OH224572   1.840   0.894   1.077
 8210TIP3    H124573   1.814   0.874   0.987
 8210TIP3    H224574   1.786   0.968   1.103
 8211TIP3   OH224575   1.359   1.982   0.235
 8211TIP3    H124576   1.271   2.018   0.239
 8211TIP3    H224577   1.349   1.899   0.188
 8212TIP3   OH224578   4.167   4.969   2.396
 8212TIP3    H124579   4.217   5.048   2.416
 8212TIP3    H224580   4.218   4.898   2.436
 8213TIP3   OH224581   5.186   7.629   0.361
 8213TIP3    H124582   5.134   7.550   0.376
 8213TIP3    H224583   5.246   7.632   0.436
 8214TIP3   OH224584   4.375   7.562   3.749
 8214TIP3    H124585   4.298   7.538   3.696
 8214TIP3    H224586   4.342   7.569   3.838
 8215TIP3   OH224587   7.480   4.800   2.750
 8215TIP3    H124588   7.441   4.769   2.668
 8215TIP3    H224589   7.460   4.894   2.752
 8216TIP3   OH224590   5.283   5.726   4.640
 8216TIP3    H124591   5.301   5.810   4.599
 8216TIP3    H224592   5.188   5.723   4.647
 8217TIP3   OH224593   4.302   1.306   3.954
 8217TIP3    H124594   4.240   1.330   4.022
 8217TIP3    H224595   4.362   1.381   3.948
 8218TIP3   OH224596   1.106   6.436   3.917
 8218TIP3    H124597   1.056   6.496   3.972
 8218TIP3    H224598   1.043   6.406   3.851
 8219TIP3   OH224599   7.104   2.118   0.415
 8219TIP3    H124600   7.175   2.083   0.468
 8219TIP3    H224601   7.147   2.177   0.353
 8220TIP3   OH224602   0.096   6.023   1.703
 8220TIP3    H124603   0.017   5.971   1.692
 8220TIP3    H224604   0.131   5.995   1.788
 8221TIP3   OH224605   5.351   5.293   6.174
 8221TIP3    H124606   5.430   5.328   6.215
 8221TIP3    H224607   5.296   5.267   6.247
 8222TIP3   OH224608   7.610   4.365   1.325
 8222TIP3    H124609   7.575   4.277   1.339
 8222TIP3    H224610   7.534   4.422   1.332
 8223TIP3   OH224611   1.032   1.217   5.817
 8223TIP3    H124612   1.038   1.302   5.774
 8223TIP3    H224613   0.947   1.219   5.862
 8224TIP3   OH224614   0.051   6.553   2.464
 8224TIP3    H124615   0.042   6.642   2.500
 8224TIP3    H224616  -0.016   6.502   2.509
 8225TIP3   OH224617   1.754   0.723   3.720
 8225TIP3    H124618   1.699   0.791   3.758
 8225TIP3    H224619   1.692   0.664   3.677
 8226TIP3   OH224620   4.861   5.656   6.264
 8226TIP3    H124621   4.911   5.598   6.206
 8226TIP3    H224622   4.926   5.718   6.297
 8227TIP3   OH224623   8.176   2.078   2.976
 8227TIP3    H124624   8.216   2.019   3.039
 8227TIP3    H224625   8.083   2.078   2.998
 8228TIP3   OH224626   0.630   0.325   6.525
 8228TIP3    H124627   0.601   0.413   6.546
 8228TIP3    H224628   0.568   0.295   6.458
 8229TIP3   OH224629   7.598   5.699   6.449
 8229TIP3    H124630   7.629   5.657   6.529
 8229TIP3    H224631   7.503   5.692   6.453
 8230TIP3   OH224632   5.452   5.772   4.982
 8230TIP3    H124633   5.414   5.856   5.007
 8230TIP3    H224634   5.458   5.724   5.065
 8231TIP3   OH224635   7.304   7.659   4.137
 8231TIP3    H124636   7.398   7.672   4.150
 8231TIP3    H224637   7.274   7.616   4.217
 8232TIP3   OH224638   2.521   3.008   4.448
 8232TIP3    H124639   2.437   3.037   4.483
 8232TIP3    H224640   2.579   3.006   4.525
 8233TIP3   OH224641   0.100   0.419   0.643
 8233TIP3    H124642   0.049   0.496   0.671
 8233TIP3    H224643   0.058   0.345   0.687
 8234TIP3   OH224644   4.103   1.848   2.971
 8234TIP3    H124645   4.116   1.929   2.922
 8234TIP3    H224646   4.068   1.878   3.056
 8235TIP3   OH224647   0.502   1.444   5.319
 8235TIP3    H124648   0.568   1.407   5.260
 8235TIP3    H224649   0.521   1.538   5.322
 8236TIP3   OH224650   5.169   0.147   2.987
 8236TIP3    H124651   5.181   0.239   2.961
 8236TIP3    H224652   5.156   0.100   2.905
 8237TIP3   OH224653   0.227   2.315   5.272
 8237TIP3    H124654   0.210   2.406   5.296
 8237TIP3    H224655   0.260   2.274   5.352
 8238TIP3   OH224656   0.297   5.020   3.595
 8238TIP3    H124657   0.241   5.015   3.673
 8238TIP3    H224658   0.262   5.095   3.546
 8239TIP3   OH224659   5.108   4.520   0.612
 8239TIP3    H124660   5.151   4.476   0.685
 8239TIP3    H224661   5.033   4.566   0.652
 8240TIP3   OH224662   6.926   4.874   0.738
 8240TIP3    H124663   6.936   4.918   0.653
 8240TIP3    H224664   6.894   4.943   0.796
 8241TIP3   OH224665   4.402   5.764   6.271
 8241TIP3    H124666   4.352   5.743   6.349
 8241TIP3    H224667   4.410   5.860   6.272
 8242TIP3   OH224668   0.658   0.873   1.662
 8242TIP3    H124669   0.686   0.878   1.570
 8242TIP3    H224670   0.567   0.845   1.658
 8243TIP3   OH224671   5.336   5.897   1.698
 8243TIP3    H124672   5.244   5.922   1.688
 8243TIP3    H224673   5.348   5.825   1.636
 8244TIP3   OH224674   1.498   2.666   2.754
 8244TIP3    H124675   1.572   2.648   2.813
 8244TIP3    H224676   1.426   2.687   2.813
 8245TIP3   OH224677   0.594   5.273   2.726
 8245TIP3    H124678   0.510   5.291   2.768
 8245TIP3    H224679   0.647   5.351   2.742
 8246TIP3   OH224680   1.622   5.831   6.006
 8246TIP3    H124681   1.712   5.860   6.021
 8246TIP3    H224682   1.631   5.748   5.958
 8247TIP3   OH224683   1.519   5.076   1.946
 8247TIP3    H124684   1.491   5.098   1.858
 8247TIP3    H224685   1.613   5.063   1.939
 8248TIP3   OH224686   4.797   2.312   1.422
 8248TIP3    H124687   4.892   2.305   1.431
 8248TIP3    H224688   4.780   2.295   1.329
 8249TIP3   OH224689   6.544   7.752   5.750
 8249TIP3    H124690   6.488   7.825   5.722
 8249TIP3    H224691   6.594   7.729   5.672
 8250TIP3   OH224692   7.154   7.016   4.157
 8250TIP3    H124693   7.106   6.995   4.077
 8250TIP3    H224694   7.237   7.052   4.127
 8251TIP3   OH224695   3.223   1.936   3.310
 8251TIP3    H124696   3.316   1.929   3.328
 8251TIP3    H224697   3.216   1.923   3.215
 8252TIP3   OH224698   4.430   3.652   0.637
 8252TIP3    H124699   4.513   3.691   0.610
 8252TIP3    H224700   4.446   3.624   0.727
 8253TIP3   OH224701   0.783   6.270   6.287
 8253TIP3    H124702   0.747   6.186   6.259
 8253TIP3    H224703   0.721   6.303   6.352
 8254TIP3   OH224704   7.807   6.786   3.074
 8254TIP3    H124705   7.890   6.744   3.051
 8254TIP3    H224706   7.743   6.747   3.015
 8255TIP3   OH224707   0.489   5.348   6.523
 8255TIP3    H124708   0.452   5.260   6.510
 8255TIP3    H224709   0.575   5.333   6.562
 8256TIP3   OH224710   2.633   0.759   0.969
 8256TIP3    H124711   2.672   0.739   0.885
 8256TIP3    H224712   2.684   0.833   1.003
 8257TIP3   OH224713   6.143   6.394   4.834
 8257TIP3    H124714   6.203   6.334   4.878
 8257TIP3    H224715   6.089   6.338   4.779
 8258TIP3   OH224716   3.139   5.162   4.832
 8258TIP3    H124717   3.054   5.172   4.791
 8258TIP3    H224718   3.151   5.067   4.840
 8259TIP3   OH224719   3.222   6.464   6.414
 8259TIP3    H124720   3.170   6.406   6.470
 8259TIP3    H224721   3.311   6.430   6.420
 8260TIP3   OH224722   1.055   1.994   1.829
 8260TIP3    H124723   1.050   2.060   1.760
 8260TIP3    H224724   1.017   2.036   1.906
 8261TIP3   OH224725   4.354   5.967   1.978
 8261TIP3    H124726   4.276   5.913   1.986
 8261TIP3    H224727   4.344   6.034   2.046
 8262TIP3   OH224728   4.792   5.643   0.254
 8262TIP3    H124729   4.778   5.565   0.308
 8262TIP3    H224730   4.712   5.651   0.202
 8263TIP3   OH224731   3.248   4.315   3.791
 8263TIP3    H124732   3.265   4.405   3.763
 8263TIP3    H224733   3.180   4.323   3.858
 8264TIP3   OH224734   3.499   7.571   4.325
 8264TIP3    H124735   3.567   7.510   4.295
 8264TIP3    H224736   3.515   7.581   4.419
 8265TIP3   OH224737   3.775   2.717   5.439
 8265TIP3    H124738   3.713   2.723   5.366
 8265TIP3    H224739   3.748   2.639   5.487
 8266TIP3   OH224740   2.444   2.121   6.088
 8266TIP3    H124741   2.478   2.128   6.178
 8266TIP3    H224742   2.483   2.040   6.055
 8267TIP3   OH224743   7.618   0.944   1.815
 8267TIP3    H124744   7.535   0.922   1.773
 8267TIP3    H224745   7.651   1.020   1.767
 8268TIP3   OH224746   6.609   0.376   4.052
 8268TIP3    H124747   6.573   0.461   4.078
 8268TIP3    H224748   6.601   0.322   4.131
 8269TIP3   OH224749   2.969   5.171   1.073
 8269TIP3    H124750   3.064   5.171   1.087
 8269TIP3    H224751   2.946   5.264   1.068
 8270TIP3   OH224752   3.808   6.064   4.096
 8270TIP3    H124753   3.886   6.045   4.147
 8270TIP3    H224754   3.756   5.983   4.100
 8271TIP3   OH224755   2.124   0.138   5.857
 8271TIP3    H124756   2.173   0.088   5.922
 8271TIP3    H224757   2.168   0.120   5.774
 8272TIP3   OH224758   2.164   1.097   5.920
 8272TIP3    H124759   2.076   1.104   5.955
 8272TIP3    H224760   2.169   1.165   5.853
 8273TIP3   OH224761   6.317   0.744   1.511
 8273TIP3    H124762   6.257   0.679   1.475
 8273TIP3    H224763   6.360   0.783   1.434
 8274TIP3   OH224764   6.699   5.812   3.341
 8274TIP3    H124765   6.641   5.876   3.301
 8274TIP3    H224766   6.694   5.736   3.284
 8275TIP3   OH224767   0.988   1.905   4.451
 8275TIP3    H124768   1.013   1.875   4.364
 8275TIP3    H224769   1.046   1.857   4.511
 8276TIP3   OH224770   4.445   1.389   6.201
 8276TIP3    H124771   4.534   1.419   6.186
 8276TIP3    H224772   4.455   1.301   6.238
 8277TIP3   OH224773   5.759   3.919   0.518
 8277TIP3    H124774   5.817   3.941   0.445
 8277TIP3    H224775   5.681   3.972   0.503
 8278TIP3   OH224776   7.723   4.862   2.902
 8278TIP3    H124777   7.644   4.848   2.850
 8278TIP3    H224778   7.770   4.933   2.858
 8279TIP3   OH224779   4.424   4.947   6.187
 8279TIP3    H124780   4.423   4.868   6.242
 8279TIP3    H224781   4.390   5.015   6.244
 8280TIP3   OH224782   5.521   7.087   3.365
 8280TIP3    H124783   5.450   7.084   3.428
 8280TIP3    H224784   5.538   7.180   3.352
 8281TIP3   OH224785   2.848   7.304   1.107
 8281TIP3    H124786   2.887   7.217   1.114
 8281TIP3    H224787   2.876   7.336   1.021
 8282TIP3   OH224788   5.211   3.384   4.495
 8282TIP3    H124789   5.139   3.371   4.433
 8282TIP3    H224790   5.185   3.336   4.573
 8283TIP3   OH224791   6.263   4.696   2.016
 8283TIP3    H124792   6.274   4.739   2.101
 8283TIP3    H224793   6.351   4.695   1.978
 8284TIP3   OH224794   5.039   0.103   2.045
 8284TIP3    H124795   4.980   0.147   1.984
 8284TIP3    H224796   5.117   0.084   1.994
 8285TIP3   OH224797   4.532   1.681   2.499
 8285TIP3    H124798   4.582   1.753   2.460
 8285TIP3    H224799   4.501   1.630   2.424
 8286TIP3   OH224800   0.667   2.092   0.033
 8286TIP3    H124801   0.707   2.160   0.087
 8286TIP3    H224802   0.680   2.122  -0.057
 8287TIP3   OH224803   2.441   4.421   0.311
 8287TIP3    H124804   2.513   4.473   0.347
 8287TIP3    H224805   2.476   4.384   0.230
 8288TIP3   OH224806   6.300   3.336   2.782
 8288TIP3    H124807   6.264   3.417   2.819
 8288TIP3    H224808   6.249   3.321   2.702
 8289TIP3   OH224809   4.634   5.528   1.247
 8289TIP3    H124810   4.649   5.610   1.200
 8289TIP3    H224811   4.623   5.462   1.178
 8290TIP3   OH224812   7.900   6.451   4.622
 8290TIP3    H124813   7.903   6.402   4.540
 8290TIP3    H224814   7.808   6.455   4.645
 8291TIP3   OH224815   0.935   6.101   5.298
 8291TIP3    H124816   0.912   6.110   5.206
 8291TIP3    H224817   1.000   6.170   5.313
 8292TIP3   OH224818   2.489   7.365   5.775
 8292TIP3    H124819   2.432   7.440   5.755
 8292TIP3    H224820   2.430   7.290   5.777
 8293TIP3   OH224821   5.401   1.872   2.807
 8293TIP3    H124822   5.356   1.824   2.876
 8293TIP3    H224823   5.424   1.956   2.848
 8294TIP3   OH224824   2.056   3.523   2.870
 8294TIP3    H124825   2.101   3.441   2.850
 8294TIP3    H224826   2.008   3.545   2.791
 8295TIP3   OH224827   0.305   3.352   2.671
 8295TIP3    H124828   0.324   3.421   2.606
 8295TIP3    H224829   0.272   3.279   2.619
 8296TIP3   OH224830   2.907   5.297   6.504
 8296TIP3    H124831   2.985   5.294   6.560
 8296TIP3    H224832   2.851   5.363   6.545
 8297TIP3   OH224833   3.928   4.484   2.430
 8297TIP3    H124834   3.985   4.455   2.359
 8297TIP3    H224835   3.842   4.447   2.409
 8298TIP3   OH224836   2.645   3.386   5.675
 8298TIP3    H124837   2.579   3.339   5.624
 8298TIP3    H224838   2.596   3.449   5.727
 8299TIP3   OH224839   0.842   5.644   1.407
 8299TIP3    H124840   0.750   5.629   1.386
 8299TIP3    H224841   0.855   5.737   1.391
 8300TIP3   OH224842   5.652   0.079   3.100
 8300TIP3    H124843   5.670   0.173   3.101
 8300TIP3    H224844   5.564   0.072   3.137
 8301TIP3   OH224845   5.051   3.051   6.165
 8301TIP3    H124846   5.042   3.030   6.258
 8301TIP3    H224847   4.971   3.099   6.144
 8302TIP3   OH224848   4.977   6.328   1.150
 8302TIP3    H124849   5.031   6.379   1.210
 8302TIP3    H224850   5.036   6.301   1.080
 8303TIP3   OH224851   0.583   1.085   6.094
 8303TIP3    H124852   0.508   1.076   6.153
 8303TIP3    H224853   0.609   1.177   6.103
 8304TIP3   OH224854   8.207   5.776   1.712
 8304TIP3    H124855   8.246   5.761   1.797
 8304TIP3    H224856   8.157   5.857   1.723
 8305TIP3   OH224857   6.618   0.304   3.164
 8305TIP3    H124858   6.526   0.323   3.185
 8305TIP3    H224859   6.663   0.387   3.175
 8306TIP3   OH224860   6.242   1.158   5.938
 8306TIP3    H124861   6.160   1.129   5.978
 8306TIP3    H224862   6.234   1.133   5.846
 8307TIP3   OH224863   4.732   3.234   2.470
 8307TIP3    H124864   4.670   3.290   2.423
 8307TIP3    H224865   4.801   3.293   2.499
 8308TIP3   OH224866   1.213   3.349   5.774
 8308TIP3    H124867   1.117   3.349   5.779
 8308TIP3    H224868   1.238   3.440   5.792
 8309TIP3   OH224869   7.036   3.139   1.591
 8309TIP3    H124870   7.095   3.159   1.518
 8309TIP3    H224871   7.034   3.044   1.595
 8310TIP3   OH224872   1.500   2.727   0.840
 8310TIP3    H124873   1.513   2.662   0.909
 8310TIP3    H224874   1.485   2.675   0.761
 8311TIP3   OH224875   4.975   4.780   0.485
 8311TIP3    H124876   4.910   4.736   0.539
 8311TIP3    H224877   4.930   4.857   0.449
 8312TIP3   OH224878   4.759   0.630   3.293
 8312TIP3    H124879   4.673   0.604   3.326
 8312TIP3    H224880   4.741   0.683   3.216
 8313TIP3   OH224881   3.336   0.024   2.310
 8313TIP3    H124882   3.425   0.011   2.341
 8313TIP3    H224883   3.339   0.106   2.261
 8314TIP3   OH224884   5.600   2.613   4.370
 8314TIP3    H124885   5.614   2.694   4.321
 8314TIP3    H224886   5.668   2.554   4.338
 8315TIP3   OH224887   8.175   1.188   3.930
 8315TIP3    H124888   8.252   1.196   3.874
 8315TIP3    H224889   8.145   1.098   3.917
 8316TIP3   OH224890   4.811   1.508   5.984
 8316TIP3    H124891   4.736   1.537   6.036
 8316TIP3    H224892   4.824   1.417   6.009
 8317TIP3   OH224893   3.332   6.529   0.875
 8317TIP3    H124894   3.412   6.544   0.925
 8317TIP3    H224895   3.302   6.442   0.903
 8318TIP3   OH224896   7.251   7.052   5.626
 8318TIP3    H124897   7.219   7.009   5.705
 8318TIP3    H224898   7.300   7.128   5.659
 8319TIP3   OH224899   7.481   2.407   5.661
 8319TIP3    H124900   7.400   2.458   5.666
 8319TIP3    H224901   7.451   2.318   5.643
 8320TIP3   OH224902   3.086   1.500   4.228
 8320TIP3    H124903   3.147   1.452   4.173
 8320TIP3    H224904   3.135   1.517   4.309
 8321TIP3   OH224905   6.787   1.492   3.598
 8321TIP3    H124906   6.811   1.422   3.537
 8321TIP3    H224907   6.778   1.447   3.683
 8322TIP3   OH224908   6.426   5.128   2.228
 8322TIP3    H124909   6.333   5.135   2.208
 8322TIP3    H224910   6.463   5.213   2.203
 8323TIP3   OH224911   6.803   7.191   1.588
 8323TIP3    H124912   6.764   7.257   1.645
 8323TIP3    H224913   6.739   7.119   1.588
 8324TIP3   OH224914   3.339   4.233   2.802
 8324TIP3    H124915   3.251   4.261   2.778
 8324TIP3    H224916   3.366   4.174   2.731
 8325TIP3   OH224917   7.674   6.260   3.931
 8325TIP3    H124918   7.598   6.313   3.955
 8325TIP3    H224919   7.657   6.175   3.971
 8326TIP3   OH224920   4.526   2.601   6.521
 8326TIP3    H124921   4.552   2.516   6.558
 8326TIP3    H224922   4.455   2.580   6.460
 8327TIP3   OH224923   1.799   6.664   0.543
 8327TIP3    H124924   1.779   6.686   0.634
 8327TIP3    H224925   1.761   6.577   0.530
 8328TIP3   OH224926   0.797   4.317   0.238
 8328TIP3    H124927   0.780   4.410   0.221
 8328TIP3    H224928   0.778   4.274   0.155
 8329TIP3   OH224929   5.623   4.632   2.937
 8329TIP3    H124930   5.683   4.673   2.874
 8329TIP3    H224931   5.574   4.569   2.885
 8330TIP3   OH224932   3.811   7.475   6.324
 8330TIP3    H124933   3.763   7.475   6.241
 8330TIP3    H224934   3.899   7.447   6.300
 8331TIP3   OH224935   2.244   6.850   5.795
 8331TIP3    H124936   2.175   6.788   5.818
 8331TIP3    H224937   2.299   6.804   5.732
 8332TIP3   OH224938   5.250   6.697   1.437
 8332TIP3    H124939   5.320   6.738   1.488
 8332TIP3    H224940   5.249   6.747   1.355
 8333TIP3   OH224941   1.173   0.254   3.912
 8333TIP3    H124942   1.172   0.159   3.925
 8333TIP3    H224943   1.147   0.266   3.820
 8334TIP3   OH224944   6.460   2.110   0.590
 8334TIP3    H124945   6.379   2.137   0.632
 8334TIP3    H224946   6.519   2.091   0.663
 8335TIP3   OH224947   5.028   2.604   3.430
 8335TIP3    H124948   4.986   2.591   3.345
 8335TIP3    H224949   5.076   2.687   3.421
 8336TIP3   OH224950   5.790   1.195   2.528
 8336TIP3    H124951   5.719   1.135   2.504
 8336TIP3    H224952   5.849   1.193   2.453
 8337TIP3   OH224953   4.943   0.364   5.855
 8337TIP3    H124954   4.898   0.280   5.861
 8337TIP3    H224955   4.891   0.414   5.792
 8338TIP3   OH224956   8.259   2.992   1.835
 8338TIP3    H124957   8.304   3.057   1.890
 8338TIP3    H224958   8.166   3.004   1.856
 8339TIP3   OH224959   4.526   2.240   2.065
 8339TIP3    H124960   4.550   2.200   2.148
 8339TIP3    H224961   4.492   2.326   2.089
 8340TIP3   OH224962   5.692   2.870   6.589
 8340TIP3    H124963   5.644   2.879   6.507
 8340TIP3    H224964   5.628   2.837   6.651
 8341TIP3   OH224965   0.702   2.071   2.340
 8341TIP3    H124966   0.660   2.144   2.386
 8341TIP3    H224967   0.774   2.045   2.398
 8342TIP3   OH224968   2.756   6.770   3.220
 8342TIP3    H124969   2.671   6.778   3.265
 8342TIP3    H224970   2.817   6.817   3.277
 8343TIP3   OH224971   0.782   4.673   1.749
 8343TIP3    H124972   0.795   4.607   1.681
 8343TIP3    H224973   0.854   4.735   1.737
 8344TIP3   OH224974   5.606   4.537   4.530
 8344TIP3    H124975   5.674   4.602   4.551
 8344TIP3    H224976   5.526   4.589   4.521
 8345TIP3   OH224977   0.726   2.833   6.713
 8345TIP3    H124978   0.724   2.887   6.792
 8345TIP3    H224979   0.819   2.827   6.690
 8346TIP3   OH224980   0.855   3.638   5.170
 8346TIP3    H124981   0.927   3.579   5.194
 8346TIP3    H224982   0.783   3.613   5.228
 8347TIP3   OH224983   3.245   6.827   0.418
 8347TIP3    H124984   3.250   6.785   0.503
 8347TIP3    H224985   3.154   6.853   0.409
 8348TIP3   OH224986   5.104   6.502   5.866
 8348TIP3    H124987   5.052   6.444   5.921
 8348TIP3    H224988   5.168   6.445   5.824
 8349TIP3   OH224989   7.314   0.838   4.687
 8349TIP3    H124990   7.263   0.880   4.618
 8349TIP3    H224991   7.252   0.781   4.732
 8350TIP3   OH224992   7.131   4.834   2.404
 8350TIP3    H124993   7.162   4.779   2.332
 8350TIP3    H224994   7.040   4.807   2.417
 8351TIP3   OH224995   7.628   5.469   1.440
 8351TIP3    H124996   7.714   5.512   1.438
 8351TIP3    H224997   7.621   5.434   1.528
 8352TIP3   OH224998   5.846   1.766   5.883
 8352TIP3    H124999   5.844   1.828   5.955
 8352TIP3    H225000   5.870   1.818   5.806
 8353TIP3   OH225001   7.601   4.555   4.745
 8353TIP3    H125002   7.574   4.464   4.753
 8353TIP3    H225003   7.688   4.552   4.706
 8354TIP3   OH225004   6.088   5.557   0.523
 8354TIP3    H125005   6.067   5.579   0.614
 8354TIP3    H225006   6.006   5.522   0.488
 8355TIP3   OH225007   6.915   0.120   1.093
 8355TIP3    H125008   6.992   0.063   1.102
 8355TIP3    H225009   6.850   0.080   1.151
 8356TIP3   OH225010   0.435   3.185   3.097
 8356TIP3    H125011   0.480   3.158   3.176
 8356TIP3    H225012   0.352   3.220   3.127
 8357TIP3   OH225013   7.564   4.393   6.266
 8357TIP3    H125014   7.631   4.385   6.333
 8357TIP3    H225015   7.608   4.366   6.185
 8358TIP3   OH225016   1.455   5.475   3.382
 8358TIP3    H125017   1.373   5.511   3.415
 8358TIP3    H225018   1.508   5.552   3.362
 8359TIP3   OH225019   6.874   7.428   2.824
 8359TIP3    H125020   6.896   7.462   2.737
 8359TIP3    H225021   6.912   7.340   2.826
 8360TIP3   OH225022   0.651   5.646   5.630
 8360TIP3    H125023   0.660   5.560   5.589
 8360TIP3    H225024   0.561   5.673   5.612
 8361TIP3   OH225025   6.980   6.768   0.123
 8361TIP3    H125026   7.044   6.749   0.054
 8361TIP3    H225027   6.897   6.736   0.088
 8362TIP3   OH225028   3.919   2.935   4.444
 8362TIP3    H125029   3.936   3.002   4.509
 8362TIP3    H225030   3.827   2.913   4.456
 8363TIP3   OH225031   4.596   1.631   6.142
 8363TIP3    H125032   4.533   1.654   6.074
 8363TIP3    H225033   4.604   1.710   6.195
 8364TIP3   OH225034   7.323   1.759   4.159
 8364TIP3    H125035   7.319   1.665   4.143
 8364TIP3    H225036   7.235   1.791   4.140
 8365TIP3   OH225037   0.286   3.973   5.725
 8365TIP3    H125038   0.319   4.012   5.644
 8365TIP3    H225039   0.363   3.935   5.767
 8366TIP3   OH225040   0.713   4.601   5.885
 8366TIP3    H125041   0.689   4.518   5.927
 8366TIP3    H225042   0.658   4.666   5.929
 8367TIP3   OH225043   3.823   6.870   3.551
 8367TIP3    H125044   3.752   6.807   3.541
 8367TIP3    H225045   3.872   6.864   3.470
 8368TIP3   OH225046   8.279   7.270   3.570
 8368TIP3    H125047   8.274   7.244   3.478
 8368TIP3    H225048   8.200   7.233   3.609
 8369TIP3   OH225049   0.305   0.094   0.705
 8369TIP3    H125050   0.332   0.185   0.712
 8369TIP3    H225051   0.385   0.048   0.680
 8370TIP3   OH225052   7.658   0.205   5.074
 8370TIP3    H125053   7.581   0.175   5.122
 8370TIP3    H225054   7.718   0.130   5.074
 8371TIP3   OH225055   0.066   4.805   0.186
 8371TIP3    H125056   0.055   4.893   0.151
 8371TIP3    H225057   0.013   4.803   0.265
 8372TIP3   OH225058   2.761   7.718   6.596
 8372TIP3    H125059   2.794   7.667   6.522
 8372TIP3    H225060   2.780   7.809   6.574
 8373TIP3   OH225061   2.456   0.269   4.047
 8373TIP3    H125062   2.478   0.277   4.140
 8373TIP3    H225063   2.529   0.220   4.009
 8374TIP3   OH225064   1.086   1.266   6.492
 8374TIP3    H125065   1.115   1.175   6.493
 8374TIP3    H225066   0.991   1.261   6.497
 8375TIP3   OH225067   4.704   5.820   1.362
 8375TIP3    H125068   4.634   5.774   1.408
 8375TIP3    H225069   4.665   5.845   1.278
 8376TIP3   OH225070   5.102   6.531   2.184
 8376TIP3    H125071   5.095   6.439   2.209
 8376TIP3    H225072   5.021   6.571   2.216
 8377TIP3   OH225073   1.267   7.173   1.554
 8377TIP3    H125074   1.355   7.211   1.558
 8377TIP3    H225075   1.269   7.100   1.616
 8378TIP3   OH225076   2.812   0.385   1.787
 8378TIP3    H125077   2.738   0.325   1.778
 8378TIP3    H225078   2.815   0.406   1.880
 8379TIP3   OH225079   1.649   5.943   1.283
 8379TIP3    H125080   1.639   6.032   1.318
 8379TIP3    H225081   1.730   5.911   1.321
 8380TIP3   OH225082   0.298   1.259   1.990
 8380TIP3    H125083   0.279   1.352   1.984
 8380TIP3    H225084   0.213   1.216   1.980
 8381TIP3   OH225085   4.167   6.680   6.377
 8381TIP3    H125086   4.087   6.645   6.416
 8381TIP3    H225087   4.188   6.756   6.430
 8382TIP3   OH225088   4.913   7.433   5.030
 8382TIP3    H125089   4.895   7.339   5.038
 8382TIP3    H225090   4.837   7.476   5.070
 8383TIP3   OH225091   7.759   7.134   2.349
 8383TIP3    H125092   7.734   7.044   2.370
 8383TIP3    H225093   7.702   7.189   2.404
 8384TIP3   OH225094   2.409   4.324   4.262
 8384TIP3    H125095   2.410   4.251   4.200
 8384TIP3    H225096   2.451   4.290   4.341
 8385TIP3   OH225097   5.197   7.192   5.993
 8385TIP3    H125098   5.193   7.145   6.076
 8385TIP3    H225099   5.226   7.126   5.930
 8386TIP3   OH225100   6.501   6.640   4.965
 8386TIP3    H125101   6.509   6.686   4.881
 8386TIP3    H225102   6.591   6.625   4.993
 8387TIP3   OH225103   3.827   5.660   6.560
 8387TIP3    H125104   3.747   5.613   6.536
 8387TIP3    H225105   3.841   5.721   6.488
 8388TIP3   OH225106   0.301   4.580   4.605
 8388TIP3    H125107   0.252   4.654   4.571
 8388TIP3    H225108   0.379   4.619   4.645
 8389TIP3   OH225109   4.240   4.807   5.244
 8389TIP3    H125110   4.180   4.736   5.219
 8389TIP3    H225111   4.226   4.875   5.178
 8390TIP3   OH225112   3.840   3.872   4.698
 8390TIP3    H125113   3.863   3.789   4.657
 8390TIP3    H225114   3.815   3.929   4.626
 8391TIP3   OH225115   2.562   0.527   3.964
 8391TIP3    H125116   2.643   0.488   3.931
 8391TIP3    H225117   2.515   0.455   4.006
 8392TIP3   OH225118   2.506   1.450   6.170
 8392TIP3    H125119   2.465   1.437   6.256
 8392TIP3    H225120   2.594   1.414   6.180
 8393TIP3   OH225121   3.539   7.100   6.505
 8393TIP3    H125122   3.599   7.050   6.560
 8393TIP3    H225123   3.584   7.182   6.489
 8394TIP3   OH225124   1.789   2.862   0.212
 8394TIP3    H125125   1.745   2.787   0.172
 8394TIP3    H225126   1.801   2.923   0.140
 8395TIP3   OH225127   0.729   7.337   6.349
 8395TIP3    H125128   0.735   7.243   6.330
 8395TIP3    H225129   0.668   7.371   6.283
 8396TIP3   OH225130   5.800   1.623   4.948
 8396TIP3    H125131   5.771   1.710   4.922
 8396TIP3    H225132   5.798   1.625   5.044
 8397TIP3   OH225133   0.607   5.047   2.891
 8397TIP3    H125134   0.605   5.095   2.808
 8397TIP3    H225135   0.682   5.084   2.939
 8398TIP3   OH225136   4.119   2.087   4.620
 8398TIP3    H125137   4.095   2.153   4.685
 8398TIP3    H225138   4.131   2.006   4.671
 8399TIP3   OH225139   7.244   1.308   4.838
 8399TIP3    H125140   7.243   1.231   4.895
 8399TIP3    H225141   7.196   1.281   4.760
 8400TIP3   OH225142   1.498   5.330   3.156
 8400TIP3    H125143   1.593   5.329   3.147
 8400TIP3    H225144   1.481   5.393   3.226
 8401TIP3   OH225145   3.550   2.372   6.265
 8401TIP3    H125146   3.606   2.450   6.267
 8401TIP3    H225147   3.547   2.347   6.173
 8402TIP3   OH225148   5.356   2.761   0.040
 8402TIP3    H125149   5.415   2.832   0.063
 8402TIP3    H225150   5.369   2.696   0.109
 8403TIP3   OH225151   1.109   4.245   0.979
 8403TIP3    H125152   1.063   4.263   0.897
 8403TIP3    H225153   1.040   4.216   1.039
 8404TIP3   OH225154   4.790   1.239   5.802
 8404TIP3    H125155   4.866   1.298   5.796
 8404TIP3    H225156   4.781   1.204   5.714
 8405TIP3   OH225157   6.021   3.511   4.788
 8405TIP3    H125158   5.934   3.540   4.761
 8405TIP3    H225159   6.032   3.426   4.746
 8406TIP3   OH225160   2.808   6.275   1.032
 8406TIP3    H125161   2.804   6.355   1.084
 8406TIP3    H225162   2.894   6.237   1.052
 8407TIP3   OH225163   4.153   3.315   2.914
 8407TIP3    H125164   4.075   3.369   2.900
 8407TIP3    H225165   4.178   3.331   3.004
 8408TIP3   OH225166   1.803   5.652   5.020
 8408TIP3    H125167   1.744   5.591   5.063
 8408TIP3    H225168   1.785   5.642   4.926
 8409TIP3   OH225169   1.675   7.029   0.260
 8409TIP3    H125170   1.705   7.060   0.175
 8409TIP3    H225171   1.723   6.948   0.275
 8410TIP3   OH225172   7.691   7.336   5.553
 8410TIP3    H125173   7.678   7.425   5.585
 8410TIP3    H225174   7.636   7.282   5.610
 8411TIP3   OH225175   4.731   1.484   6.413
 8411TIP3    H125176   4.687   1.443   6.339
 8411TIP3    H225177   4.723   1.421   6.484
 8412TIP3   OH225178   7.708   1.761   6.529
 8412TIP3    H125179   7.796   1.794   6.549
 8412TIP3    H225180   7.668   1.749   6.615
 8413TIP3   OH225181   7.885   3.723   0.721
 8413TIP3    H125182   7.817   3.745   0.657
 8413TIP3    H225183   7.967   3.724   0.672
 8414TIP3   OH225184   2.582   4.069   3.497
 8414TIP3    H125185   2.587   4.006   3.426
 8414TIP3    H225186   2.634   4.030   3.567
 8415TIP3   OH225187   5.677   1.389   0.166
 8415TIP3    H125188   5.760   1.427   0.195
 8415TIP3    H225189   5.619   1.401   0.241
 8416TIP3   OH225190   4.059   7.594   2.807
 8416TIP3    H125191   4.081   7.635   2.891
 8416TIP3    H225192   3.971   7.560   2.819
 8417TIP3   OH225193   7.865   2.204   3.373
 8417TIP3    H125194   7.821   2.263   3.312
 8417TIP3    H225195   7.922   2.261   3.425
 8418TIP3   OH225196   7.923   6.382   5.796
 8418TIP3    H125197   7.859   6.453   5.803
 8418TIP3    H225198   7.969   6.382   5.880
 8419TIP3   OH225199   7.923   0.505   3.859
 8419TIP3    H125200   7.998   0.480   3.912
 8419TIP3    H225201   7.956   0.573   3.800
 8420TIP3   OH225202   4.585   7.360   1.293
 8420TIP3    H125203   4.509   7.315   1.256
 8420TIP3    H225204   4.551   7.406   1.370
 8421TIP3   OH225205   5.043   6.773   4.124
 8421TIP3    H125206   5.027   6.850   4.179
 8421TIP3    H225207   5.067   6.704   4.186
 8422TIP3   OH225208   0.914   4.553   4.769
 8422TIP3    H125209   0.865   4.523   4.846
 8422TIP3    H225210   0.955   4.635   4.796
 8423TIP3   OH225211   6.264   1.958   1.268
 8423TIP3    H125212   6.247   1.922   1.181
 8423TIP3    H225213   6.350   1.925   1.292
 8424TIP3   OH225214   2.054   4.898   6.456
 8424TIP3    H125215   2.089   4.837   6.391
 8424TIP3    H225216   2.104   4.880   6.536
 8425TIP3   OH225217   5.311   1.908   4.761
 8425TIP3    H125218   5.325   1.960   4.840
 8425TIP3    H225219   5.217   1.910   4.747
 8426TIP3   OH225220   3.060   5.865   4.777
 8426TIP3    H125221   3.111   5.921   4.835
 8426TIP3    H225222   3.052   5.915   4.696
 8427TIP3   OH225223   3.338   5.582   1.666
 8427TIP3    H125224   3.356   5.630   1.584
 8427TIP3    H225225   3.398   5.621   1.729
 8428TIP3   OH225226   1.103   6.827   2.774
 8428TIP3    H125227   1.063   6.746   2.745
 8428TIP3    H225228   1.176   6.799   2.829
 8429TIP3   OH225229   3.173   6.681   0.704
 8429TIP3    H125230   3.237   6.626   0.750
 8429TIP3    H225231   3.140   6.626   0.633
 8430TIP3   OH225232   2.557   7.534   4.280
 8430TIP3    H125233   2.607   7.452   4.280
 8430TIP3    H225234   2.561   7.565   4.371
 8431TIP3   OH225235   0.972   2.561   5.325
 8431TIP3    H125236   0.997   2.613   5.402
 8431TIP3    H225237   1.012   2.475   5.341
 8432TIP3   OH225238   7.174   6.620   5.724
 8432TIP3    H125239   7.151   6.589   5.812
 8432TIP3    H225240   7.148   6.712   5.723
 8433TIP3   OH225241   6.824   5.875   1.741
 8433TIP3    H125242   6.836   5.812   1.670
 8433TIP3    H225243   6.863   5.957   1.708
 8434TIP3   OH225244   5.875   1.604   0.311
 8434TIP3    H125245   5.808   1.672   0.308
 8434TIP3    H225246   5.851   1.549   0.385
 8435TIP3   OH225247   3.762   1.688   3.021
 8435TIP3    H125248   3.853   1.715   3.009
 8435TIP3    H225249   3.721   1.703   2.936
 8436TIP3   OH225250   7.187   4.842   4.055
 8436TIP3    H125251   7.256   4.899   4.020
 8436TIP3    H225252   7.131   4.899   4.106
 8437TIP3   OH225253   5.274   0.014   3.419
 8437TIP3    H125254   5.259  -0.061   3.477
 8437TIP3    H225255   5.220   0.084   3.457
 8438TIP3   OH225256   1.051   3.635   5.447
 8438TIP3    H125257   1.072   3.661   5.357
 8438TIP3    H225258   1.123   3.579   5.473
 8439TIP3   OH225259   5.381   2.582   0.230
 8439TIP3    H125260   5.448   2.532   0.276
 8439TIP3    H225261   5.304   2.524   0.229
 8440TIP3   OH225262   1.343   7.761   5.362
 8440TIP3    H125263   1.291   7.689   5.326
 8440TIP3    H225264   1.426   7.720   5.387
 8441TIP3   OH225265   3.776   1.273   6.156
 8441TIP3    H125266   3.808   1.208   6.093
 8441TIP3    H225267   3.748   1.222   6.231
 8442TIP3   OH225268   2.724   3.564   2.983
 8442TIP3    H125269   2.708   3.611   2.901
 8442TIP3    H225270   2.820   3.560   2.989
 8443TIP3   OH225271   4.063   6.211   2.382
 8443TIP3    H125272   4.076   6.299   2.346
 8443TIP3    H225273   4.114   6.211   2.463
 8444TIP3   OH225274   5.541   1.743   4.774
 8444TIP3    H125275   5.623   1.762   4.818
 8444TIP3    H225276   5.478   1.804   4.813
 8445TIP3   OH225277   7.333   5.296   2.581
 8445TIP3    H125278   7.311   5.219   2.529
 8445TIP3    H225279   7.294   5.369   2.533
 8446TIP3   OH225280   7.077   3.247   2.394
 8446TIP3    H125281   7.009   3.265   2.459
 8446TIP3    H225282   7.155   3.290   2.429
 8447TIP3   OH225283   1.204   0.182   6.038
 8447TIP3    H125284   1.280   0.240   6.038
 8447TIP3    H225285   1.182   0.170   6.130
 8448TIP3   OH225286   7.597   5.735   5.412
 8448TIP3    H125287   7.666   5.788   5.373
 8448TIP3    H225288   7.530   5.729   5.343
 8449TIP3   OH225289   1.959   5.339   0.635
 8449TIP3    H125290   1.888   5.283   0.605
 8449TIP3    H225291   2.014   5.281   0.688
 8450TIP3   OH225292   4.531   6.579   3.083
 8450TIP3    H125293   4.575   6.613   3.161
 8450TIP3    H225294   4.602   6.562   3.021
 8451TIP3   OH225295   5.178   6.295   5.405
 8451TIP3    H125296   5.201   6.386   5.385
 8451TIP3    H225297   5.257   6.245   5.383
 8452TIP3   OH225298   3.320   1.278   6.334
 8452TIP3    H125299   3.268   1.219   6.279
 8452TIP3    H225300   3.401   1.291   6.286
 8453TIP3   OH225301   7.785   5.310   0.902
 8453TIP3    H125302   7.868   5.264   0.913
 8453TIP3    H225303   7.746   5.310   0.990
 8454TIP3   OH225304   5.367   2.181   3.112
 8454TIP3    H125305   5.416   2.123   3.053
 8454TIP3    H225306   5.428   2.252   3.132
 8455TIP3   OH225307   2.435   5.067   6.170
 8455TIP3    H125308   2.479   5.068   6.255
 8455TIP3    H225309   2.354   5.117   6.184
 8456TIP3   OH225310   2.198   3.778   1.335
 8456TIP3    H125311   2.246   3.793   1.253
 8456TIP3    H225312   2.197   3.683   1.346
 8457TIP3   OH225313   6.135   6.820   4.994
 8457TIP3    H125314   6.151   6.727   5.008
 8457TIP3    H225315   6.173   6.838   4.908
 8458TIP3   OH225316   2.741   4.773   2.427
 8458TIP3    H125317   2.650   4.748   2.409
 8458TIP3    H225318   2.733   4.846   2.489
 8459TIP3   OH225319   0.121   3.245   1.137
 8459TIP3    H125320   0.033   3.207   1.132
 8459TIP3    H225321   0.176   3.172   1.167
 8460TIP3   OH225322   6.669   3.164   5.464
 8460TIP3    H125323   6.636   3.126   5.383
 8460TIP3    H225324   6.764   3.169   5.452
 8461TIP3   OH225325   7.828   5.570   3.003
 8461TIP3    H125326   7.817   5.649   2.950
 8461TIP3    H225327   7.900   5.523   2.961
 8462TIP3   OH225328   1.556   6.890   5.342
 8462TIP3    H125329   1.648   6.893   5.316
 8462TIP3    H225330   1.508   6.902   5.260
 8463TIP3   OH225331   8.119   2.138   4.534
 8463TIP3    H125332   8.209   2.169   4.542
 8463TIP3    H225333   8.078   2.159   4.617
 8464TIP3   OH225334   8.050   6.250   1.511
 8464TIP3    H125335   8.143   6.232   1.502
 8464TIP3    H225336   8.045   6.317   1.579
 8465TIP3   OH225337   7.449   4.583   2.919
 8465TIP3    H125338   7.473   4.664   2.875
 8465TIP3    H225339   7.426   4.523   2.848
 8466TIP3   OH225340   7.480   6.833   6.410
 8466TIP3    H125341   7.485   6.761   6.473
 8466TIP3    H225342   7.410   6.807   6.350
 8467TIP3   OH225343   8.145   6.587   4.608
 8467TIP3    H125344   8.052   6.565   4.611
 8467TIP3    H225345   8.189   6.503   4.594
 8468TIP3   OH225346   1.837   5.466   5.505
 8468TIP3    H125347   1.909   5.420   5.549
 8468TIP3    H225348   1.818   5.411   5.428
 8469TIP3   OH225349   6.983   4.786   1.873
 8469TIP3    H125350   7.029   4.839   1.808
 8469TIP3    H225351   6.979   4.698   1.835
 8470TIP3   OH225352   4.531   6.989   2.835
 8470TIP3    H125353   4.501   7.015   2.923
 8470TIP3    H225354   4.457   6.943   2.797
 8471TIP3   OH225355   1.589   6.019   0.104
 8471TIP3    H125356   1.621   6.049   0.189
 8471TIP3    H225357   1.561   5.929   0.120
 8472TIP3   OH225358   4.871   5.328   1.287
 8472TIP3    H125359   4.861   5.418   1.317
 8472TIP3    H225360   4.781   5.296   1.278
 8473TIP3   OH225361   4.778   0.261   5.635
 8473TIP3    H125362   4.841   0.303   5.576
 8473TIP3    H225363   4.806   0.169   5.638
 8474TIP3   OH225364   1.341   5.156   0.803
 8474TIP3    H125365   1.260   5.132   0.848
 8474TIP3    H225366   1.347   5.251   0.815
 8475TIP3   OH225367   1.991   5.889   3.661
 8475TIP3    H125368   1.927   5.942   3.709
 8475TIP3    H225369   2.028   5.831   3.728
 8476TIP3   OH225370   5.188   7.416   4.709
 8476TIP3    H125371   5.162   7.504   4.737
 8476TIP3    H225372   5.217   7.372   4.789
 8477TIP3   OH225373   5.195   3.476   5.532
 8477TIP3    H125374   5.238   3.551   5.492
 8477TIP3    H225375   5.131   3.447   5.466
 8478TIP3   OH225376   4.672   7.037   3.885
 8478TIP3    H125377   4.700   6.946   3.887
 8478TIP3    H225378   4.580   7.034   3.913
 8479TIP3   OH225379   3.931   1.526   0.183
 8479TIP3    H125380   3.952   1.613   0.219
 8479TIP3    H225381   3.873   1.487   0.248
 8480TIP3   OH225382   3.872   4.389   4.032
 8480TIP3    H125383   3.901   4.319   3.974
 8480TIP3    H225384   3.777   4.379   4.036
 8481TIP3   OH225385   4.451   0.034   2.270
 8481TIP3    H125386   4.395   0.102   2.232
 8481TIP3    H225387   4.526   0.029   2.211
 8482TIP3   OH225388   4.913   1.780   3.971
 8482TIP3    H125389   4.830   1.818   3.998
 8482TIP3    H225390   4.921   1.700   4.023
 8483TIP3   OH225391   0.677   0.132   3.294
 8483TIP3    H125392   0.684   0.081   3.213
 8483TIP3    H225393   0.702   0.221   3.268
 8484TIP3   OH225394   1.602   7.107   4.381
 8484TIP3    H125395   1.625   7.085   4.291
 8484TIP3    H225396   1.506   7.107   4.382
 8485TIP3   OH225397   7.822   3.452   1.801
 8485TIP3    H125398   7.807   3.472   1.894
 8485TIP3    H225399   7.749   3.495   1.756
 8486TIP3   OH225400   6.542   0.215   2.131
 8486TIP3    H125401   6.521   0.286   2.071
 8486TIP3    H225402   6.475   0.220   2.199
 8487TIP3   OH225403   3.449   5.604   3.313
 8487TIP3    H125404   3.450   5.622   3.219
 8487TIP3    H225405   3.396   5.525   3.322
 8488TIP3   OH225406   4.848   3.300   6.024
 8488TIP3    H125407   4.933   3.336   5.996
 8488TIP3    H225408   4.808   3.371   6.074
 8489TIP3   OH225409   3.311   2.897   6.051
 8489TIP3    H125410   3.398   2.868   6.077
 8489TIP3    H225411   3.297   2.978   6.101
 8490TIP3   OH225412   4.359   5.812   4.013
 8490TIP3    H125413   4.374   5.907   4.006
 8490TIP3    H225414   4.396   5.789   4.098
 8491TIP3   OH225415   0.797   2.609   0.905
 8491TIP3    H125416   0.780   2.702   0.917
 8491TIP3    H225417   0.799   2.573   0.993
 8492TIP3   OH225418   1.012   6.856   0.774
 8492TIP3    H125419   1.068   6.931   0.798
 8492TIP3    H225420   1.068   6.780   0.786
 8493TIP3   OH225421   5.426   6.547   3.697
 8493TIP3    H125422   5.421   6.502   3.781
 8493TIP3    H225423   5.512   6.523   3.662
 8494TIP3   OH225424   3.420   2.488   2.417
 8494TIP3    H125425   3.502   2.527   2.447
 8494TIP3    H225426   3.353   2.551   2.443
 8495TIP3   OH225427   1.864   4.167   3.821
 8495TIP3    H125428   1.859   4.074   3.843
 8495TIP3    H225429   1.773   4.197   3.825
 8496TIP3   OH225430   7.398   5.291   1.183
 8496TIP3    H125431   7.307   5.295   1.152
 8496TIP3    H225432   7.395   5.233   1.259
 8497TIP3   OH225433   3.484   1.656   3.131
 8497TIP3    H125434   3.435   1.678   3.051
 8497TIP3    H225435   3.573   1.642   3.100
 8498TIP3   OH225436   7.258   2.993   0.952
 8498TIP3    H125437   7.353   2.982   0.961
 8498TIP3    H225438   7.247   3.042   0.871
 8499TIP3   OH225439   3.496   3.386   1.425
 8499TIP3    H125440   3.455   3.431   1.499
 8499TIP3    H225441   3.498   3.294   1.452
 8500TIP3   OH225442   6.593   2.771   4.248
 8500TIP3    H125443   6.539   2.816   4.313
 8500TIP3    H225444   6.678   2.816   4.253
 8501TIP3   OH225445   4.357   0.072   5.723
 8501TIP3    H125446   4.443   0.036   5.704
 8501TIP3    H225447   4.296   0.005   5.690
 8502TIP3   OH225448   2.179   7.458   1.423
 8502TIP3    H125449   2.197   7.551   1.440
 8502TIP3    H225450   2.251   7.411   1.464
 8503TIP3   OH225451   6.583   1.812   3.053
 8503TIP3    H125452   6.567   1.785   2.962
 8503TIP3    H225453   6.574   1.732   3.103
 8504TIP3   OH225454   6.795   4.093   4.813
 8504TIP3    H125455   6.743   4.023   4.854
 8504TIP3    H225456   6.761   4.174   4.851
 8505TIP3   OH225457   3.857   6.494   1.459
 8505TIP3    H125458   3.763   6.503   1.444
 8505TIP3    H225459   3.891   6.463   1.375
 8506TIP3   OH225460   3.527   0.952   0.502
 8506TIP3    H125461   3.478   1.023   0.461
 8506TIP3    H225462   3.618   0.966   0.475
 8507TIP3   OH225463   1.056   3.002   1.428
 8507TIP3    H125464   1.148   3.018   1.405
 8507TIP3    H225465   1.059   2.979   1.521
 8508TIP3   OH225466   2.024   5.574   2.457
 8508TIP3    H125467   1.939   5.604   2.426
 8508TIP3    H225468   2.074   5.557   2.376
 8509TIP3   OH225469   2.335   0.678   5.581
 8509TIP3    H125470   2.347   0.765   5.619
 8509TIP3    H225471   2.247   0.652   5.608
 8510TIP3   OH225472   7.254   2.891   0.230
 8510TIP3    H125473   7.224   2.963   0.285
 8510TIP3    H225474   7.195   2.891   0.155
 8511TIP3   OH225475   2.868   1.103   4.927
 8511TIP3    H125476   2.795   1.127   4.985
 8511TIP3    H225477   2.932   1.173   4.939
 8512TIP3   OH225478   0.149   5.751   2.965
 8512TIP3    H125479   0.117   5.716   3.048
 8512TIP3    H225480   0.205   5.825   2.990
 8513TIP3   OH225481   6.948   1.780   1.170
 8513TIP3    H125482   6.967   1.694   1.133
 8513TIP3    H225483   6.876   1.765   1.231
 8514TIP3   OH225484   1.848   4.117   1.100
 8514TIP3    H125485   1.834   4.194   1.155
 8514TIP3    H225486   1.941   4.121   1.075
 8515TIP3   OH225487   7.590   2.602   0.221
 8515TIP3    H125488   7.577   2.697   0.223
 8515TIP3    H225489   7.534   2.572   0.150
 8516TIP3   OH225490   6.995   4.429   3.358
 8516TIP3    H125491   7.034   4.403   3.274
 8516TIP3    H225492   7.060   4.404   3.423
 8517TIP3   OH225493   7.628   4.513   5.994
 8517TIP3    H125494   7.596   4.589   6.042
 8517TIP3    H225495   7.613   4.534   5.902
 8518TIP3   OH225496   8.277   3.906   1.672
 8518TIP3    H125497   8.265   3.938   1.762
 8518TIP3    H225498   8.263   3.984   1.618
 8519TIP3   OH225499   0.681   3.859   1.699
 8519TIP3    H125500   0.659   3.806   1.776
 8519TIP3    H225501   0.667   3.801   1.625
 8520TIP3   OH225502   0.055   3.465   1.301
 8520TIP3    H125503   0.074   3.556   1.278
 8520TIP3    H225504   0.074   3.415   1.222
 8521TIP3   OH225505   5.182   4.440   4.313
 8521TIP3    H125506   5.277   4.453   4.303
 8521TIP3    H225507   5.153   4.411   4.227
 8522TIP3   OH225508   4.281   3.163   3.905
 8522TIP3    H125509   4.353   3.226   3.900
 8522TIP3    H225510   4.306   3.104   3.975
 8523TIP3   OH225511   1.849   5.651   2.950
 8523TIP3    H125512   1.927   5.607   2.984
 8523TIP3    H225513   1.880   5.699   2.873
 8524TIP3   OH225514   2.395   4.921   5.565
 8524TIP3    H125515   2.457   4.884   5.628
 8524TIP3    H225516   2.310   4.918   5.610
 8525TIP3   OH225517   7.716   2.332   2.046
 8525TIP3    H125518   7.803   2.295   2.032
 8525TIP3    H225519   7.733   2.413   2.095
 8526TIP3   OH225520   4.142   5.380   3.395
 8526TIP3    H125521   4.192   5.457   3.422
 8526TIP3    H225522   4.077   5.414   3.333
 8527TIP3   OH225523   5.094   3.360   5.914
 8527TIP3    H125524   5.127   3.431   5.968
 8527TIP3    H225525   5.168   3.332   5.861
 8528TIP3   OH225526   2.113   0.829   3.514
 8528TIP3    H125527   2.061   0.754   3.544
 8528TIP3    H225528   2.064   0.906   3.543
 8529TIP3   OH225529   6.611   6.757   1.197
 8529TIP3    H125530   6.660   6.692   1.247
 8529TIP3    H225531   6.660   6.838   1.209
 8530TIP3   OH225532   3.590   3.660   5.078
 8530TIP3    H125533   3.608   3.713   5.000
 8530TIP3    H225534   3.633   3.708   5.150
 8531TIP3   OH225535   4.971   0.895   1.606
 8531TIP3    H125536   4.906   0.826   1.600
 8531TIP3    H225537   5.040   0.868   1.545
 8532TIP3   OH225538   6.972   5.371   5.252
 8532TIP3    H125539   7.042   5.376   5.317
 8532TIP3    H225540   6.941   5.280   5.258
 8533TIP3   OH225541   4.104   6.371   4.103
 8533TIP3    H125542   4.188   6.395   4.066
 8533TIP3    H225543   4.115   6.383   4.197
 8534TIP3   OH225544   1.721   0.950   5.263
 8534TIP3    H125545   1.687   0.987   5.344
 8534TIP3    H225546   1.644   0.937   5.208
 8535TIP3   OH225547   5.938   5.038   6.659
 8535TIP3    H125548   6.007   4.982   6.624
 8535TIP3    H225549   5.929   5.109   6.594
 8536TIP3   OH225550   6.047   4.708   0.420
 8536TIP3    H125551   6.088   4.738   0.339
 8536TIP3    H225552   6.068   4.777   0.484
 8537TIP3   OH225553   3.653   5.296   3.175
 8537TIP3    H125554   3.712   5.246   3.118
 8537TIP3    H225555   3.614   5.361   3.117
 8538TIP3   OH225556   2.648   3.296   6.428
 8538TIP3    H125557   2.698   3.219   6.451
 8538TIP3    H225558   2.665   3.358   6.499
 8539TIP3   OH225559   3.107   0.127   0.580
 8539TIP3    H125560   3.135   0.198   0.522
 8539TIP3    H225561   3.062   0.066   0.521
 8540TIP3   OH225562   4.190   7.103   0.221
 8540TIP3    H125563   4.141   7.031   0.262
 8540TIP3    H225564   4.278   7.095   0.255
 8541TIP3   OH225565   4.400   4.137   5.607
 8541TIP3    H125566   4.329   4.157   5.668
 8541TIP3    H225567   4.357   4.099   5.531
 8542TIP3   OH225568   3.298   0.994   3.234
 8542TIP3    H125569   3.306   1.090   3.238
 8542TIP3    H225570   3.302   0.966   3.326
 8543TIP3   OH225571   7.430   2.970   5.679
 8543TIP3    H125572   7.465   3.048   5.720
 8543TIP3    H225573   7.449   2.899   5.740
 8544TIP3   OH225574   2.351   5.036   2.308
 8544TIP3    H125575   2.375   4.971   2.242
 8544TIP3    H225576   2.255   5.039   2.305
 8545TIP3   OH225577   2.203   5.827   3.192
 8545TIP3    H125578   2.229   5.801   3.104
 8545TIP3    H225579   2.241   5.914   3.204
 8546TIP3   OH225580   1.133   1.255   4.611
 8546TIP3    H125581   1.135   1.266   4.706
 8546TIP3    H225582   1.065   1.316   4.581
 8547TIP3   OH225583   1.756   6.582   4.977
 8547TIP3    H125584   1.830   6.559   5.033
 8547TIP3    H225585   1.778   6.668   4.942
 8548TIP3   OH225586   4.577   0.590   1.401
 8548TIP3    H125587   4.538   0.610   1.315
 8548TIP3    H225588   4.551   0.500   1.418
 8549TIP3   OH225589   8.090   3.043   0.383
 8549TIP3    H125590   8.116   3.079   0.468
 8549TIP3    H225591   8.156   3.076   0.322
 8550TIP3   OH225592   6.613   6.114   1.643
 8550TIP3    H125593   6.641   6.022   1.641
 8550TIP3    H225594   6.689   6.161   1.677
 8551TIP3   OH225595   1.013   6.130   3.613
 8551TIP3    H125596   1.021   6.215   3.657
 8551TIP3    H225597   1.096   6.086   3.630
 8552TIP3   OH225598   5.829   5.680   5.444
 8552TIP3    H125599   5.795   5.655   5.359
 8552TIP3    H225600   5.891   5.612   5.467
 8553TIP3   OH225601   0.933   6.380   3.697
 8553TIP3    H125602   0.847   6.372   3.739
 8553TIP3    H225603   0.925   6.456   3.640
 8554TIP3   OH225604   0.623   4.007   3.349
 8554TIP3    H125605   0.637   4.017   3.255
 8554TIP3    H225606   0.541   4.053   3.366
 8555TIP3   OH225607   2.686   5.773   5.363
 8555TIP3    H125608   2.597   5.739   5.368
 8555TIP3    H225609   2.725   5.728   5.289
 8556TIP3   OH225610   2.644   7.264   6.478
 8556TIP3    H125611   2.646   7.176   6.440
 8556TIP3    H225612   2.601   7.318   6.412
 8557TIP3   OH225613   0.413   4.764   3.777
 8557TIP3    H125614   0.445   4.827   3.713
 8557TIP3    H225615   0.318   4.761   3.763
 8558TIP3   OH225616   7.728   7.208   6.585
 8558TIP3    H125617   7.648   7.167   6.553
 8558TIP3    H225618   7.762   7.148   6.651
 8559TIP3   OH225619   0.235   6.790   2.138
 8559TIP3    H125620   0.161   6.849   2.157
 8559TIP3    H225621   0.257   6.808   2.047
 8560TIP3   OH225622   4.933   0.251   4.269
 8560TIP3    H125623   4.864   0.295   4.317
 8560TIP3    H225624   4.888   0.185   4.217
 8561TIP3   OH225625   0.611   3.965   2.690
 8561TIP3    H125626   0.635   4.034   2.629
 8561TIP3    H225627   0.586   3.891   2.635
 8562TIP3   OH225628   6.138   6.886   1.291
 8562TIP3    H125629   6.121   6.832   1.369
 8562TIP3    H225630   6.199   6.834   1.239
 8563TIP3   OH225631   7.380   2.846   4.421
 8563TIP3    H125632   7.411   2.826   4.333
 8563TIP3    H225633   7.436   2.796   4.479
 8564TIP3   OH225634   0.012   5.873   2.654
 8564TIP3    H125635   0.063   5.924   2.716
 8564TIP3    H225636  -0.073   5.860   2.696
 8565TIP3   OH225637   6.674   0.085   0.256
 8565TIP3    H125638   6.708   0.121   0.339
 8565TIP3    H225639   6.616   0.015   0.283
 8566TIP3   OH225640   0.825   7.691   0.653
 8566TIP3    H125641   0.883   7.757   0.690
 8566TIP3    H225642   0.844   7.612   0.705
 8567TIP3   OH225643   7.545   4.910   5.591
 8567TIP3    H125644   7.517   4.926   5.501
 8567TIP3    H225645   7.473   4.943   5.644
 8568TIP3   OH225646   2.834   3.905   6.526
 8568TIP3    H125647   2.889   3.827   6.531
 8568TIP3    H225648   2.762   3.881   6.468
 8569TIP3   OH225649   0.338   1.940   4.907
 8569TIP3    H125650   0.313   1.858   4.950
 8569TIP3    H225651   0.433   1.932   4.895
 8570TIP3   OH225652   3.037   4.415   1.868
 8570TIP3    H125653   2.952   4.404   1.826
 8570TIP3    H225654   3.095   4.354   1.823
 8571TIP3   OH225655   4.683   1.236   4.700
 8571TIP3    H125656   4.699   1.312   4.755
 8571TIP3    H225657   4.590   1.239   4.680
 8572TIP3   OH225658   6.977   5.087   3.729
 8572TIP3    H125659   7.000   5.157   3.789
 8572TIP3    H225660   6.946   5.131   3.650
 8573TIP3   OH225661   0.359   2.979   6.442
 8573TIP3    H125662   0.300   2.985   6.517
 8573TIP3    H225663   0.338   3.056   6.389
 8574TIP3   OH225664   4.418   1.947   2.240
 8574TIP3    H125665   4.505   1.936   2.277
 8574TIP3    H225666   4.376   2.012   2.296
 8575TIP3   OH225667   5.812   7.084   5.345
 8575TIP3    H125668   5.903   7.094   5.316
 8575TIP3    H225669   5.766   7.157   5.305
 8576TIP3   OH225670   4.904   4.742   4.065
 8576TIP3    H125671   4.870   4.816   4.015
 8576TIP3    H225672   4.937   4.781   4.146
 8577TIP3   OH225673   0.839   1.836   3.146
 8577TIP3    H125674   0.821   1.811   3.055
 8577TIP3    H225675   0.776   1.786   3.197
 8578TIP3   OH225676   1.375   0.717   4.671
 8578TIP3    H125677   1.391   0.634   4.717
 8578TIP3    H225678   1.299   0.754   4.717
 8579TIP3   OH225679   4.759   7.156   6.116
 8579TIP3    H125680   4.778   7.187   6.027
 8579TIP3    H225681   4.690   7.090   6.104
 8580TIP3   OH225682   4.420   2.619   4.625
 8580TIP3    H125683   4.407   2.542   4.680
 8580TIP3    H225684   4.380   2.597   4.542
 8581TIP3   OH225685   3.586   2.761   5.226
 8581TIP3    H125686   3.543   2.829   5.279
 8581TIP3    H225687   3.515   2.700   5.204
 8582TIP3   OH225688   2.171   4.979   5.712
 8582TIP3    H125689   2.082   4.980   5.749
 8582TIP3    H225690   2.228   4.968   5.788
 8583TIP3   OH225691   2.757   0.081   1.228
 8583TIP3    H125692   2.778   0.143   1.159
 8583TIP3    H225693   2.769   0.131   1.309
 8584TIP3   OH225694   6.345   1.561   6.239
 8584TIP3    H125695   6.406   1.635   6.238
 8584TIP3    H225696   6.287   1.578   6.312
 8585TIP3   OH225697   3.476   5.829   6.047
 8585TIP3    H125698   3.426   5.824   6.129
 8585TIP3    H225699   3.476   5.739   6.013
 8586TIP3   OH225700   5.776   3.691   0.260
 8586TIP3    H125701   5.791   3.634   0.185
 8586TIP3    H225702   5.821   3.772   0.237
 8587TIP3   OH225703   1.167   0.915   5.060
 8587TIP3    H125704   1.134   1.005   5.050
 8587TIP3    H225705   1.094   0.860   5.034
 8588TIP3   OH225706   5.239   6.450   2.722
 8588TIP3    H125707   5.289   6.527   2.748
 8588TIP3    H225708   5.235   6.396   2.802
 8589TIP3   OH225709   3.301   5.857   6.256
 8589TIP3    H125710   3.252   5.779   6.284
 8589TIP3    H225711   3.244   5.930   6.278
 8590TIP3   OH225712   4.498   0.391   5.387
 8590TIP3    H125713   4.583   0.371   5.347
 8590TIP3    H225714   4.445   0.313   5.373
 8591TIP3   OH225715   2.977   2.676   3.419
 8591TIP3    H125716   2.952   2.694   3.328
 8591TIP3    H225717   3.067   2.708   3.426
 8592TIP3   OH225718   1.973   3.841   5.644
 8592TIP3    H125719   2.021   3.882   5.572
 8592TIP3    H225720   1.944   3.915   5.698
 8593TIP3   OH225721   4.549   5.421   4.815
 8593TIP3    H125722   4.632   5.399   4.857
 8593TIP3    H225723   4.484   5.368   4.861
 8594TIP3   OH225724   6.730   6.940   5.360
 8594TIP3    H125725   6.820   6.917   5.384
 8594TIP3    H225726   6.677   6.873   5.404
 8595TIP3   OH225727   6.930   5.260   2.199
 8595TIP3    H125728   7.020   5.236   2.176
 8595TIP3    H225729   6.940   5.326   2.267
 8596TIP3   OH225730   5.823   6.972   1.669
 8596TIP3    H125731   5.785   6.962   1.757
 8596TIP3    H225732   5.785   6.900   1.619
 8597TIP3   OH225733   5.624   6.172   2.098
 8597TIP3    H125734   5.528   6.175   2.106
 8597TIP3    H225735   5.639   6.144   2.008
 8598TIP3   OH225736   5.008   2.084   2.205
 8598TIP3    H125737   5.052   2.134   2.274
 8598TIP3    H225738   5.042   2.120   2.123
 8599TIP3   OH225739   7.091   0.880   4.523
 8599TIP3    H125740   7.019   0.840   4.571
 8599TIP3    H225741   7.050   0.920   4.446
 8600TIP3   OH225742   6.345   6.571   5.624
 8600TIP3    H125743   6.372   6.513   5.695
 8600TIP3    H225744   6.365   6.659   5.656
 8601TIP3   OH225745   2.376   0.980   4.093
 8601TIP3    H125746   2.366   1.074   4.076
 8601TIP3    H225747   2.436   0.950   4.024
 8602TIP3   OH225748   3.378   0.507   6.495
 8602TIP3    H125749   3.308   0.573   6.493
 8602TIP3    H225750   3.397   0.490   6.402
 8603TIP3   OH225751   8.041   1.825   5.161
 8603TIP3    H125752   8.019   1.789   5.247
 8603TIP3    H225753   8.094   1.902   5.179
 8604TIP3   OH225754   5.283   6.040   6.094
 8604TIP3    H125755   5.192   6.029   6.122
 8604TIP3    H225756   5.296   6.135   6.091
 8605TIP3   OH225757   0.516   5.975   5.801
 8605TIP3    H125758   0.483   6.038   5.737
 8605TIP3    H225759   0.448   5.908   5.806
 8606TIP3   OH225760   3.778   2.527   6.259
 8606TIP3    H125761   3.789   2.620   6.241
 8606TIP3    H225762   3.768   2.487   6.173
 8607TIP3   OH225763   2.185   2.638   0.296
 8607TIP3    H125764   2.207   2.712   0.239
 8607TIP3    H225765   2.107   2.666   0.343
 8608TIP3   OH225766   7.600   0.449   2.797
 8608TIP3    H125767   7.673   0.498   2.759
 8608TIP3    H225768   7.525   0.472   2.743
 8609TIP3   OH225769   5.811   2.291   0.682
 8609TIP3    H125770   5.748   2.257   0.619
 8609TIP3    H225771   5.785   2.382   0.696
 8610TIP3   OH225772   0.263   0.039   4.171
 8610TIP3    H125773   0.227  -0.035   4.123
 8610TIP3    H225774   0.236   0.116   4.120
 8611TIP3   OH225775   3.471   0.999   5.965
 8611TIP3    H125776   3.439   1.067   5.906
 8611TIP3    H225777   3.554   1.033   5.999
 8612TIP3   OH225778   4.091   3.798   3.498
 8612TIP3    H125779   4.079   3.878   3.446
 8612TIP3    H225780   4.015   3.796   3.556
 8613TIP3   OH225781   6.703   4.137   2.831
 8613TIP3    H125782   6.637   4.175   2.773
 8613TIP3    H225783   6.781   4.127   2.776
 8614TIP3   OH225784   1.841   0.457   6.215
 8614TIP3    H125785   1.772   0.391   6.218
 8614TIP3    H225786   1.818   0.519   6.285
 8615TIP3   OH225787   3.905   1.490   6.548
 8615TIP3    H125788   3.961   1.468   6.473
 8615TIP3    H225789   3.850   1.562   6.517
 8616TIP3   OH225790   4.291   6.958   1.047
 8616TIP3    H125791   4.355   6.986   0.982
 8616TIP3    H225792   4.330   6.980   1.131
 8617TIP3   OH225793   4.575   1.458   0.891
 8617TIP3    H125794   4.492   1.506   0.890
 8617TIP3    H225795   4.566   1.396   0.963
 8618TIP3   OH225796   6.360   3.253   3.548
 8618TIP3    H125797   6.429   3.287   3.605
 8618TIP3    H225798   6.395   3.171   3.514
 8619TIP3   OH225799   8.073   3.364   6.169
 8619TIP3    H125800   8.028   3.448   6.167
 8619TIP3    H225801   8.003   3.299   6.168
 8620TIP3   OH225802   4.230   1.764   1.136
 8620TIP3    H125803   4.190   1.850   1.144
 8620TIP3    H225804   4.185   1.710   1.201
 8621TIP3   OH225805   4.151   0.361   6.031
 8621TIP3    H125806   4.183   0.342   5.943
 8621TIP3    H225807   4.148   0.276   6.075
 8622TIP3   OH225808   2.078   7.570   4.013
 8622TIP3    H125809   2.126   7.511   4.071
 8622TIP3    H225810   2.109   7.658   4.036
 8623TIP3   OH225811   5.710   2.818   3.147
 8623TIP3    H125812   5.674   2.773   3.224
 8623TIP3    H225813   5.788   2.767   3.125
 8624TIP3   OH225814   4.118   4.674   3.841
 8624TIP3    H125815   4.143   4.737   3.773
 8624TIP3    H225816   4.031   4.703   3.869
 8625TIP3   OH225817   3.880   0.609   5.206
 8625TIP3    H125818   3.858   0.637   5.117
 8625TIP3    H225819   3.802   0.629   5.258
 8626TIP3   OH225820   1.751   3.419   3.719
 8626TIP3    H125821   1.725   3.329   3.736
 8626TIP3    H225822   1.839   3.427   3.756
 8627TIP3   OH225823   7.053   2.469   0.494
 8627TIP3    H125824   7.050   2.452   0.588
 8627TIP3    H225825   6.963   2.454   0.465
 8628TIP3   OH225826   7.678   0.470   4.976
 8628TIP3    H125827   7.616   0.526   4.929
 8628TIP3    H225828   7.628   0.393   5.001
 8629TIP3   OH225829   2.661   3.474   3.840
 8629TIP3    H125830   2.647   3.488   3.933
 8629TIP3    H225831   2.574   3.453   3.805
 8630TIP3   OH225832   8.193   0.499   5.839
 8630TIP3    H125833   8.154   0.422   5.799
 8630TIP3    H225834   8.148   0.573   5.798
 8631TIP3   OH225835   8.116   4.527   4.528
 8631TIP3    H125836   8.145   4.521   4.437
 8631TIP3    H225837   8.111   4.621   4.545
 8632TIP3   OH225838   2.007   5.004   3.558
 8632TIP3    H125839   1.995   5.098   3.568
 8632TIP3    H225840   1.992   4.988   3.465
 8633TIP3   OH225841   6.583   4.898   1.585
 8633TIP3    H125842   6.525   4.823   1.591
 8633TIP3    H225843   6.656   4.877   1.643
 8634TIP3   OH225844   3.435   3.924   5.092
 8634TIP3    H125845   3.520   3.958   5.063
 8634TIP3    H225846   3.371   3.981   5.050
 8635TIP3   OH225847   3.376   1.846   0.675
 8635TIP3    H125848   3.445   1.826   0.612
 8635TIP3    H225849   3.408   1.923   0.723
 8636TIP3   OH225850   3.990   1.772   3.942
 8636TIP3    H125851   4.051   1.733   4.004
 8636TIP3    H225852   3.911   1.718   3.949
 8637TIP3   OH225853   1.916   6.518   2.495
 8637TIP3    H125854   1.980   6.527   2.566
 8637TIP3    H225855   1.879   6.431   2.507
 8638TIP3   OH225856   5.772   3.066   3.240
 8638TIP3    H125857   5.741   2.980   3.210
 8638TIP3    H225858   5.697   3.105   3.283
 8639TIP3   OH225859   7.840   3.899   4.888
 8639TIP3    H125860   7.860   3.913   4.981
 8639TIP3    H225861   7.845   3.987   4.850
 8640TIP3   OH225862   4.011   5.694   3.847
 8640TIP3    H125863   4.053   5.609   3.863
 8640TIP3    H225864   3.975   5.687   3.759
 8641TIP3   OH225865   6.209   4.587   4.057
 8641TIP3    H125866   6.228   4.576   3.964
 8641TIP3    H225867   6.116   4.567   4.064
 8642TIP3   OH225868   1.410   1.452   5.741
 8642TIP3    H125869   1.415   1.360   5.767
 8642TIP3    H225870   1.373   1.450   5.653
 8643TIP3   OH225871   4.759   5.029   0.677
 8643TIP3    H125872   4.825   5.034   0.746
 8643TIP3    H225873   4.808   5.046   0.596
 8644TIP3   OH225874   7.852   4.068   0.076
 8644TIP3    H125875   7.851   4.005   0.148
 8644TIP3    H225876   7.895   4.146   0.112
 8645TIP3   OH225877   5.824   4.749   5.283
 8645TIP3    H125878   5.800   4.839   5.304
 8645TIP3    H225879   5.873   4.719   5.359
 8646TIP3   OH225880   3.045   4.330   0.351
 8646TIP3    H125881   2.993   4.252   0.367
 8646TIP3    H225882   3.084   4.316   0.265
 8647TIP3   OH225883   0.910   1.591   1.810
 8647TIP3    H125884   0.941   1.556   1.894
 8647TIP3    H225885   0.857   1.520   1.773
 8648TIP3   OH225886   6.882   1.103   2.230
 8648TIP3    H125887   6.926   1.054   2.161
 8648TIP3    H225888   6.887   1.047   2.307
 8649TIP3   OH225889   7.462   3.926   3.161
 8649TIP3    H125890   7.416   3.914   3.078
 8649TIP3    H225891   7.455   3.840   3.204
 8650TIP3   OH225892   3.684   6.624   2.851
 8650TIP3    H125893   3.631   6.569   2.793
 8650TIP3    H225894   3.630   6.703   2.865
 8651TIP3   OH225895   5.363   0.356   2.480
 8651TIP3    H125896   5.326   0.269   2.472
 8651TIP3    H225897   5.348   0.381   2.571
 8652TIP3   OH225898   5.674   4.533   5.200
 8652TIP3    H125899   5.744   4.468   5.212
 8652TIP3    H225900   5.717   4.617   5.209
 8653TIP3   OH225901   3.078   7.572   4.338
 8653TIP3    H125902   3.068   7.543   4.429
 8653TIP3    H225903   3.132   7.504   4.297
 8654TIP3   OH225904   6.042   5.053   1.287
 8654TIP3    H125905   5.966   5.109   1.298
 8654TIP3    H225906   6.092   5.064   1.369
 8655TIP3   OH225907   7.529   0.777   3.354
 8655TIP3    H125908   7.572   0.794   3.438
 8655TIP3    H225909   7.545   0.684   3.337
 8656TIP3   OH225910   7.691   6.283   0.902
 8656TIP3    H125911   7.615   6.242   0.943
 8656TIP3    H225912   7.655   6.343   0.837
 8657TIP3   OH225913   6.088   7.445   2.064
 8657TIP3    H125914   6.092   7.351   2.081
 8657TIP3    H225915   6.035   7.480   2.136
 8658TIP3   OH225916   4.891   4.203   1.062
 8658TIP3    H125917   4.866   4.169   0.976
 8658TIP3    H225918   4.937   4.131   1.104
 8659TIP3   OH225919   7.679   3.327   6.562
 8659TIP3    H125920   7.746   3.395   6.556
 8659TIP3    H225921   7.597   3.376   6.572
 8660TIP3   OH225922   4.356   2.635   1.145
 8660TIP3    H125923   4.340   2.543   1.123
 8660TIP3    H225924   4.450   2.639   1.164
 8661TIP3   OH225925   6.408   4.078   2.078
 8661TIP3    H125926   6.496   4.077   2.041
 8661TIP3    H225927   6.420   4.108   2.168
 8662TIP3   OH225928   7.212   5.009   5.344
 8662TIP3    H125929   7.277   4.939   5.337
 8662TIP3    H225930   7.150   4.978   5.410
 8663TIP3   OH225931   1.734   2.560   4.140
 8663TIP3    H125932   1.716   2.522   4.054
 8663TIP3    H225933   1.722   2.488   4.202
 8664TIP3   OH225934   0.300   3.429   1.739
 8664TIP3    H125935   0.273   3.467   1.655
 8664TIP3    H225936   0.326   3.505   1.792
 8665TIP3   OH225937   1.368   2.921   5.789
 8665TIP3    H125938   1.383   3.013   5.766
 8665TIP3    H225939   1.436   2.902   5.854
 8666TIP3   OH225940   6.890   1.237   5.391
 8666TIP3    H125941   6.957   1.258   5.325
 8666TIP3    H225942   6.910   1.296   5.464
 8667TIP3   OH225943   6.280   1.577   5.389
 8667TIP3    H125944   6.318   1.525   5.318
 8667TIP3    H225945   6.352   1.589   5.451
 8668TIP3   OH225946   6.331   0.332   4.218
 8668TIP3    H125947   6.358   0.404   4.161
 8668TIP3    H225948   6.343   0.254   4.165
 8669TIP3   OH225949   5.370   6.911   0.173
 8669TIP3    H125950   5.293   6.887   0.224
 8669TIP3    H225951   5.345   6.895   0.082
 8670TIP3   OH225952   7.716   3.384   2.729
 8670TIP3    H125953   7.706   3.468   2.685
 8670TIP3    H225954   7.801   3.390   2.774
 8671TIP3   OH225955   0.502   6.816   2.331
 8671TIP3    H125956   0.592   6.831   2.363
 8671TIP3    H225957   0.514   6.782   2.243
 8672TIP3   OH225958   2.914   6.245   5.005
 8672TIP3    H125959   2.887   6.295   4.928
 8672TIP3    H225960   2.852   6.172   5.010
 8673TIP3   OH225961   5.885   3.055   0.156
 8673TIP3    H125962   5.902   3.036   0.248
 8673TIP3    H225963   5.853   2.972   0.120
 8674TIP3   OH225964   2.517   5.561   3.459
 8674TIP3    H125965   2.606   5.569   3.425
 8674TIP3    H225966   2.524   5.587   3.551
 8675TIP3   OH225967   6.488   5.537   5.022
 8675TIP3    H125968   6.490   5.630   5.047
 8675TIP3    H225969   6.574   5.503   5.045
 8676TIP3   OH225970   1.012   2.358   5.039
 8676TIP3    H125971   0.926   2.398   5.052
 8676TIP3    H225972   1.000   2.299   4.965
 8677TIP3   OH225973   3.098   3.083   5.727
 8677TIP3    H125974   3.010   3.121   5.728
 8677TIP3    H225975   3.152   3.149   5.682
 8678TIP3   OH225976   4.919   0.599   6.040
 8678TIP3    H125977   4.965   0.546   6.106
 8678TIP3    H225978   4.888   0.536   5.976
 8679TIP3   OH225979   1.922   0.324   0.986
 8679TIP3    H125980   1.872   0.398   1.019
 8679TIP3    H225981   1.865   0.285   0.920
 8680TIP3   OH225982   1.217   4.625   5.748
 8680TIP3    H125983   1.230   4.716   5.724
 8680TIP3    H225984   1.123   4.617   5.763
 8681TIP3   OH225985   5.501   1.465   1.567
 8681TIP3    H125986   5.504   1.386   1.513
 8681TIP3    H225987   5.421   1.510   1.540
 8682TIP3   OH225988   6.040   0.323   5.369
 8682TIP3    H125989   6.064   0.307   5.277
 8682TIP3    H225990   6.022   0.236   5.404
 8683TIP3   OH225991   6.592   7.082   1.010
 8683TIP3    H125992   6.525   7.131   1.057
 8683TIP3    H225993   6.570   7.096   0.917
 8684TIP3   OH225994   0.308   7.059   2.839
 8684TIP3    H125995   0.305   6.969   2.808
 8684TIP3    H225996   0.238   7.064   2.905
 8685TIP3   OH225997   5.656   2.466   0.996
 8685TIP3    H125998   5.608   2.426   0.924
 8685TIP3    H225999   5.603   2.541   1.023
 8686TIP3   OH226000   7.248   5.543   1.660
 8686TIP3    H126001   7.279   5.461   1.697
 8686TIP3    H226002   7.218   5.594   1.735
 8687TIP3   OH226003   0.512   3.267   1.848
 8687TIP3    H126004   0.548   3.185   1.815
 8687TIP3    H226005   0.430   3.278   1.800
 8688TIP3   OH226006   3.612   5.599   0.254
 8688TIP3    H126007   3.570   5.680   0.282
 8688TIP3    H226008   3.699   5.626   0.224
 8689TIP3   OH226009   0.923   1.189   2.872
 8689TIP3    H126010   0.864   1.263   2.856
 8689TIP3    H226011   0.994   1.225   2.924
 8690TIP3   OH226012   2.472   4.688   2.407
 8690TIP3    H126013   2.470   4.628   2.481
 8690TIP3    H226014   2.423   4.643   2.338
 8691TIP3   OH226015   3.824   1.978   3.917
 8691TIP3    H126016   3.807   1.996   3.825
 8691TIP3    H226017   3.888   1.906   3.917
 8692TIP3   OH226018   1.856   4.140   2.778
 8692TIP3    H126019   1.900   4.057   2.789
 8692TIP3    H226020   1.876   4.189   2.858
 8693TIP3   OH226021   5.060   6.976   5.593
 8693TIP3    H126022   5.033   6.885   5.601
 8693TIP3    H226023   4.979   7.026   5.606
 8694TIP3   OH226024   2.421   1.067   3.519
 8694TIP3    H126025   2.465   1.143   3.479
 8694TIP3    H226026   2.408   1.093   3.610
 8695TIP3   OH226027   1.327   3.242   2.340
 8695TIP3    H126028   1.292   3.224   2.252
 8695TIP3    H226029   1.417   3.210   2.337
 8696TIP3   OH226030   7.528   0.435   5.801
 8696TIP3    H126031   7.468   0.509   5.804
 8696TIP3    H226032   7.471   0.358   5.801
 8697TIP3   OH226033   2.742   4.290   4.931
 8697TIP3    H126034   2.684   4.226   4.888
 8697TIP3    H226035   2.749   4.258   5.021
 8698TIP3   OH226036   5.480   5.611   0.759
 8698TIP3    H126037   5.451   5.700   0.738
 8698TIP3    H226038   5.441   5.557   0.690
 8699TIP3   OH226039   4.731   3.444   2.116
 8699TIP3    H126040   4.813   3.454   2.067
 8699TIP3    H226041   4.748   3.489   2.199
 8700TIP3   OH226042   3.137   1.999   1.413
 8700TIP3    H126043   3.072   2.069   1.408
 8700TIP3    H226044   3.158   1.992   1.507
 8701TIP3   OH226045   6.358   5.097   5.867
 8701TIP3    H126046   6.359   5.084   5.772
 8701TIP3    H226047   6.385   5.013   5.903
 8702TIP3   OH226048   6.860   5.033   1.535
 8702TIP3    H126049   6.789   5.005   1.478
 8702TIP3    H226050   6.924   5.073   1.476
 8703TIP3   OH226051   0.816   5.140   3.149
 8703TIP3    H126052   0.864   5.185   3.080
 8703TIP3    H226053   0.790   5.209   3.210
 8704TIP3   OH226054   0.258   6.064   4.246
 8704TIP3    H126055   0.253   6.145   4.197
 8704TIP3    H226056   0.324   6.080   4.314
 8705TIP3   OH226057   2.782   0.737   1.882
 8705TIP3    H126058   2.734   0.734   1.799
 8705TIP3    H226059   2.864   0.691   1.863
 8706TIP3   OH226060   3.077   7.255   2.397
 8706TIP3    H126061   3.037   7.316   2.458
 8706TIP3    H226062   3.004   7.225   2.342
 8707TIP3   OH226063   7.534   3.208   1.130
 8707TIP3    H126064   7.546   3.139   1.065
 8707TIP3    H226065   7.464   3.263   1.095
 8708TIP3   OH226066   1.716   3.892   3.969
 8708TIP3    H126067   1.749   3.866   4.056
 8708TIP3    H226068   1.623   3.910   3.983
 8709TIP3   OH226069   3.119   4.272   3.017
 8709TIP3    H126070   3.052   4.265   3.086
 8709TIP3    H226071   3.096   4.352   2.970
 8710TIP3   OH226072   3.337   6.884   4.484
 8710TIP3    H126073   3.251   6.863   4.448
 8710TIP3    H226074   3.318   6.915   4.573
 8711TIP3   OH226075   8.189   4.543   1.939
 8711TIP3    H126076   8.255   4.559   1.872
 8711TIP3    H226077   8.124   4.488   1.896
 8712TIP3   OH226078   4.026   1.071   4.265
 8712TIP3    H126079   3.993   1.085   4.353
 8712TIP3    H226080   3.955   1.025   4.220
 8713TIP3   OH226081   5.003   3.939   4.843
 8713TIP3    H126082   4.979   3.985   4.924
 8713TIP3    H226083   4.989   4.004   4.774
 8714TIP3   OH226084   4.913   0.922   3.223
 8714TIP3    H126085   4.818   0.915   3.213
 8714TIP3    H226086   4.929   0.909   3.316
 8715TIP3   OH226087   4.231   3.269   6.486
 8715TIP3    H126088   4.278   3.225   6.416
 8715TIP3    H226089   4.191   3.198   6.537
 8716TIP3   OH226090   2.217   6.028   4.928
 8716TIP3    H126091   2.168   5.945   4.922
 8716TIP3    H226092   2.149   6.095   4.927
 8717TIP3   OH226093   3.594   0.761   6.051
 8717TIP3    H126094   3.647   0.711   5.990
 8717TIP3    H226095   3.548   0.825   5.996
 8718TIP3   OH226096   0.640   0.874   4.123
 8718TIP3    H126097   0.645   0.778   4.117
 8718TIP3    H226098   0.597   0.901   4.043
 8719TIP3   OH226099   2.135   4.214   3.946
 8719TIP3    H126100   2.191   4.141   3.920
 8719TIP3    H226101   2.064   4.213   3.881
 8720TIP3   OH226102   1.714   0.242   3.613
 8720TIP3    H126103   1.620   0.246   3.596
 8720TIP3    H226104   1.754   0.300   3.548
 8721TIP3   OH226105   6.482   7.267   2.883
 8721TIP3    H126106   6.558   7.235   2.836
 8721TIP3    H226107   6.417   7.196   2.876
 8722TIP3   OH226108   6.560   1.926   5.114
 8722TIP3    H126109   6.622   1.892   5.050
 8722TIP3    H226110   6.486   1.866   5.110
 8723TIP3   OH226111   5.066   2.565   2.213
 8723TIP3    H126112   5.076   2.583   2.306
 8723TIP3    H226113   4.991   2.618   2.186
 8724TIP3   OH226114   0.944   6.974   3.922
 8724TIP3    H126115   1.034   6.950   3.941
 8724TIP3    H226116   0.899   6.967   4.006
 8725TIP3   OH226117   4.364   3.280   1.999
 8725TIP3    H126118   4.403   3.367   2.005
 8725TIP3    H226119   4.406   3.240   1.923
 8726TIP3   OH226120   0.329   3.440   3.794
 8726TIP3    H126121   0.313   3.384   3.870
 8726TIP3    H226122   0.396   3.393   3.744
 8727TIP3   OH226123   5.110   0.805   6.361
 8727TIP3    H126124   5.194   0.780   6.324
 8727TIP3    H226125   5.121   0.791   6.455
 8728TIP3   OH226126   1.299   1.734   0.107
 8728TIP3    H126127   1.207   1.756   0.096
 8728TIP3    H226128   1.321   1.681   0.030
 8729TIP3   OH226129   0.852   6.593   3.560
 8729TIP3    H126130   0.865   6.578   3.466
 8729TIP3    H226131   0.923   6.652   3.584
 8730TIP3   OH226132   4.722   3.412   3.587
 8730TIP3    H126133   4.752   3.493   3.545
 8730TIP3    H226134   4.627   3.419   3.587
 8731TIP3   OH226135   2.074   6.234   4.133
 8731TIP3    H126136   2.156   6.226   4.084
 8731TIP3    H226137   2.058   6.147   4.168
 8732TIP3   OH226138   5.571   7.742   2.063
 8732TIP3    H126139   5.595   7.665   2.115
 8732TIP3    H226140   5.636   7.745   1.993
 8733TIP3   OH226141   6.772   1.784   1.366
 8733TIP3    H126142   6.681   1.808   1.381
 8733TIP3    H226143   6.785   1.705   1.418
 8734TIP3   OH226144   6.516   6.981   2.729
 8734TIP3    H126145   6.545   6.899   2.769
 8734TIP3    H226146   6.588   7.042   2.745
 8735TIP3   OH226147   6.319   1.374   4.502
 8735TIP3    H126148   6.384   1.388   4.570
 8735TIP3    H226149   6.254   1.316   4.542
 8736TIP3   OH226150   1.803   0.171   0.780
 8736TIP3    H126151   1.718   0.175   0.737
 8736TIP3    H226152   1.855   0.113   0.725
 8737TIP3   OH226153   5.184   4.954   5.123
 8737TIP3    H126154   5.261   4.947   5.066
 8737TIP3    H226155   5.118   4.998   5.070
 8738TIP3   OH226156   5.472   1.343   3.252
 8738TIP3    H126157   5.490   1.261   3.206
 8738TIP3    H226158   5.395   1.379   3.209
 8739TIP3   OH226159   6.779   2.528   4.004
 8739TIP3    H126160   6.819   2.536   3.917
 8739TIP3    H226161   6.826   2.592   4.058
 8740TIP3   OH226162   5.800   0.666   3.665
 8740TIP3    H126163   5.762   0.629   3.585
 8740TIP3    H226164   5.845   0.745   3.636
 8741TIP3   OH226165   7.041   6.485   1.469
 8741TIP3    H126166   7.130   6.506   1.440
 8741TIP3    H226167   7.033   6.390   1.454
 8742TIP3   OH226168   5.105   3.530   6.134
 8742TIP3    H126169   5.020   3.565   6.108
 8742TIP3    H226170   5.161   3.607   6.146
 8743TIP3   OH226171   3.597   6.320   4.834
 8743TIP3    H126172   3.636   6.347   4.751
 8743TIP3    H226173   3.640   6.237   4.855
 8744TIP3   OH226174   4.842   5.955   2.767
 8744TIP3    H126175   4.902   5.902   2.715
 8744TIP3    H226176   4.797   5.891   2.823
 8745TIP3   OH226177   7.957   6.848   5.131
 8745TIP3    H126178   8.021   6.909   5.094
 8745TIP3    H226179   7.883   6.851   5.070
 8746TIP3   OH226180   3.377   2.445   2.116
 8746TIP3    H126181   3.334   2.418   2.198
 8746TIP3    H226182   3.360   2.539   2.111
 8747TIP3   OH226183   0.072   5.780   1.482
 8747TIP3    H126184   0.129   5.751   1.553
 8747TIP3    H226185  -0.016   5.779   1.520
 8748TIP3   OH226186   7.382   1.126   6.362
 8748TIP3    H126187   7.345   1.094   6.444
 8748TIP3    H226188   7.471   1.091   6.361
 8749TIP3   OH226189   7.503   0.628   0.191
 8749TIP3    H126190   7.410   0.639   0.214
 8749TIP3    H226191   7.524   0.539   0.221
 8750TIP3   OH226192   3.308   1.956   0.150
 8750TIP3    H126193   3.363   2.023   0.107
 8750TIP3    H226194   3.268   2.001   0.223
 8751TIP3   OH226195   1.379   1.270   5.051
 8751TIP3    H126196   1.316   1.262   4.980
 8751TIP3    H226197   1.463   1.246   5.012
 8752TIP3   OH226198   5.604   1.475   2.320
 8752TIP3    H126199   5.563   1.532   2.385
 8752TIP3    H226200   5.551   1.485   2.242
 8753TIP3   OH226201   7.223   5.717   2.354
 8753TIP3    H126202   7.296   5.748   2.300
 8753TIP3    H226203   7.176   5.796   2.379
 8754TIP3   OH226204   5.424   1.823   1.342
 8754TIP3    H126205   5.350   1.768   1.317
 8754TIP3    H226206   5.499   1.763   1.340
 8755TIP3   OH226207   0.494   5.697   6.718
 8755TIP3    H126208   0.519   5.634   6.785
 8755TIP3    H226209   0.576   5.737   6.690
 8756TIP3   OH226210   1.624   7.627   4.293
 8756TIP3    H126211   1.556   7.588   4.347
 8756TIP3    H226212   1.602   7.601   4.204
 8757TIP3   OH226213   5.366   3.224   2.942
 8757TIP3    H126214   5.406   3.192   2.861
 8757TIP3    H226215   5.441   3.250   2.996
 8758TIP3   OH226216   1.315   4.216   3.454
 8758TIP3    H126217   1.343   4.158   3.525
 8758TIP3    H226218   1.333   4.166   3.374
 8759TIP3   OH226219   6.657   2.226   4.058
 8759TIP3    H126220   6.746   2.256   4.077
 8759TIP3    H226221   6.632   2.273   3.979
 8760TIP3   OH226222   0.614   0.594   4.159
 8760TIP3    H126223   0.562   0.530   4.208
 8760TIP3    H226224   0.657   0.542   4.091
 8761TIP3   OH226225   7.931   6.169   3.412
 8761TIP3    H126226   7.956   6.256   3.443
 8761TIP3    H226227   8.013   6.121   3.405
 8762TIP3   OH226228   4.266   2.809   6.401
 8762TIP3    H126229   4.353   2.847   6.410
 8762TIP3    H226230   4.279   2.714   6.409
 8763TIP3   OH226231   0.152   6.135   5.543
 8763TIP3    H126232   0.206   6.210   5.565
 8763TIP3    H226233   0.139   6.142   5.448
 8764TIP3   OH226234   2.534   0.056   4.592
 8764TIP3    H126235   2.447   0.017   4.595
 8764TIP3    H226236   2.573   0.020   4.512
 8765TIP3   OH226237   5.995   1.455   2.928
 8765TIP3    H126238   5.980   1.370   2.888
 8765TIP3    H226239   6.028   1.510   2.856
 8766TIP3   OH226240   7.008   6.058   5.473
 8766TIP3    H126241   7.063   6.130   5.442
 8766TIP3    H226242   6.935   6.056   5.412
 8767TIP3   OH226243   2.624   5.462   2.478
 8767TIP3    H126244   2.626   5.558   2.478
 8767TIP3    H226245   2.619   5.438   2.386
 8768TIP3   OH226246   8.120   5.756   3.060
 8768TIP3    H126247   8.159   5.679   3.100
 8768TIP3    H226248   8.027   5.751   3.085
 8769TIP3   OH226249   5.449   4.109   4.512
 8769TIP3    H126250   5.371   4.063   4.481
 8769TIP3    H226251   5.455   4.087   4.605
 8770TIP3   OH226252   0.227   4.396   2.492
 8770TIP3    H126253   0.255   4.472   2.543
 8770TIP3    H226254   0.215   4.430   2.403
 8771TIP3   OH226255   4.368   6.581   5.678
 8771TIP3    H126256   4.406   6.669   5.673
 8771TIP3    H226257   4.443   6.524   5.696
 8772TIP3   OH226258   1.610   0.076   5.988
 8772TIP3    H126259   1.625   0.093   5.895
 8772TIP3    H226260   1.696   0.088   6.029
 8773TIP3   OH226261   4.857   6.057   2.442
 8773TIP3    H126262   4.898   5.997   2.380
 8773TIP3    H226263   4.922   6.070   2.510
 8774TIP3   OH226264   5.104   6.280   4.245
 8774TIP3    H126265   5.074   6.227   4.171
 8774TIP3    H226266   5.096   6.222   4.320
 8775TIP3   OH226267   3.504   1.490   0.142
 8775TIP3    H126268   3.456   1.430   0.084
 8775TIP3    H226269   3.453   1.571   0.139
 8776TIP3   OH226270   2.134   0.026   3.445
 8776TIP3    H126271   2.042   0.017   3.420
 8776TIP3    H226272   2.183   0.003   3.366
 8777TIP3   OH226273   7.480   3.828   5.198
 8777TIP3    H126274   7.389   3.799   5.208
 8777TIP3    H226275   7.496   3.825   5.103
 8778TIP3   OH226276   2.201   6.045   0.985
 8778TIP3    H126277   2.210   6.099   1.063
 8778TIP3    H226278   2.133   6.087   0.933
 8779TIP3   OH226279   3.949   7.610   1.079
 8779TIP3    H126280   4.039   7.595   1.110
 8779TIP3    H226281   3.913   7.672   1.142
 8780TIP3   OH226282   4.436   7.026   1.254
 8780TIP3    H126283   4.529   7.005   1.263
 8780TIP3    H226284   4.397   7.000   1.338
 8781TIP3   OH226285   2.485   2.233   1.734
 8781TIP3    H126286   2.443   2.176   1.670
 8781TIP3    H226287   2.429   2.228   1.812
 8782TIP3   OH226288   0.081   3.114   0.315
 8782TIP3    H126289   0.103   3.206   0.301
 8782TIP3    H226290   0.142   3.084   0.383
 8783TIP3   OH226291   5.261   6.400   3.058
 8783TIP3    H126292   5.198   6.462   3.023
 8783TIP3    H226293   5.292   6.440   3.139
 8784TIP3   OH226294   6.582   4.274   4.930
 8784TIP3    H126295   6.548   4.363   4.921
 8784TIP3    H226296   6.508   4.223   4.962
 8785TIP3   OH226297   3.931   4.110   6.376
 8785TIP3    H126298   3.878   4.048   6.425
 8785TIP3    H226299   3.893   4.196   6.396
 8786TIP3   OH226300   0.361   2.012   6.067
 8786TIP3    H126301   0.342   2.091   6.016
 8786TIP3    H226302   0.334   1.939   6.011
 8787TIP3   OH226303   7.935   5.114   6.190
 8787TIP3    H126304   7.887   5.132   6.109
 8787TIP3    H226305   7.876   5.140   6.260
 8788TIP3   OH226306   6.886   0.779   1.726
 8788TIP3    H126307   6.937   0.737   1.795
 8788TIP3    H226308   6.799   0.790   1.764
 8789TIP3   OH226309   0.763   0.219   4.906
 8789TIP3    H126310   0.832   0.153   4.909
 8789TIP3    H226311   0.810   0.302   4.916
 8790TIP3   OH226312   3.459   2.361   3.988
 8790TIP3    H126313   3.544   2.400   3.968
 8790TIP3    H226314   3.471   2.322   4.075
 8791TIP3   OH226315   6.403   0.580   4.084
 8791TIP3    H126316   6.409   0.639   4.159
 8791TIP3    H226317   6.403   0.637   4.008
 8792TIP3   OH226318   6.409   6.379   4.350
 8792TIP3    H126319   6.466   6.303   4.336
 8792TIP3    H226320   6.348   6.377   4.276
 8793TIP3   OH226321   6.093   3.749   1.678
 8793TIP3    H126322   6.172   3.703   1.650
 8793TIP3    H226323   6.100   3.836   1.639
 8794TIP3   OH226324   0.422   4.504   5.657
 8794TIP3    H126325   0.518   4.500   5.661
 8794TIP3    H226326   0.403   4.537   5.569
 8795TIP3   OH226327   2.814   1.498   4.952
 8795TIP3    H126328   2.852   1.559   4.889
 8795TIP3    H226329   2.755   1.444   4.900
 8796TIP3   OH226330   7.663   3.017   0.000
 8796TIP3    H126331   7.585   2.967   0.026
 8796TIP3    H226332   7.732   2.988   0.059
 8797TIP3   OH226333   3.257   5.755   5.352
 8797TIP3    H126334   3.249   5.716   5.265
 8797TIP3    H226335   3.167   5.777   5.377
 8798TIP3   OH226336   6.078   7.373   3.256
 8798TIP3    H126337   6.076   7.405   3.346
 8798TIP3    H226338   6.171   7.369   3.234
 8799TIP3   OH226339   1.167   4.799   2.939
 8799TIP3    H126340   1.158   4.763   2.850
 8799TIP3    H226341   1.078   4.822   2.964
 8800TIP3   OH226342   4.525   2.463   3.327
 8800TIP3    H126343   4.483   2.549   3.324
 8800TIP3    H226344   4.456   2.402   3.303
 8801TIP3   OH226345   1.396   3.671   3.389
 8801TIP3    H126346   1.335   3.729   3.433
 8801TIP3    H226347   1.466   3.656   3.453
 8802TIP3   OH226348   4.054   7.763   2.380
 8802TIP3    H126349   3.995   7.724   2.315
 8802TIP3    H226350   4.131   7.707   2.380
 8803TIP3   OH226351   1.601   0.533   5.184
 8803TIP3    H126352   1.523   0.586   5.197
 8803TIP3    H226353   1.621   0.541   5.091
 8804TIP3   OH226354   7.831   7.452   0.839
 8804TIP3    H126355   7.812   7.518   0.906
 8804TIP3    H226356   7.762   7.387   0.850
 8805TIP3   OH226357   8.039   2.339   6.479
 8805TIP3    H126358   8.128   2.324   6.510
 8805TIP3    H226359   8.048   2.353   6.385
 8806TIP3   OH226360   5.415   1.913   1.991
 8806TIP3    H126361   5.451   1.902   1.903
 8806TIP3    H226362   5.427   1.828   2.033
 8807TIP3   OH226363   3.792   7.199   5.948
 8807TIP3    H126364   3.729   7.270   5.945
 8807TIP3    H226365   3.866   7.233   5.999
 8808TIP3   OH226366   7.617   1.196   1.688
 8808TIP3    H126367   7.545   1.253   1.661
 8808TIP3    H226368   7.679   1.255   1.730
 8809TIP3   OH226369   5.831   5.339   1.549
 8809TIP3    H126370   5.894   5.384   1.605
 8809TIP3    H226371   5.791   5.274   1.607
 8810TIP3   OH226372   7.811   6.764   3.340
 8810TIP3    H126373   7.901   6.739   3.362
 8810TIP3    H226374   7.814   6.788   3.248
 8811TIP3   OH226375   3.874   1.116   6.467
 8811TIP3    H126376   3.947   1.119   6.405
 8811TIP3    H226377   3.801   1.156   6.420
 8812TIP3   OH226378   7.921   5.428   5.324
 8812TIP3    H126379   7.891   5.483   5.397
 8812TIP3    H226380   7.970   5.488   5.268
 8813TIP3   OH226381   0.474   0.292   6.277
 8813TIP3    H126382   0.394   0.332   6.312
 8813TIP3    H226383   0.490   0.339   6.195
 8814TIP3   OH226384   6.777   2.097   4.714
 8814TIP3    H126385   6.686   2.123   4.724
 8814TIP3    H226386   6.816   2.166   4.660
 8815TIP3   OH226387   5.730   1.756   4.060
 8815TIP3    H126388   5.777   1.704   4.125
 8815TIP3    H226389   5.641   1.720   4.060
 8816TIP3   OH226390   5.899   5.738   6.038
 8816TIP3    H126391   5.818   5.690   6.055
 8816TIP3    H226392   5.870   5.823   6.004
 8817TIP3   OH226393   0.590   5.265   3.635
 8817TIP3    H126394   0.501   5.289   3.662
 8817TIP3    H226395   0.629   5.348   3.606
 8818TIP3   OH226396   4.960   3.232   0.254
 8818TIP3    H126397   4.933   3.191   0.172
 8818TIP3    H226398   4.879   3.242   0.304
 8819TIP3   OH226399   8.288   5.090   0.157
 8819TIP3    H126400   8.263   5.099   0.065
 8819TIP3    H226401   8.208   5.106   0.206
 8820TIP3   OH226402   3.036   7.503   0.126
 8820TIP3    H126403   3.021   7.448   0.204
 8820TIP3    H226404   3.084   7.447   0.066
 8821TIP3   OH226405   6.729   4.973   5.681
 8821TIP3    H126406   6.735   5.064   5.711
 8821TIP3    H226407   6.636   4.954   5.678
 8822TIP3   OH226408   4.141   2.457   3.937
 8822TIP3    H126409   4.207   2.477   4.004
 8822TIP3    H226410   4.059   2.493   3.973
 8823TIP3   OH226411   5.782   2.520   2.121
 8823TIP3    H126412   5.845   2.449   2.108
 8823TIP3    H226413   5.773   2.560   2.034
 8824TIP3   OH226414   5.949   7.579   0.431
 8824TIP3    H126415   5.883   7.520   0.468
 8824TIP3    H226416   5.905   7.663   0.424
 8825TIP3   OH226417   0.315   7.251   4.795
 8825TIP3    H126418   0.316   7.344   4.771
 8825TIP3    H226419   0.254   7.211   4.734
 8826TIP3   OH226420   3.921   5.023   5.169
 8826TIP3    H126421   4.000   5.020   5.114
 8826TIP3    H226422   3.851   4.992   5.112
 8827TIP3   OH226423   7.018   3.394   5.122
 8827TIP3    H126424   7.030   3.299   5.134
 8827TIP3    H226425   7.070   3.433   5.193
 8828TIP3   OH226426   1.816   6.510   1.412
 8828TIP3    H126427   1.796   6.603   1.425
 8828TIP3    H226428   1.744   6.464   1.454
 8829TIP3   OH226429   5.605   6.629   0.214
 8829TIP3    H126430   5.519   6.600   0.245
 8829TIP3    H226431   5.592   6.722   0.192
 8830TIP3   OH226432   2.921   0.115   4.172
 8830TIP3    H126433   2.990   0.114   4.106
 8830TIP3    H226434   2.857   0.052   4.141
 8831TIP3   OH226435   7.209   0.691   6.196
 8831TIP3    H126436   7.129   0.723   6.235
 8831TIP3    H226437   7.185   0.670   6.105
 8832TIP3   OH226438   4.566   0.402   0.114
 8832TIP3    H126439   4.518   0.338   0.062
 8832TIP3    H226440   4.656   0.368   0.117
 8833TIP3   OH226441   4.158   4.390   6.404
 8833TIP3    H126442   4.114   4.348   6.479
 8833TIP3    H226443   4.086   4.420   6.349
 8834TIP3   OH226444   1.471   3.097   4.980
 8834TIP3    H126445   1.497   3.134   4.895
 8834TIP3    H226446   1.457   3.174   5.036
 8835TIP3   OH226447   7.090   1.083   3.098
 8835TIP3    H126448   7.175   1.049   3.072
 8835TIP3    H226449   7.104   1.177   3.109
 8836TIP3   OH226450   4.079   6.041   3.750
 8836TIP3    H126451   4.103   6.014   3.838
 8836TIP3    H226452   4.006   6.101   3.762
 8837TIP3   OH226453   3.378   2.894   0.372
 8837TIP3    H126454   3.367   2.913   0.465
 8837TIP3    H226455   3.466   2.927   0.352
 8838TIP3   OH226456   0.088   4.249   4.775
 8838TIP3    H126457   0.003   4.249   4.732
 8838TIP3    H226458   0.098   4.160   4.809
 8839TIP3   OH226459   5.053   5.062   1.626
 8839TIP3    H126460   5.039   5.101   1.540
 8839TIP3    H226461   5.049   5.136   1.687
 8840TIP3   OH226462   3.529   2.395   0.500
 8840TIP3    H126463   3.461   2.329   0.489
 8840TIP3    H226464   3.610   2.350   0.474
 8841TIP3   OH226465   1.614   5.927   3.759
 8841TIP3    H126466   1.602   5.966   3.672
 8841TIP3    H226467   1.646   5.999   3.813
 8842TIP3   OH226468   6.270   1.213   1.535
 8842TIP3    H126469   6.285   1.207   1.440
 8842TIP3    H226470   6.355   1.238   1.571
 8843TIP3   OH226471   7.213   6.600   6.006
 8843TIP3    H126472   7.174   6.676   6.050
 8843TIP3    H226473   7.274   6.563   6.070
 8844TIP3   OH226474   5.590   0.827   6.217
 8844TIP3    H126475   5.609   0.910   6.261
 8844TIP3    H226476   5.608   0.845   6.125
 8845TIP3   OH226477   4.468   2.760   6.742
 8845TIP3    H126478   4.475   2.715   6.659
 8845TIP3    H226479   4.494   2.695   6.808
 8846TIP3   OH226480   4.096   3.033   6.538
 8846TIP3    H126481   4.005   3.003   6.531
 8846TIP3    H226482   4.148   2.960   6.505
 8847TIP3   OH226483   1.372   4.823   5.433
 8847TIP3    H126484   1.466   4.840   5.428
 8847TIP3    H226485   1.345   4.861   5.517
 8848TIP3   OH226486   6.277   1.993   0.971
 8848TIP3    H126487   6.265   2.058   0.901
 8848TIP3    H226488   6.302   1.913   0.925
 8849TIP3   OH226489   7.667   0.994   0.947
 8849TIP3    H126490   7.574   1.014   0.939
 8849TIP3    H226491   7.681   0.982   1.041
 8850TIP3   OH226492   5.881   6.659   5.487
 8850TIP3    H126493   5.826   6.648   5.565
 8850TIP3    H226494   5.822   6.692   5.420
 8851TIP3   OH226495   1.235   4.913   5.701
 8851TIP3    H126496   1.265   5.000   5.676
 8851TIP3    H226497   1.225   4.918   5.796
 8852TIP3   OH226498   1.878   5.845   1.396
 8852TIP3    H126499   1.896   5.751   1.399
 8852TIP3    H226500   1.959   5.886   1.425
 8853TIP3   OH226501   7.672   4.472   0.191
 8853TIP3    H126502   7.583   4.477   0.157
 8853TIP3    H226503   7.668   4.406   0.260
 8854TIP3   OH226504   3.485   3.897   3.669
 8854TIP3    H126505   3.559   3.918   3.727
 8854TIP3    H226506   3.429   3.975   3.674
 8855TIP3   OH226507   3.448   7.743   1.599
 8855TIP3    H126508   3.505   7.668   1.612
 8855TIP3    H226509   3.456   7.794   1.679
 8856TIP3   OH226510   1.827   6.213   1.145
 8856TIP3    H126511   1.870   6.132   1.116
 8856TIP3    H226512   1.817   6.203   1.239
 8857TIP3   OH226513   1.371   6.243   2.855
 8857TIP3    H126514   1.320   6.180   2.805
 8857TIP3    H226515   1.311   6.316   2.871
 8858TIP3   OH226516   3.617   2.696   1.444
 8858TIP3    H126517   3.613   2.661   1.355
 8858TIP3    H226518   3.700   2.744   1.447
 8859TIP3   OH226519   7.272   1.254   0.300
 8859TIP3    H126520   7.360   1.290   0.296
 8859TIP3    H226521   7.235   1.270   0.213
 8860TIP3   OH226522   1.118   1.931   1.253
 8860TIP3    H126523   1.170   1.874   1.197
 8860TIP3    H226524   1.165   1.932   1.336
 8861TIP3   OH226525   4.772   4.547   3.133
 8861TIP3    H126526   4.719   4.538   3.212
 8861TIP3    H226527   4.711   4.576   3.065
 8862TIP3   OH226528   3.283   5.126   3.786
 8862TIP3    H126529   3.313   5.205   3.833
 8862TIP3    H226530   3.313   5.140   3.696
 8863TIP3   OH226531   1.235   6.184   4.128
 8863TIP3    H126532   1.160   6.134   4.160
 8863TIP3    H226533   1.197   6.269   4.103
 8864TIP3   OH226534   5.282   3.808   0.176
 8864TIP3    H126535   5.306   3.901   0.178
 8864TIP3    H226536   5.366   3.763   0.162
 8865TIP3   OH226537   5.375   0.703   2.899
 8865TIP3    H126538   5.464   0.737   2.912
 8865TIP3    H226539   5.363   0.641   2.971
 8866TIP3   OH226540   6.149   4.882   6.548
 8866TIP3    H126541   6.198   4.886   6.466
 8866TIP3    H226542   6.211   4.844   6.611
 8867TIP3   OH226543   1.709   0.889   3.053
 8867TIP3    H126544   1.785   0.901   3.110
 8867TIP3    H226545   1.689   0.796   3.059
 8868TIP3   OH226546   7.258   3.793   2.126
 8868TIP3    H126547   7.242   3.799   2.032
 8868TIP3    H226548   7.255   3.884   2.156
 8869TIP3   OH226549   2.981   2.593   3.031
 8869TIP3    H126550   2.948   2.528   2.969
 8869TIP3    H226551   3.045   2.546   3.083
 8870TIP3   OH226552   2.772   1.348   6.212
 8870TIP3    H126553   2.834   1.417   6.237
 8870TIP3    H226554   2.816   1.301   6.141
 8871TIP3   OH226555   2.652   7.536   5.244
 8871TIP3    H126556   2.612   7.478   5.310
 8871TIP3    H226557   2.582   7.596   5.221
 8872TIP3   OH226558   6.654   2.543   3.445
 8872TIP3    H126559   6.638   2.449   3.441
 8872TIP3    H226560   6.569   2.583   3.427
 8873TIP3   OH226561   3.816   5.063   1.999
 8873TIP3    H126562   3.903   5.062   2.039
 8873TIP3    H226563   3.807   5.150   1.962
 8874TIP3   OH226564   3.010   2.222   5.170
 8874TIP3    H126565   3.035   2.246   5.081
 8874TIP3    H226566   2.940   2.282   5.193
 8875TIP3   OH226567   1.680   6.623   1.875
 8875TIP3    H126568   1.707   6.704   1.831
 8875TIP3    H226569   1.757   6.566   1.869
 8876TIP3   OH226570   4.125   5.773   1.216
 8876TIP3    H126571   4.139   5.679   1.205
 8876TIP3    H226572   4.153   5.812   1.133
 8877TIP3   OH226573   1.008   2.006   5.317
 8877TIP3    H126574   1.101   2.022   5.325
 8877TIP3    H226575   0.989   1.939   5.383
 8878TIP3   OH226576   7.346   3.545   1.873
 8878TIP3    H126577   7.360   3.483   1.801
 8878TIP3    H226578   7.414   3.523   1.936
 8879TIP3   OH226579   3.482   7.131   5.655
 8879TIP3    H126580   3.400   7.100   5.694
 8879TIP3    H226581   3.499   7.215   5.697
 8880TIP3   OH226582   6.003   6.573   0.092
 8880TIP3    H126583   6.030   6.487   0.059
 8880TIP3    H226584   5.932   6.599   0.033
 8881TIP3   OH226585   5.839   7.252   3.136
 8881TIP3    H126586   5.874   7.176   3.090
 8881TIP3    H226587   5.916   7.296   3.171
 8882TIP3   OH226588   5.507   0.334   2.903
 8882TIP3    H126589   5.517   0.346   2.998
 8882TIP3    H226590   5.420   0.367   2.883
 8883TIP3   OH226591   7.432   4.110   1.003
 8883TIP3    H126592   7.497   4.061   1.052
 8883TIP3    H226593   7.349   4.068   1.024
 8884TIP3   OH226594   6.287   0.088   5.005
 8884TIP3    H126595   6.202   0.102   4.963
 8884TIP3    H226596   6.266   0.065   5.095
 8885TIP3   OH226597   0.044   6.355   2.225
 8885TIP3    H126598  -0.031   6.368   2.283
 8885TIP3    H226599   0.028   6.270   2.184
 8886TIP3   OH226600   2.352   5.589   0.113
 8886TIP3    H126601   2.396   5.610   0.196
 8886TIP3    H226602   2.423   5.591   0.048
 8887TIP3   OH226603   4.194   0.895   3.939
 8887TIP3    H126604   4.273   0.948   3.928
 8887TIP3    H226605   4.157   0.888   3.851
 8888TIP3   OH226606   1.872   6.106   3.437
 8888TIP3    H126607   1.912   6.068   3.359
 8888TIP3    H226608   1.936   6.089   3.507
 8889TIP3   OH226609   7.062   7.005   6.183
 8889TIP3    H126610   7.008   7.066   6.233
 8889TIP3    H226611   7.146   7.004   6.230
 8890TIP3   OH226612   0.544   4.915   2.293
 8890TIP3    H126613   0.524   5.002   2.328
 8890TIP3    H226614   0.463   4.888   2.249
 8891TIP3   OH226615   3.489   3.202   4.371
 8891TIP3    H126616   3.432   3.193   4.448
 8891TIP3    H226617   3.456   3.135   4.310
 8892TIP3   OH226618   4.243   7.642   4.017
 8892TIP3    H126619   4.298   7.632   4.095
 8892TIP3    H226620   4.259   7.732   3.989
 8893TIP3   OH226621   4.965   4.726   4.601
 8893TIP3    H126622   5.013   4.736   4.683
 8893TIP3    H226623   4.984   4.637   4.573
 8894TIP3   OH226624   7.540   0.518   3.983
 8894TIP3    H126625   7.454   0.553   3.960
 8894TIP3    H226626   7.558   0.451   3.917
 8895TIP3   OH226627   1.108   5.507   6.300
 8895TIP3    H126628   1.082   5.599   6.288
 8895TIP3    H226629   1.025   5.460   6.304
 8896TIP3   OH226630   5.735   7.280   2.014
 8896TIP3    H126631   5.667   7.228   2.058
 8896TIP3    H226632   5.815   7.262   2.064
 8897TIP3   OH226633   2.954   7.038   1.134
 8897TIP3    H126634   2.990   6.987   1.207
 8897TIP3    H226635   2.943   6.975   1.063
 8898TIP3   OH226636   0.989   5.396   2.020
 8898TIP3    H126637   1.078   5.411   2.052
 8898TIP3    H226638   0.975   5.463   1.953
 8899TIP3   OH226639   4.509   3.686   3.700
 8899TIP3    H126640   4.443   3.688   3.631
 8899TIP3    H226641   4.566   3.761   3.680
 8900TIP3   OH226642   3.287   0.569   0.574
 8900TIP3    H126643   3.224   0.533   0.512
 8900TIP3    H226644   3.307   0.496   0.633
 8901TIP3   OH226645   3.188   0.711   2.129
 8901TIP3    H126646   3.197   0.795   2.083
 8901TIP3    H226647   3.115   0.725   2.190
 8902TIP3   OH226648   3.417   0.917   2.200
 8902TIP3    H126649   3.351   0.981   2.173
 8902TIP3    H226650   3.426   0.930   2.295
 8903TIP3   OH226651   0.565   0.398   3.253
 8903TIP3    H126652   0.550   0.442   3.169
 8903TIP3    H226653   0.483   0.409   3.300
 8904TIP3   OH226654   1.511   2.619   3.339
 8904TIP3    H126655   1.461   2.667   3.272
 8904TIP3    H226656   1.479   2.529   3.332
 8905TIP3   OH226657   3.444   6.876   0.200
 8905TIP3    H126658   3.382   6.860   0.272
 8905TIP3    H226659   3.527   6.839   0.231
 8906TIP3   OH226660   6.701   6.725   5.178
 8906TIP3    H126661   6.637   6.709   5.247
 8906TIP3    H226662   6.783   6.691   5.213
 8907TIP3   OH226663   2.506   5.015   4.953
 8907TIP3    H126664   2.482   5.098   4.995
 8907TIP3    H226665   2.601   5.011   4.961
 8908TIP3   OH226666   5.313   2.364   1.273
 8908TIP3    H126667   5.259   2.363   1.352
 8908TIP3    H226668   5.276   2.296   1.217
 8909TIP3   OH226669   6.541   0.679   3.229
 8909TIP3    H126670   6.527   0.666   3.323
 8909TIP3    H226671   6.562   0.772   3.221
 8910TIP3   OH226672   0.794   7.468   5.110
 8910TIP3    H126673   0.762   7.553   5.140
 8910TIP3    H226674   0.864   7.446   5.172
 8911TIP3   OH226675   5.923   3.410   5.850
 8911TIP3    H126676   5.880   3.364   5.922
 8911TIP3    H226677   6.016   3.388   5.860
 8912TIP3   OH226678   1.200   2.272   6.371
 8912TIP3    H126679   1.135   2.240   6.433
 8912TIP3    H226680   1.211   2.364   6.393
 8913TIP3   OH226681   1.385   7.331   3.469
 8913TIP3    H126682   1.340   7.246   3.476
 8913TIP3    H226683   1.439   7.336   3.548
 8914TIP3   OH226684   0.846   4.156   2.154
 8914TIP3    H126685   0.905   4.211   2.206
 8914TIP3    H226686   0.849   4.195   2.066
 8915TIP3   OH226687   2.455   5.870   4.563
 8915TIP3    H126688   2.456   5.947   4.619
 8915TIP3    H226689   2.541   5.831   4.575
 8916TIP3   OH226690   8.024   5.776   0.654
 8916TIP3    H126691   7.935   5.741   0.645
 8916TIP3    H226692   8.065   5.720   0.720
 8917TIP3   OH226693   6.149   5.909   3.547
 8917TIP3    H126694   6.242   5.898   3.564
 8917TIP3    H226695   6.138   5.886   3.455
 8918TIP3   OH226696   7.847   4.368   5.729
 8918TIP3    H126697   7.866   4.300   5.664
 8918TIP3    H226698   7.752   4.371   5.734
 8919TIP3   OH226699   0.236   5.492   2.364
 8919TIP3    H126700   0.201   5.406   2.387
 8919TIP3    H226701   0.313   5.502   2.420
 8920TIP3   OH226702   1.318   1.150   3.225
 8920TIP3    H126703   1.277   1.142   3.311
 8920TIP3    H226704   1.268   1.091   3.168
 8921TIP3   OH226705   6.831   3.908   4.548
 8921TIP3    H126706   6.769   3.835   4.540
 8921TIP3    H226707   6.878   3.909   4.465
 8922TIP3   OH226708   2.686   6.084   4.345
 8922TIP3    H126709   2.742   6.016   4.308
 8922TIP3    H226710   2.597   6.060   4.316
 8923TIP3   OH226711   0.348   7.393   2.451
 8923TIP3    H126712   0.293   7.443   2.390
 8923TIP3    H226713   0.288   7.329   2.489
 8924TIP3   OH226714   1.795   6.272   2.500
 8924TIP3    H126715   1.764   6.262   2.590
 8924TIP3    H226716   1.766   6.192   2.456
 8925TIP3   OH226717   0.507   1.296   0.769
 8925TIP3    H126718   0.425   1.317   0.814
 8925TIP3    H226719   0.565   1.265   0.839
 8926TIP3   OH226720   7.214   3.467   5.291
 8926TIP3    H126721   7.211   3.563   5.288
 8926TIP3    H226722   7.180   3.446   5.379
 8927TIP3   OH226723   5.348   4.306   1.373
 8927TIP3    H126724   5.344   4.368   1.301
 8927TIP3    H226725   5.379   4.224   1.333
 8928TIP3   OH226726   3.053   4.065   1.303
 8928TIP3    H126727   3.038   3.971   1.297
 8928TIP3    H226728   3.106   4.086   1.226
 8929TIP3   OH226729   6.946   3.243   3.918
 8929TIP3    H126730   6.918   3.236   3.827
 8929TIP3    H226731   6.976   3.155   3.941
 8930TIP3   OH226732   1.768   4.591   2.236
 8930TIP3    H126733   1.767   4.671   2.184
 8930TIP3    H226734   1.703   4.535   2.194
 8931TIP3   OH226735   4.773   3.639   4.808
 8931TIP3    H126736   4.710   3.709   4.825
 8931TIP3    H226737   4.720   3.560   4.797
 8932TIP3   OH226738   5.733   6.723   6.568
 8932TIP3    H126739   5.824   6.750   6.557
 8932TIP3    H226740   5.737   6.628   6.581
 8933TIP3   OH226741   6.411   4.679   5.820
 8933TIP3    H126742   6.408   4.735   5.742
 8933TIP3    H226743   6.419   4.741   5.893
 8934TIP3   OH226744   5.884   4.560   0.079
 8934TIP3    H126745   5.835   4.544   0.159
 8934TIP3    H226746   5.919   4.648   0.089
 8935TIP3   OH226747   7.185   3.647   1.507
 8935TIP3    H126748   7.189   3.603   1.422
 8935TIP3    H226749   7.241   3.594   1.564
 8936TIP3   OH226750   0.480   1.157   0.150
 8936TIP3    H126751   0.396   1.184   0.112
 8936TIP3    H226752   0.463   1.070   0.186
 8937TIP3   OH226753   8.072   6.550   5.287
 8937TIP3    H126754   7.982   6.518   5.288
 8937TIP3    H226755   8.090   6.567   5.195
 8938TIP3   OH226756   4.149   7.405   0.836
 8938TIP3    H126757   4.182   7.320   0.807
 8938TIP3    H226758   4.084   7.429   0.770
 8939TIP3   OH226759   6.283   1.931   0.354
 8939TIP3    H126760   6.309   1.986   0.428
 8939TIP3    H226761   6.199   1.967   0.326
 8940TIP3   OH226762   1.470   2.386   6.166
 8940TIP3    H126763   1.481   2.374   6.260
 8940TIP3    H226764   1.531   2.324   6.126
 8941TIP3   OH226765   3.742   1.044   5.643
 8941TIP3    H126766   3.712   1.026   5.554
 8941TIP3    H226767   3.823   1.094   5.631
 8942TIP3   OH226768   4.147   1.360   2.481
 8942TIP3    H126769   4.131   1.292   2.416
 8942TIP3    H226770   4.136   1.316   2.566
 8943TIP3   OH226771   2.146   6.265   5.288
 8943TIP3    H126772   2.101   6.315   5.220
 8943TIP3    H226773   2.239   6.287   5.277
 8944TIP3   OH226774   4.486   4.103   0.745
 8944TIP3    H126775   4.580   4.087   0.756
 8944TIP3    H226776   4.482   4.190   0.705
 8945TIP3   OH226777   4.012   1.338   5.429
 8945TIP3    H126778   4.012   1.276   5.502
 8945TIP3    H226779   3.980   1.420   5.466
 8946TIP3   OH226780   1.502   4.177   1.623
 8946TIP3    H126781   1.483   4.205   1.713
 8946TIP3    H226782   1.471   4.087   1.619
 8947TIP3   OH226783   5.257   5.366   2.332
 8947TIP3    H126784   5.273   5.278   2.366
 8947TIP3    H226785   5.318   5.375   2.259
 8948TIP3   OH226786   1.681   2.537   5.835
 8948TIP3    H126787   1.719   2.508   5.918
 8948TIP3    H226788   1.588   2.518   5.843
 8949TIP3   OH226789   4.475   0.630   2.987
 8949TIP3    H126790   4.566   0.602   2.996
 8949TIP3    H226791   4.446   0.591   2.905
 8950TIP3   OH226792   6.432   0.646   3.490
 8950TIP3    H126793   6.353   0.700   3.485
 8950TIP3    H226794   6.404   0.566   3.535
 8951TIP3   OH226795   6.838   1.728   3.258
 8951TIP3    H126796   6.744   1.711   3.245
 8951TIP3    H226797   6.847   1.736   3.353
 8952TIP3   OH226798   6.349   3.027   2.391
 8952TIP3    H126799   6.290   2.971   2.342
 8952TIP3    H226800   6.433   2.981   2.390
 8953TIP3   OH226801   7.898   2.050   3.130
 8953TIP3    H126802   7.974   2.059   3.187
 8953TIP3    H226803   7.826   2.090   3.178
 8954TIP3   OH226804   1.731   4.565   4.189
 8954TIP3    H126805   1.699   4.559   4.099
 8954TIP3    H226806   1.769   4.653   4.195
 8955TIP3   OH226807   7.884   4.009   3.301
 8955TIP3    H126808   7.901   4.100   3.275
 8955TIP3    H226809   7.937   3.996   3.379
 8956TIP3   OH226810   2.307   0.768   1.728
 8956TIP3    H126811   2.312   0.857   1.762
 8956TIP3    H226812   2.248   0.723   1.789
 8957TIP3   OH226813   0.879   6.451   6.109
 8957TIP3    H126814   0.838   6.376   6.151
 8957TIP3    H226815   0.813   6.520   6.114
 8958TIP3   OH226816   8.017   6.782   2.248
 8958TIP3    H126817   7.926   6.773   2.218
 8958TIP3    H226818   8.067   6.724   2.190
 8959TIP3   OH226819   6.079   4.774   1.200
 8959TIP3    H126820   6.121   4.797   1.117
 8959TIP3    H226821   6.054   4.858   1.238
 8960TIP3   OH226822   3.231   3.206   2.693
 8960TIP3    H126823   3.288   3.161   2.631
 8960TIP3    H226824   3.225   3.147   2.768
 8961TIP3   OH226825   4.567   4.218   1.656
 8961TIP3    H126826   4.510   4.279   1.611
 8961TIP3    H226827   4.618   4.273   1.717
 8962TIP3   OH226828   4.000   2.383   1.390
 8962TIP3    H126829   3.991   2.461   1.445
 8962TIP3    H226830   3.925   2.329   1.413
 8963TIP3   OH226831   7.018   2.672   5.107
 8963TIP3    H126832   6.964   2.619   5.165
 8963TIP3    H226833   6.988   2.649   5.019
 8964TIP3   OH226834   3.341   4.116   2.560
 8964TIP3    H126835   3.263   4.063   2.546
 8964TIP3    H226836   3.370   4.140   2.472
 8965TIP3   OH226837   6.607   0.037   1.908
 8965TIP3    H126838   6.556   0.091   1.968
 8965TIP3    H226839   6.588  -0.053   1.934
 8966TIP3   OH226840   1.264   4.726   4.220
 8966TIP3    H126841   1.353   4.762   4.227
 8966TIP3    H226842   1.220   4.784   4.158
 8967TIP3   OH226843   5.603   1.851   5.660
 8967TIP3    H126844   5.559   1.926   5.618
 8967TIP3    H226845   5.695   1.877   5.664
 8968TIP3   OH226846   5.977   7.071   3.000
 8968TIP3    H126847   5.936   6.989   3.027
 8968TIP3    H226848   5.936   7.091   2.916
 8969TIP3   OH226849   7.736   1.238   5.588
 8969TIP3    H126850   7.771   1.163   5.540
 8969TIP3    H226851   7.774   1.230   5.676
 8970TIP3   OH226852   7.012   5.371   4.626
 8970TIP3    H126853   6.922   5.341   4.616
 8970TIP3    H226854   7.061   5.293   4.654
 8971TIP3   OH226855   8.041   7.599   3.567
 8971TIP3    H126856   8.093   7.548   3.629
 8971TIP3    H226857   8.101   7.620   3.495
 8972TIP3   OH226858   7.661   5.067   4.015
 8972TIP3    H126859   7.743   5.031   3.981
 8972TIP3    H226860   7.637   5.134   3.951
 8973TIP3   OH226861   1.022   7.450   0.519
 8973TIP3    H126862   0.964   7.497   0.460
 8973TIP3    H226863   1.050   7.373   0.469
 8974TIP3   OH226864   4.056   5.416   2.288
 8974TIP3    H126865   3.962   5.422   2.270
 8974TIP3    H226866   4.098   5.433   2.204
 8975TIP3   OH226867   0.523   0.299   2.770
 8975TIP3    H126868   0.546   0.354   2.695
 8975TIP3    H226869   0.601   0.298   2.824
 8976TIP3   OH226870   1.941   2.738   1.086
 8976TIP3    H126871   1.992   2.808   1.127
 8976TIP3    H226872   1.954   2.663   1.144
 8977TIP3   OH226873   7.198   4.193   4.209
 8977TIP3    H126874   7.266   4.225   4.150
 8977TIP3    H226875   7.226   4.105   4.232
 8978TIP3   OH226876   2.051   1.698   1.776
 8978TIP3    H126877   2.006   1.645   1.842
 8978TIP3    H226878   1.984   1.759   1.745
 8979TIP3   OH226879   1.891   4.840   1.168
 8979TIP3    H126880   1.853   4.768   1.118
 8979TIP3    H226881   1.947   4.798   1.233
 8980TIP3   OH226882   1.221   2.433   1.814
 8980TIP3    H126883   1.277   2.356   1.813
 8980TIP3    H226884   1.135   2.402   1.785
 8981TIP3   OH226885   6.792   1.883   2.254
 8981TIP3    H126886   6.799   1.790   2.275
 8981TIP3    H226887   6.811   1.928   2.337
 8982TIP3   OH226888   0.387   5.589   0.374
 8982TIP3    H126889   0.435   5.592   0.457
 8982TIP3    H226890   0.369   5.680   0.354
 8983TIP3   OH226891   7.771   1.617   3.916
 8983TIP3    H126892   7.679   1.590   3.913
 8983TIP3    H226893   7.819   1.535   3.926
 8984TIP3   OH226894   7.991   2.905   1.631
 8984TIP3    H126895   8.050   2.950   1.570
 8984TIP3    H226896   7.914   2.961   1.636
 8985TIP3   OH226897   1.287   3.129   6.577
 8985TIP3    H126898   1.253   3.118   6.488
 8985TIP3    H226899   1.326   3.045   6.598
 8986TIP3   OH226900   4.293   2.124   2.002
 8986TIP3    H126901   4.268   2.063   2.071
 8986TIP3    H226902   4.379   2.156   2.027
 8987TIP3   OH226903   5.131   0.032   0.167
 8987TIP3    H126904   5.046   0.075   0.174
 8987TIP3    H226905   5.187   0.095   0.121
 8988TIP3   OH226906   6.981   3.879   4.309
 8988TIP3    H126907   7.016   3.800   4.270
 8988TIP3    H226908   6.967   3.938   4.235
 8989TIP3   OH226909   1.680   3.303   5.198
 8989TIP3    H126910   1.586   3.324   5.192
 8989TIP3    H226911   1.717   3.338   5.117
 8990TIP3   OH226912   5.079   1.218   5.747
 8990TIP3    H126913   5.050   1.197   5.836
 8990TIP3    H226914   5.112   1.135   5.713
 8991TIP3   OH226915   1.731   1.970   6.189
 8991TIP3    H126916   1.662   1.909   6.215
 8991TIP3    H226917   1.812   1.922   6.202
 8992TIP3   OH226918   7.678   3.671   2.989
 8992TIP3    H126919   7.624   3.719   2.926
 8992TIP3    H226920   7.749   3.731   3.011
 8993TIP3   OH226921   6.934   7.510   3.855
 8993TIP3    H126922   6.990   7.435   3.874
 8993TIP3    H226923   6.905   7.496   3.765
 8994TIP3   OH226924   0.203   7.780   0.362
 8994TIP3    H126925   0.264   7.706   0.369
 8994TIP3    H226926   0.195   7.795   0.268
 8995TIP3   OH226927   2.302   1.217   2.945
 8995TIP3    H126928   2.239   1.250   3.009
 8995TIP3    H226929   2.356   1.293   2.923
 8996TIP3   OH226930   3.278   5.186   6.649
 8996TIP3    H126931   3.274   5.166   6.742
 8996TIP3    H226932   3.352   5.134   6.616
 8997TIP3   OH226933   2.676   3.479   6.632
 8997TIP3    H126934   2.752   3.431   6.665
 8997TIP3    H226935   2.689   3.569   6.663
 8998TIP3   OH226936   0.836   3.420   6.075
 8998TIP3    H126937   0.860   3.403   6.167
 8998TIP3    H226938   0.744   3.394   6.070
 8999TIP3   OH226939   6.530   1.596   6.531
 8999TIP3    H126940   6.541   1.648   6.452
 8999TIP3    H226941   6.450   1.630   6.572
 9000TIP3   OH226942   0.659   2.429   4.808
 9000TIP3    H126943   0.629   2.345   4.842
 9000TIP3    H226944   0.580   2.471   4.774
 9001TIP3   OH226945   7.130   2.771   5.941
 9001TIP3    H126946   7.188   2.758   6.016
 9001TIP3    H226947   7.100   2.683   5.919
 9002TIP3   OH226948   1.538   2.229   5.400
 9002TIP3    H126949   1.619   2.277   5.384
 9002TIP3    H226950   1.470   2.282   5.357
 9003TIP3   OH226951   0.552   4.510   6.353
 9003TIP3    H126952   0.467   4.485   6.319
 9003TIP3    H226953   0.540   4.600   6.386
 9004TIP3   OH226954   0.984   7.601   1.153
 9004TIP3    H126955   1.063   7.622   1.203
 9004TIP3    H226956   0.962   7.682   1.106
 9005TIP3   OH226957   6.933   1.903   0.361
 9005TIP3    H126958   6.970   1.991   0.358
 9005TIP3    H226959   6.999   1.850   0.405
 9006TIP3   OH226960   4.604   7.517   3.984
 9006TIP3    H126961   4.593   7.562   3.900
 9006TIP3    H226962   4.667   7.571   4.032
 9007TIP3   OH226963   5.779   6.396   0.204
 9007TIP3    H126964   5.725   6.474   0.217
 9007TIP3    H226965   5.865   6.430   0.181
 9008TIP3   OH226966   4.705   6.526   0.341
 9008TIP3    H126967   4.688   6.483   0.257
 9008TIP3    H226968   4.618   6.539   0.379
 9009TIP3   OH226969   6.137   6.824   0.218
 9009TIP3    H126970   6.186   6.812   0.300
 9009TIP3    H226971   6.164   6.752   0.163
 9010TIP3   OH226972   6.351   0.508   0.690
 9010TIP3    H126973   6.410   0.578   0.719
 9010TIP3    H226974   6.308   0.543   0.612
 9011TIP3   OH226975   0.487   7.770   0.948
 9011TIP3    H126976   0.527   7.747   1.033
 9011TIP3    H226977   0.562   7.782   0.890
 9012TIP3   OH226978   3.469   5.701   2.932
 9012TIP3    H126979   3.408   5.722   2.861
 9012TIP3    H226980   3.441   5.758   3.005
 9013TIP3   OH226981   2.994   6.754   3.086
 9013TIP3    H126982   3.011   6.677   3.140
 9013TIP3    H226983   2.898   6.762   3.086
 9014TIP3   OH226984   6.636   1.096   3.746
 9014TIP3    H126985   6.666   1.009   3.721
 9014TIP3    H226986   6.584   1.082   3.825
 9015TIP3   OH226987   4.272   1.068   6.123
 9015TIP3    H126988   4.331   1.011   6.073
 9015TIP3    H226989   4.322   1.091   6.201
 9016TIP3   OH226990   1.716   3.173   6.101
 9016TIP3    H126991   1.654   3.218   6.044
 9016TIP3    H226992   1.683   3.189   6.190
 9017TIP3   OH226993   4.354   7.679   0.484
 9017TIP3    H126994   4.293   7.716   0.548
 9017TIP3    H226995   4.297   7.644   0.415
 9018TIP3   OH226996   4.335   7.142   5.484
 9018TIP3    H126997   4.287   7.206   5.536
 9018TIP3    H226998   4.283   7.062   5.490
 9019TIP3   OH226999   4.937   0.217   1.823
 9019TIP3    H127000   4.915   0.309   1.807
 9019TIP3    H227001   4.870   0.168   1.774
 9020TIP3   OH227002   3.908   5.022   1.632
 9020TIP3    H127003   3.882   5.111   1.608
 9020TIP3    H227004   3.958   5.033   1.713
 9021TIP3   OH227005   0.160   4.191   3.725
 9021TIP3    H127006   0.223   4.245   3.772
 9021TIP3    H227007   0.089   4.178   3.788
 9022TIP3   OH227008   6.895   0.476   0.250
 9022TIP3    H127009   6.801   0.473   0.233
 9022TIP3    H227010   6.928   0.543   0.189
 9023TIP3   OH227011   5.351   1.667   5.390
 9023TIP3    H127012   5.383   1.756   5.377
 9023TIP3    H227013   5.268   1.664   5.342
 9024TIP3   OH227014   4.837   7.306   2.247
 9024TIP3    H127015   4.897   7.366   2.204
 9024TIP3    H227016   4.752   7.322   2.205
 9025TIP3   OH227017   2.676   4.340   2.053
 9025TIP3    H127018   2.670   4.432   2.028
 9025TIP3    H227019   2.657   4.292   1.972
 9026TIP3   OH227020   4.643   6.445   4.595
 9026TIP3    H127021   4.700   6.370   4.578
 9026TIP3    H227022   4.694   6.500   4.655
 9027TIP3   OH227023   4.251   0.179   6.327
 9027TIP3    H127024   4.301   0.134   6.395
 9027TIP3    H227025   4.297   0.262   6.315
 9028TIP3   OH227026   5.256   5.237   0.938
 9028TIP3    H127027   5.165   5.257   0.961
 9028TIP3    H227028   5.299   5.322   0.933
 9029TIP3   OH227029   4.760   4.497   1.549
 9029TIP3    H127030   4.683   4.518   1.497
 9029TIP3    H227031   4.815   4.575   1.545
 9030TIP3   OH227032   6.082   3.006   0.683
 9030TIP3    H127033   6.104   3.095   0.654
 9030TIP3    H227034   6.139   2.950   0.630
 9031TIP3   OH227035   0.713   3.599   3.665
 9031TIP3    H127036   0.779   3.561   3.723
 9031TIP3    H227037   0.749   3.684   3.640
 9032TIP3   OH227038   4.432   3.517   4.522
 9032TIP3    H127039   4.407   3.431   4.488
 9032TIP3    H227040   4.518   3.534   4.483
 9033TIP3   OH227041   0.652   7.466   2.272
 9033TIP3    H127042   0.745   7.444   2.264
 9033TIP3    H227043   0.643   7.501   2.360
 9034TIP3   OH227044   2.740   3.140   0.890
 9034TIP3    H127045   2.691   3.068   0.930
 9034TIP3    H227046   2.710   3.142   0.799
 9035TIP3   OH227047   2.849   1.362   4.634
 9035TIP3    H127048   2.832   1.367   4.539
 9035TIP3    H227049   2.766   1.330   4.671
 9036TIP3   OH227050   1.381   0.716   5.153
 9036TIP3    H127051   1.424   0.801   5.143
 9036TIP3    H227052   1.295   0.728   5.111
 9037TIP3   OH227053   6.320   1.640   6.696
 9037TIP3    H127054   6.332   1.720   6.747
 9037TIP3    H227055   6.326   1.569   6.760
 9038TIP3   OH227056   3.748   2.101   4.149
 9038TIP3    H127057   3.767   2.064   4.062
 9038TIP3    H227058   3.699   2.032   4.194
 9039TIP3   OH227059   2.168   2.849   3.571
 9039TIP3    H127060   2.206   2.926   3.613
 9039TIP3    H227061   2.226   2.777   3.596
 9040TIP3   OH227062   5.767   6.367   5.687
 9040TIP3    H127063   5.701   6.436   5.679
 9040TIP3    H227064   5.808   6.382   5.772
 9041TIP3   OH227065   7.182   2.625   0.778
 9041TIP3    H127066   7.218   2.697   0.726
 9041TIP3    H227067   7.151   2.667   0.858
 9042TIP3   OH227068   6.335   5.337   1.424
 9042TIP3    H127069   6.408   5.387   1.388
 9042TIP3    H227070   6.257   5.385   1.396
 9043TIP3   OH227071   7.480   5.185   2.101
 9043TIP3    H127072   7.488   5.192   2.196
 9043TIP3    H227073   7.543   5.116   2.077
 9044TIP3   OH227074   1.130   3.338   2.681
 9044TIP3    H127075   1.158   3.428   2.668
 9044TIP3    H227076   1.108   3.332   2.774
 9045TIP3   OH227077   2.010   7.675   1.648
 9045TIP3    H127078   2.089   7.627   1.624
 9045TIP3    H227079   1.944   7.608   1.663
 9046TIP3   OH227080   4.902   3.554   4.252
 9046TIP3    H127081   4.897   3.643   4.287
 9046TIP3    H227082   4.913   3.566   4.158
 9047TIP3   OH227083   3.957   6.277   5.920
 9047TIP3    H127084   3.889   6.334   5.957
 9047TIP3    H227085   4.038   6.327   5.929
 9048TIP3   OH227086   3.286   1.840   4.789
 9048TIP3    H127087   3.272   1.924   4.832
 9048TIP3    H227088   3.283   1.776   4.860
 9049TIP3   OH227089   4.637   2.172   1.591
 9049TIP3    H127090   4.638   2.220   1.673
 9049TIP3    H227091   4.684   2.228   1.529
 9050TIP3   OH227092   5.672   5.437   4.399
 9050TIP3    H127093   5.606   5.486   4.448
 9050TIP3    H227094   5.688   5.491   4.321
 9051TIP3   OH227095   2.100   4.339   5.693
 9051TIP3    H127096   2.085   4.244   5.687
 9051TIP3    H227097   2.151   4.350   5.773
 9052TIP3   OH227098   7.048   3.333   1.024
 9052TIP3    H127099   6.999   3.385   0.960
 9052TIP3    H227100   6.994   3.255   1.038
 9053TIP3   OH227101   6.655   5.749   5.851
 9053TIP3    H127102   6.609   5.759   5.934
 9053TIP3    H227103   6.709   5.828   5.844
 9054TIP3   OH227104   4.052   0.646   0.792
 9054TIP3    H127105   3.995   0.602   0.854
 9054TIP3    H227106   3.994   0.702   0.740
 9055TIP3   OH227107   4.161   6.597   1.678
 9055TIP3    H127108   4.218   6.622   1.751
 9055TIP3    H227109   4.162   6.501   1.680
 9056TIP3   OH227110   3.986   6.038   5.710
 9056TIP3    H127111   3.961   6.122   5.747
 9056TIP3    H227112   4.055   6.006   5.768
 9057TIP3   OH227113   8.074   1.209   4.474
 9057TIP3    H127114   8.086   1.150   4.400
 9057TIP3    H227115   8.133   1.176   4.542
 9058TIP3   OH227116   1.322   0.018   5.042
 9058TIP3    H127117   1.306   0.097   5.094
 9058TIP3    H227118   1.408  -0.012   5.071
 9059TIP3   OH227119   0.922   2.548   6.574
 9059TIP3    H127120   0.967   2.499   6.505
 9059TIP3    H227121   0.896   2.630   6.532
 9060TIP3   OH227122   5.290   5.265   4.425
 9060TIP3    H127123   5.254   5.183   4.391
 9060TIP3    H227124   5.355   5.237   4.490
 9061TIP3   OH227125   4.612   6.815   0.228
 9061TIP3    H127126   4.566   6.739   0.193
 9061TIP3    H227127   4.704   6.800   0.207
 9062TIP3   OH227128   2.103   0.229   6.763
 9062TIP3    H127129   2.198   0.219   6.767
 9062TIP3    H227130   2.080   0.207   6.672
 9063TIP3   OH227131   2.017   5.888   2.288
 9063TIP3    H127132   1.965   5.831   2.230
 9063TIP3    H227133   1.952   5.948   2.326
 9064TIP3   OH227134   1.348   6.180   1.201
 9064TIP3    H127135   1.362   6.191   1.295
 9064TIP3    H227136   1.425   6.221   1.161
 9065TIP3   OH227137   4.077   0.828   5.663
 9065TIP3    H127138   4.158   0.857   5.705
 9065TIP3    H227139   4.042   0.762   5.722
 9066TIP3   OH227140   3.126   7.494   1.206
 9066TIP3    H127141   3.056   7.488   1.270
 9066TIP3    H227142   3.141   7.403   1.178
 9067TIP3   OH227143   3.320   6.715   6.251
 9067TIP3    H127144   3.236   6.732   6.207
 9067TIP3    H227145   3.297   6.657   6.324
 9068TIP3   OH227146   7.183   6.264   4.786
 9068TIP3    H127147   7.194   6.291   4.695
 9068TIP3    H227148   7.162   6.345   4.833
 9069TIP3   OH227149   3.474   4.567   3.952
 9069TIP3    H127150   3.485   4.648   4.001
 9069TIP3    H227151   3.549   4.564   3.892
 9070TIP3   OH227152   3.235   2.320   2.989
 9070TIP3    H127153   3.143   2.294   2.986
 9070TIP3    H227154   3.236   2.397   3.047
 9071TIP3   OH227155   7.877   2.659   4.141
 9071TIP3    H127156   7.819   2.708   4.200
 9071TIP3    H227157   7.965   2.694   4.160
 9072TIP3   OH227158   3.820   3.115   6.342
 9072TIP3    H127159   3.830   3.021   6.358
 9072TIP3    H227160   3.909   3.144   6.320
 9073TIP3   OH227161   5.829   1.045   2.940
 9073TIP3    H127162   5.827   1.100   2.862
 9073TIP3    H227163   5.893   1.086   2.997
 9074TIP3   OH227164   6.342   3.747   6.751
 9074TIP3    H127165   6.273   3.808   6.779
 9074TIP3    H227166   6.296   3.665   6.735
 9075TIP3   OH227167   1.203   3.212   6.006
 9075TIP3    H127168   1.234   3.256   5.926
 9075TIP3    H227169   1.179   3.284   6.064
 9076TIP3   OH227170   6.932   2.962   6.575
 9076TIP3    H127171   6.958   2.873   6.550
 9076TIP3    H227172   6.948   2.967   6.669
 9077TIP3   OH227173   3.354   5.266   0.733
 9077TIP3    H127174   3.330   5.190   0.786
 9077TIP3    H227175   3.343   5.341   0.792
 9078TIP3   OH227176   5.387   4.777   4.523
 9078TIP3    H127177   5.332   4.820   4.590
 9078TIP3    H227178   5.325   4.724   4.473
 9079TIP3   OH227179   1.743   5.419   3.513
 9079TIP3    H127180   1.679   5.485   3.537
 9079TIP3    H227181   1.828   5.459   3.534
 9080TIP3   OH227182   7.416   7.575   0.072
 9080TIP3    H127183   7.431   7.611   0.159
 9080TIP3    H227184   7.354   7.504   0.086
 9081TIP3   OH227185   8.077   5.984   4.996
 9081TIP3    H127186   8.042   5.904   5.034
 9081TIP3    H227187   8.026   6.054   5.035
 9082TIP3   OH227188   1.674   4.901   2.767
 9082TIP3    H127189   1.728   4.836   2.813
 9082TIP3    H227190   1.608   4.927   2.831
 9083TIP3   OH227191   0.933   6.085   0.563
 9083TIP3    H127192   0.973   6.168   0.536
 9083TIP3    H227193   1.004   6.021   0.558
 9084TIP3   OH227194   5.060   1.912   1.446
 9084TIP3    H127195   5.044   1.828   1.402
 9084TIP3    H227196   5.010   1.906   1.527
 9085TIP3   OH227197   2.982   0.438   2.562
 9085TIP3    H127198   3.001   0.444   2.655
 9085TIP3    H227199   2.949   0.348   2.550
 9086TIP3   OH227200   1.011   5.485   1.523
 9086TIP3    H127201   1.048   5.548   1.586
 9086TIP3    H227202   0.930   5.526   1.494
 9087TIP3   OH227203   1.361   7.493   6.760
 9087TIP3    H127204   1.306   7.567   6.736
 9087TIP3    H227205   1.351   7.431   6.688
 9088TIP3   OH227206   1.897   3.740   6.367
 9088TIP3    H127207   1.988   3.766   6.379
 9088TIP3    H227208   1.873   3.699   6.450
 9089TIP3   OH227209   3.212   6.960   6.113
 9089TIP3    H127210   3.276   6.897   6.078
 9089TIP3    H227211   3.241   6.975   6.203
 9090TIP3   OH227212   0.227   1.474   2.389
 9090TIP3    H127213   0.195   1.561   2.411
 9090TIP3    H227214   0.322   1.479   2.402
 9091TIP3   OH227215   2.177   3.265   2.834
 9091TIP3    H127216   2.100   3.243   2.783
 9091TIP3    H227217   2.242   3.199   2.810
 9092TIP3   OH227218   4.995   6.800   1.499
 9092TIP3    H127219   4.998   6.779   1.406
 9092TIP3    H227220   5.047   6.880   1.507
 9093TIP3   OH227221   2.261   1.578   0.190
 9093TIP3    H127222   2.306   1.496   0.213
 9093TIP3    H227223   2.170   1.552   0.177
 9094TIP3   OH227224   0.258   0.649   5.001
 9094TIP3    H127225   0.225   0.722   4.949
 9094TIP3    H227226   0.269   0.577   4.939
 9095TIP3   OH227227   5.368   6.640   2.197
 9095TIP3    H127228   5.303   6.647   2.267
 9095TIP3    H227229   5.328   6.581   2.133
 9096TIP3   OH227230   5.090   1.293   3.437
 9096TIP3    H127231   5.005   1.336   3.431
 9096TIP3    H227232   5.139   1.343   3.502
 9097TIP3   OH227233   4.286   7.698   2.618
 9097TIP3    H127234   4.203   7.688   2.665
 9097TIP3    H227235   4.299   7.793   2.611
 9098TIP3   OH227236   5.603   5.646   2.310
 9098TIP3    H127237   5.656   5.723   2.287
 9098TIP3    H227238   5.524   5.655   2.257
 9099TIP3   OH227239   7.052   1.686   5.136
 9099TIP3    H127240   7.098   1.649   5.061
 9099TIP3    H227241   6.967   1.643   5.137
 9100TIP3   OH227242   1.774   7.066   3.185
 9100TIP3    H127243   1.787   6.987   3.132
 9100TIP3    H227244   1.717   7.037   3.256
 9101TIP3   OH227245   3.185   3.607   2.110
 9101TIP3    H127246   3.271   3.638   2.081
 9101TIP3    H227247   3.148   3.680   2.158
 9102TIP3   OH227248   4.621   0.215   0.578
 9102TIP3    H127249   4.592   0.146   0.518
 9102TIP3    H227250   4.701   0.180   0.618
 9103TIP3   OH227251   7.063   0.079   4.001
 9103TIP3    H127252   6.977   0.111   3.974
 9103TIP3    H227253   7.102   0.153   4.048
 9104TIP3   OH227254   0.125   6.129   3.385
 9104TIP3    H127255   0.086   6.209   3.348
 9104TIP3    H227256   0.081   6.118   3.469
 9105TIP3   OH227257   4.744   4.465   4.088
 9105TIP3    H127258   4.809   4.531   4.065
 9105TIP3    H227259   4.759   4.448   4.181
 9106TIP3   OH227260   8.238   4.080   3.892
 9106TIP3    H127261   8.154   4.045   3.924
 9106TIP3    H227262   8.304   4.025   3.935
 9107TIP3   OH227263   5.131   0.614   5.750
 9107TIP3    H127264   5.064   0.577   5.806
 9107TIP3    H227265   5.091   0.618   5.663
 9108TIP3   OH227266   7.953   6.049   0.632
 9108TIP3    H127267   8.031   6.104   0.634
 9108TIP3    H227268   7.986   5.960   0.646
 9109TIP3   OH227269   4.969   7.370   2.744
 9109TIP3    H127270   4.997   7.447   2.695
 9109TIP3    H227271   4.946   7.403   2.831
 9110TIP3   OH227272   7.574   3.566   0.009
 9110TIP3    H127273   7.623   3.519   0.076
 9110TIP3    H227274   7.499   3.604   0.056
 9111TIP3   OH227275   6.564   2.285   1.178
 9111TIP3    H127276   6.632   2.351   1.162
 9111TIP3    H227277   6.582   2.216   1.115
 9112TIP3   OH227278   1.061   2.291   5.317
 9112TIP3    H127279   1.048   2.204   5.353
 9112TIP3    H227280   1.058   2.278   5.222
 9113TIP3   OH227281   6.444   3.920   0.013
 9113TIP3    H127282   6.376   3.890  -0.048
 9113TIP3    H227283   6.521   3.867  -0.009
 9114TIP3   OH227284   6.286   2.236   2.106
 9114TIP3    H127285   6.236   2.158   2.083
 9114TIP3    H227286   6.233   2.309   2.075
 9115TIP3   OH227287   4.859   2.007   0.551
 9115TIP3    H127288   4.905   2.057   0.484
 9115TIP3    H227289   4.826   1.930   0.505
 9116TIP3   OH227290   4.051   7.601   1.950
 9116TIP3    H127291   4.047   7.613   1.855
 9116TIP3    H227292   4.094   7.517   1.962
 9117TIP3   OH227293   5.963   0.448   0.444
 9117TIP3    H127294   5.942   0.358   0.472
 9117TIP3    H227295   5.943   0.450   0.351
 9118TIP3   OH227296   2.102   1.567   2.838
 9118TIP3    H127297   2.079   1.553   2.746
 9118TIP3    H227298   2.050   1.502   2.886
 9119TIP3   OH227299   8.269   5.145   5.645
 9119TIP3    H127300   8.248   5.057   5.613
 9119TIP3    H227301   8.190   5.172   5.693
 9120TIP3   OH227302   7.585   6.291   3.536
 9120TIP3    H127303   7.532   6.333   3.468
 9120TIP3    H227304   7.546   6.204   3.547
 9121TIP3   OH227305   1.617   1.112   4.933
 9121TIP3    H127306   1.609   1.172   4.859
 9121TIP3    H227307   1.663   1.036   4.897
 9122TIP3   OH227308   4.534   4.260   6.741
 9122TIP3    H127309   4.614   4.252   6.793
 9122TIP3    H227310   4.510   4.353   6.749
 9123TIP3   OH227311   1.523   6.084   6.079
 9123TIP3    H127312   1.446   6.099   6.025
 9123TIP3    H227313   1.552   5.996   6.057
 9124TIP3   OH227314   1.771   2.822   3.802
 9124TIP3    H127315   1.815   2.902   3.775
 9124TIP3    H227316   1.822   2.751   3.762
 9125TIP3   OH227317   8.035   6.045   2.105
 9125TIP3    H127318   7.944   6.046   2.134
 9125TIP3    H227319   8.050   6.132   2.067
 9126TIP3   OH227320   8.243   7.154   3.849
 9126TIP3    H127321   8.239   7.063   3.819
 9126TIP3    H227322   8.194   7.203   3.783
 9127TIP3   OH227323   1.087   2.561   4.836
 9127TIP3    H127324   1.105   2.477   4.794
 9127TIP3    H227325   1.038   2.538   4.915
 9128TIP3   OH227326   2.390   5.223   4.237
 9128TIP3    H127327   2.367   5.147   4.183
 9128TIP3    H227328   2.435   5.185   4.313
 9129TIP3   OH227329   7.721   3.389   3.059
 9129TIP3    H127330   7.691   3.468   3.015
 9129TIP3    H227331   7.784   3.420   3.124
 9130TIP3   OH227332   0.739   1.748   5.332
 9130TIP3    H127333   0.787   1.702   5.401
 9130TIP3    H227334   0.705   1.826   5.374
 9131TIP3   OH227335   7.420   7.675   5.844
 9131TIP3    H127336   7.324   7.675   5.838
 9131TIP3    H227337   7.447   7.745   5.785
 9132TIP3   OH227338   1.985   7.077   5.108
 9132TIP3    H127339   1.970   7.159   5.061
 9132TIP3    H227340   2.051   7.098   5.174
 9133TIP3   OH227341   8.206   7.260   5.872
 9133TIP3    H127342   8.247   7.347   5.869
 9133TIP3    H227343   8.222   7.229   5.961
 9134TIP3   OH227344   2.382   3.293   5.495
 9134TIP3    H127345   2.308   3.251   5.540
 9134TIP3    H227346   2.409   3.229   5.429
 9135TIP3   OH227347   5.397   6.752   5.686
 9135TIP3    H127348   5.332   6.778   5.751
 9135TIP3    H227349   5.476   6.735   5.737
 9136TIP3   OH227350   0.235   6.812   5.347
 9136TIP3    H127351   0.284   6.879   5.299
 9136TIP3    H227352   0.273   6.812   5.435
 9137TIP3   OH227353   6.914   4.052   1.581
 9137TIP3    H127354   6.825   4.074   1.553
 9137TIP3    H227355   6.902   3.998   1.659
 9138TIP3   OH227356   1.741   3.838   5.093
 9138TIP3    H127357   1.653   3.858   5.124
 9138TIP3    H227358   1.781   3.790   5.166
 9139TIP3   OH227359   0.929   7.688   3.313
 9139TIP3    H127360   0.943   7.656   3.403
 9139TIP3    H227361   0.899   7.610   3.265
 9140TIP3   OH227362   1.393   6.262   2.249
 9140TIP3    H127363   1.363   6.188   2.303
 9140TIP3    H227364   1.372   6.236   2.160
 9141TIP3   OH227365   7.767   3.516   2.059
 9141TIP3    H127366   7.693   3.575   2.073
 9141TIP3    H227367   7.811   3.512   2.144
 9142TIP3   OH227368   6.160   2.944   1.729
 9142TIP3    H127369   6.164   2.978   1.640
 9142TIP3    H227370   6.095   2.998   1.773
 9143TIP3   OH227371   0.561   3.931   2.176
 9143TIP3    H127372   0.521   4.005   2.221
 9143TIP3    H227373   0.649   3.924   2.215
 9144TIP3   OH227374   0.178   4.224   1.014
 9144TIP3    H127375   0.212   4.184   0.934
 9144TIP3    H227376   0.095   4.178   1.029
 9145TIP3   OH227377   6.322   0.917   1.973
 9145TIP3    H127378   6.361   0.830   1.965
 9145TIP3    H227379   6.309   0.929   2.067
 9146TIP3   OH227380   2.008   1.064   0.639
 9146TIP3    H127381   2.043   0.993   0.692
 9146TIP3    H227382   2.085   1.108   0.603
 9147TIP3   OH227383   4.964   5.679   1.358
 9147TIP3    H127384   4.994   5.683   1.267
 9147TIP3    H227385   4.879   5.723   1.357
 9148TIP3   OH227386   7.858   1.425   0.132
 9148TIP3    H127387   7.856   1.504   0.185
 9148TIP3    H227388   7.767   1.409   0.108
 9149TIP3   OH227389   3.813   4.738   3.924
 9149TIP3    H127390   3.807   4.771   3.834
 9149TIP3    H227391   3.782   4.647   3.918
 9150TIP3   OH227392   0.550   3.141   6.118
 9150TIP3    H127393   0.457   3.124   6.104
 9150TIP3    H227394   0.553   3.193   6.198
 9151TIP3   OH227395   5.621   4.632   1.047
 9151TIP3    H127396   5.639   4.720   1.081
 9151TIP3    H227397   5.657   4.633   0.958
 9152TIP3   OH227398   2.941   4.577   6.131
 9152TIP3    H127399   2.935   4.482   6.135
 9152TIP3    H227400   2.984   4.595   6.048
 9153TIP3   OH227401   8.270   6.426   6.470
 9153TIP3    H127402   8.309   6.453   6.388
 9153TIP3    H227403   8.330   6.458   6.537
 9154TIP3   OH227404   6.735   3.550   0.431
 9154TIP3    H127405   6.742   3.635   0.387
 9154TIP3    H227406   6.658   3.558   0.486
 9155TIP3   OH227407   1.578   0.122   0.618
 9155TIP3    H127408   1.517   0.167   0.560
 9155TIP3    H227409   1.535   0.039   0.640
 9156TIP3   OH227410   0.013   5.495   4.981
 9156TIP3    H127411  -0.023   5.444   4.909
 9156TIP3    H227412   0.072   5.558   4.939
 9157TIP3   OH227413   6.958   1.554   6.243
 9157TIP3    H127414   6.940   1.513   6.158
 9157TIP3    H227415   6.893   1.515   6.302
 9158TIP3   OH227416   7.892   1.305   6.464
 9158TIP3    H127417   7.963   1.241   6.455
 9158TIP3    H227418   7.889   1.349   6.379
 9159TIP3   OH227419   7.956   4.625   0.378
 9159TIP3    H127420   8.034   4.593   0.423
 9159TIP3    H227421   7.883   4.582   0.424
 9160TIP3   OH227422   3.593   4.600   4.531
 9160TIP3    H127423   3.634   4.625   4.614
 9160TIP3    H227424   3.521   4.542   4.556
 9161TIP3   OH227425   6.382   2.985   3.442
 9161TIP3    H127426   6.290   2.962   3.448
 9161TIP3    H227427   6.424   2.936   3.513
 9162TIP3   OH227428   6.057   0.338   5.079
 9162TIP3    H127429   6.039   0.252   5.041
 9162TIP3    H227430   6.031   0.401   5.012
 9163TIP3   OH227431   0.710   6.150   6.023
 9163TIP3    H127432   0.629   6.099   6.017
 9163TIP3    H227433   0.761   6.104   6.090
 9164TIP3   OH227434   7.907   0.522   2.453
 9164TIP3    H127435   7.892   0.545   2.361
 9164TIP3    H227436   7.990   0.564   2.474
 9165TIP3   OH227437   1.034   0.823   0.635
 9165TIP3    H127438   0.943   0.847   0.614
 9165TIP3    H227439   1.030   0.795   0.726
 9166TIP3   OH227440   0.761   5.300   1.357
 9166TIP3    H127441   0.828   5.231   1.353
 9166TIP3    H227442   0.783   5.358   1.284
 9167TIP3   OH227443   0.222   4.427   3.933
 9167TIP3    H127444   0.305   4.403   3.975
 9167TIP3    H227445   0.220   4.522   3.936
 9168TIP3   OH227446   3.671   0.960   5.390
 9168TIP3    H127447   3.728   0.889   5.360
 9168TIP3    H227448   3.671   1.023   5.318
 9169TIP3   OH227449   0.352   5.600   6.025
 9169TIP3    H127450   0.436   5.554   6.019
 9169TIP3    H227451   0.333   5.602   6.118
 9170TIP3   OH227452   1.460   0.605   2.037
 9170TIP3    H127453   1.549   0.581   2.009
 9170TIP3    H227454   1.429   0.529   2.085
 9171TIP3   OH227455   1.079   2.513   1.527
 9171TIP3    H127456   1.120   2.426   1.522
 9171TIP3    H227457   1.151   2.573   1.543
 9172TIP3   OH227458   3.192   0.741   6.479
 9172TIP3    H127459   3.211   0.801   6.407
 9172TIP3    H227460   3.104   0.765   6.507
 9173TIP3   OH227461   4.541   0.958   1.507
 9173TIP3    H127462   4.513   0.887   1.565
 9173TIP3    H227463   4.474   1.025   1.517
 9174TIP3   OH227464   5.469   7.003   4.194
 9174TIP3    H127465   5.419   7.073   4.152
 9174TIP3    H227466   5.553   7.044   4.218
 9175TIP3   OH227467   2.883   3.417   4.695
 9175TIP3    H127468   2.928   3.448   4.774
 9175TIP3    H227469   2.800   3.465   4.695
 9176TIP3   OH227470   1.967   4.589   0.147
 9176TIP3    H127471   2.052   4.587   0.191
 9176TIP3    H227472   1.932   4.501   0.158
 9177TIP3   OH227473   0.770   7.531   5.641
 9177TIP3    H127474   0.806   7.572   5.720
 9177TIP3    H227475   0.780   7.597   5.573
 9178TIP3   OH227476   7.930   2.719   1.436
 9178TIP3    H127477   7.835   2.732   1.431
 9178TIP3    H227478   7.957   2.772   1.512
 9179TIP3   OH227479   2.311   3.311   6.572
 9179TIP3    H127480   2.348   3.289   6.487
 9179TIP3    H227481   2.220   3.283   6.568
 9180TIP3   OH227482   4.653   2.285   3.599
 9180TIP3    H127483   4.559   2.274   3.584
 9180TIP3    H227484   4.689   2.197   3.589
 9181TIP3   OH227485   5.006   5.815   4.454
 9181TIP3    H127486   5.081   5.768   4.417
 9181TIP3    H227487   4.952   5.745   4.492
 9182TIP3   OH227488   4.635   5.054   0.212
 9182TIP3    H127489   4.666   5.084   0.127
 9182TIP3    H227490   4.700   4.989   0.239
 9183TIP3   OH227491   7.004   4.541   2.697
 9183TIP3    H127492   6.908   4.547   2.702
 9183TIP3    H227493   7.022   4.448   2.711
 9184TIP3   OH227494   7.658   0.301   6.227
 9184TIP3    H127495   7.567   0.326   6.243
 9184TIP3    H227496   7.671   0.316   6.134
 9185TIP3   OH227497   3.692   4.283   3.731
 9185TIP3    H127498   3.770   4.266   3.678
 9185TIP3    H227499   3.620   4.248   3.679
 9186TIP3   OH227500   7.753   7.605   1.494
 9186TIP3    H127501   7.750   7.698   1.518
 9186TIP3    H227502   7.663   7.574   1.504
 9187TIP3   OH227503   7.080   6.526   4.342
 9187TIP3    H127504   7.067   6.503   4.251
 9187TIP3    H227505   7.163   6.573   4.344
 9188TIP3   OH227506   0.378   0.034   3.293
 9188TIP3    H127507   0.471   0.051   3.278
 9188TIP3    H227508   0.334   0.111   3.258
 9189TIP3   OH227509   3.120   1.992   5.311
 9189TIP3    H127510   3.070   2.064   5.273
 9189TIP3    H227511   3.210   2.024   5.313
 9190TIP3   OH227512   7.322   0.641   6.466
 9190TIP3    H127513   7.298   0.715   6.522
 9190TIP3    H227514   7.292   0.666   6.379
 9191TIP3   OH227515   2.427   2.598   6.015
 9191TIP3    H127516   2.507   2.549   5.996
 9191TIP3    H227517   2.357   2.532   6.013
 9192TIP3   OH227518   2.449   3.081   5.358
 9192TIP3    H127519   2.369   3.058   5.310
 9192TIP3    H227520   2.511   3.012   5.335
 9193TIP3   OH227521   6.674   5.033   1.307
 9193TIP3    H127522   6.737   4.983   1.254
 9193TIP3    H227523   6.592   4.985   1.299
 9194TIP3   OH227524   6.478   5.994   5.959
 9194TIP3    H127525   6.564   6.029   5.983
 9194TIP3    H227526   6.426   6.002   6.039
 9195TIP3   OH227527   1.585   4.021   3.608
 9195TIP3    H127528   1.594   4.114   3.625
 9195TIP3    H227529   1.674   3.987   3.605
 9196TIP3   OH227530   6.140   4.946   4.178
 9196TIP3    H127531   6.204   4.923   4.111
 9196TIP3    H227532   6.182   4.923   4.261
 9197TIP3   OH227533   6.249   5.413   2.665
 9197TIP3    H127534   6.202   5.496   2.671
 9197TIP3    H227535   6.216   5.361   2.738
 9198TIP3   OH227536   3.970   7.553   5.356
 9198TIP3    H127537   3.923   7.543   5.439
 9198TIP3    H227538   4.047   7.606   5.377
 9199TIP3   OH227539   1.033   0.086   2.170
 9199TIP3    H127540   1.035   0.117   2.079
 9199TIP3    H227541   0.953   0.123   2.207
 9200TIP3   OH227542   1.151   0.507   5.677
 9200TIP3    H127543   1.155   0.527   5.770
 9200TIP3    H227544   1.071   0.457   5.666
 9201TIP3   OH227545   1.809   7.040   0.837
 9201TIP3    H127546   1.743   7.092   0.883
 9201TIP3    H227547   1.892   7.081   0.861
 9202TIP3   OH227548   0.347   6.809   3.582
 9202TIP3    H127549   0.363   6.890   3.534
 9202TIP3    H227550   0.420   6.752   3.559
 9203TIP3   OH227551   6.775   7.407   5.367
 9203TIP3    H127552   6.767   7.382   5.274
 9203TIP3    H227553   6.845   7.352   5.400
 9204TIP3   OH227554   3.352   3.852   0.944
 9204TIP3    H127555   3.309   3.830   1.027
 9204TIP3    H227556   3.365   3.768   0.901
 9205TIP3   OH227557   4.556   3.991   4.372
 9205TIP3    H127558   4.584   4.002   4.281
 9205TIP3    H227559   4.468   3.954   4.366
 9206TIP3   OH227560   5.027   7.227   6.498
 9206TIP3    H127561   5.122   7.230   6.487
 9206TIP3    H227562   4.992   7.265   6.418
 9207TIP3   OH227563   7.295   2.181   4.208
 9207TIP3    H127564   7.287   2.183   4.112
 9207TIP3    H227565   7.328   2.268   4.231
 9208TIP3   OH227566   2.156   6.142   6.386
 9208TIP3    H127567   2.062   6.132   6.369
 9208TIP3    H227568   2.178   6.227   6.349
 9209TIP3   OH227569   6.041   4.834   3.102
 9209TIP3    H127570   6.032   4.755   3.050
 9209TIP3    H227571   6.113   4.882   3.062
 9210TIP3   OH227572   6.170   1.966   4.217
 9210TIP3    H127573   6.176   1.957   4.312
 9210TIP3    H227574   6.081   2.000   4.202
 9211TIP3   OH227575   7.481   5.122   3.320
 9211TIP3    H127576   7.486   5.210   3.356
 9211TIP3    H227577   7.419   5.076   3.376
 9212TIP3   OH227578   4.171   7.757   0.712
 9212TIP3    H127579   4.095   7.700   0.697
 9212TIP3    H227580   4.134   7.834   0.755
 9213TIP3   OH227581   5.720   3.213   1.604
 9213TIP3    H127582   5.806   3.202   1.564
 9213TIP3    H227583   5.658   3.192   1.534
 9214TIP3   OH227584   6.080   2.297   3.155
 9214TIP3    H127585   6.102   2.205   3.140
 9214TIP3    H227586   6.060   2.302   3.248
 9215TIP3   OH227587   5.984   5.772   0.251
 9215TIP3    H127588   5.999   5.699   0.191
 9215TIP3    H227589   6.047   5.839   0.224
 9216TIP3   OH227590   1.905   7.653   2.805
 9216TIP3    H127591   1.932   7.718   2.739
 9216TIP3    H227592   1.946   7.571   2.777
 9217TIP3   OH227593   0.474   1.798   2.688
 9217TIP3    H127594   0.415   1.729   2.720
 9217TIP3    H227595   0.482   1.781   2.594
 9218TIP3   OH227596   4.617   4.908   6.505
 9218TIP3    H127597   4.634   4.838   6.568
 9218TIP3    H227598   4.533   4.884   6.465
 9219TIP3   OH227599   0.603   6.933   0.042
 9219TIP3    H127600   0.530   6.871   0.044
 9219TIP3    H227601   0.574   7.006   0.097
 9220TIP3   OH227602   1.044   0.352   6.387
 9220TIP3    H127603   0.975   0.418   6.391
 9220TIP3    H227604   1.060   0.328   6.478
 9221TIP3   OH227605   2.545   6.110   6.432
 9221TIP3    H127606   2.568   6.202   6.450
 9221TIP3    H227607   2.498   6.114   6.348
 9222TIP3   OH227608   3.716   0.260   5.427
 9222TIP3    H127609   3.734   0.172   5.461
 9222TIP3    H227610   3.724   0.251   5.332
 9223TIP3   OH227611   1.114   1.680   4.607
 9223TIP3    H127612   1.170   1.627   4.550
 9223TIP3    H227613   1.088   1.620   4.677
 9224TIP3   OH227614   0.985   6.007   5.661
 9224TIP3    H127615   0.942   5.948   5.599
 9224TIP3    H227616   0.925   6.082   5.668
 9225TIP3   OH227617   7.681   1.596   1.328
 9225TIP3    H127618   7.616   1.526   1.342
 9225TIP3    H227619   7.754   1.571   1.385
 9226TIP3   OH227620   2.119   4.021   5.451
 9226TIP3    H127621   2.194   4.060   5.496
 9226TIP3    H227622   2.046   4.080   5.468
 9227TIP3   OH227623   0.421   2.470   0.952
 9227TIP3    H127624   0.355   2.460   0.884
 9227TIP3    H227625   0.418   2.563   0.975
 9228TIP3   OH227626   3.447   3.593   0.074
 9228TIP3    H127627   3.352   3.602   0.060
 9228TIP3    H227628   3.459   3.500   0.092
 9229TIP3   OH227629   0.973   2.632   2.659
 9229TIP3    H127630   0.901   2.679   2.700
 9229TIP3    H227631   1.039   2.699   2.642
 9230TIP3   OH227632   5.512   2.133   5.651
 9230TIP3    H127633   5.431   2.122   5.702
 9230TIP3    H227634   5.555   2.209   5.690
 9231TIP3   OH227635   7.285   2.353   5.423
 9231TIP3    H127636   7.359   2.339   5.365
 9231TIP3    H227637   7.246   2.435   5.392
 9232TIP3   OH227638   8.266   7.503   3.726
 9232TIP3    H127639   8.300   7.480   3.812
 9232TIP3    H227640   8.267   7.421   3.677
 9233TIP3   OH227641   3.407   4.534   2.644
 9233TIP3    H127642   3.380   4.515   2.734
 9233TIP3    H227643   3.495   4.498   2.637
 9234TIP3   OH227644   1.359   7.790   0.953
 9234TIP3    H127645   1.447   7.768   0.921
 9234TIP3    H227646   1.366   7.880   0.983
 9235TIP3   OH227647   7.275   3.272   2.052
 9235TIP3    H127648   7.281   3.267   1.956
 9235TIP3    H227649   7.336   3.341   2.076
 9236TIP3   OH227650   3.266   2.137   6.612
 9236TIP3    H127651   3.279   2.066   6.550
 9236TIP3    H227652   3.183   2.117   6.655
 9237TIP3   OH227653   7.646   3.406   0.212
 9237TIP3    H127654   7.574   3.346   0.230
 9237TIP3    H227655   7.724   3.362   0.246
 9238TIP3   OH227656   1.935   1.858   2.950
 9238TIP3    H127657   1.929   1.763   2.964
 9238TIP3    H227658   1.998   1.868   2.880
 9239TIP3   OH227659   0.502   5.867   0.739
 9239TIP3    H127660   0.584   5.831   0.773
 9239TIP3    H227661   0.524   5.897   0.651
 9240TIP3   OH227662   7.349   1.046   1.722
 9240TIP3    H127663   7.299   1.084   1.793
 9240TIP3    H227664   7.385   1.121   1.674
 9241TIP3   OH227665   0.198   3.879   3.669
 9241TIP3    H127666   0.246   3.929   3.603
 9241TIP3    H227667   0.106   3.901   3.655
 9242TIP3   OH227668   4.595   7.185   6.722
 9242TIP3    H127669   4.523   7.156   6.667
 9242TIP3    H227670   4.653   7.232   6.662
 9243TIP3   OH227671   2.309   5.960   5.579
 9243TIP3    H127672   2.364   6.035   5.600
 9243TIP3    H227673   2.255   5.989   5.505
 9244TIP3   OH227674   2.533   7.094   2.989
 9244TIP3    H127675   2.574   7.026   2.936
 9244TIP3    H227676   2.517   7.166   2.928
 9245TIP3   OH227677   7.848   3.000   4.247
 9245TIP3    H127678   7.763   3.038   4.270
 9245TIP3    H227679   7.866   3.034   4.159
 9246TIP3   OH227680   3.395   3.870   4.150
 9246TIP3    H127681   3.351   3.952   4.127
 9246TIP3    H227682   3.469   3.898   4.204
 9247TIP3   OH227683   2.639   6.326   6.010
 9247TIP3    H127684   2.670   6.360   5.925
 9247TIP3    H227685   2.590   6.247   5.988
 9248TIP3   OH227686   0.238   4.449   1.454
 9248TIP3    H127687   0.285   4.398   1.521
 9248TIP3    H227688   0.293   4.526   1.441
 9249TIP3   OH227689   1.708   0.035   5.449
 9249TIP3    H127690   1.713   0.085   5.368
 9249TIP3    H227691   1.623  -0.009   5.445
 9250TIP3   OH227692   5.007   2.021   5.598
 9250TIP3    H127693   4.951   1.960   5.550
 9250TIP3    H227694   4.974   2.018   5.688
 9251TIP3   OH227695   7.180   4.694   6.301
 9251TIP3    H127696   7.150   4.679   6.391
 9251TIP3    H227697   7.251   4.631   6.288
 9252TIP3   OH227698   1.701   7.222   1.289
 9252TIP3    H127699   1.752   7.297   1.260
 9252TIP3    H227700   1.749   7.146   1.258
 9253TIP3   OH227701   3.414   3.180   6.068
 9253TIP3    H127702   3.434   3.254   6.012
 9253TIP3    H227703   3.494   3.128   6.070
 9254TIP3   OH227704   3.436   7.808   2.405
 9254TIP3    H127705   3.455   7.889   2.452
 9254TIP3    H227706   3.349   7.783   2.435
 9255TIP3   OH227707   0.389   3.669   0.998
 9255TIP3    H127708   0.353   3.614   0.927
 9255TIP3    H227709   0.345   3.753   0.987
 9256TIP3   OH227710   6.005   0.381   2.309
 9256TIP3    H127711   6.073   0.333   2.262
 9256TIP3    H227712   5.984   0.455   2.252
 9257TIP3   OH227713   5.261   4.944   3.082
 9257TIP3    H127714   5.248   4.997   3.004
 9257TIP3    H227715   5.230   4.998   3.154
 9258TIP3   OH227716   2.312   1.049   1.823
 9258TIP3    H127717   2.224   1.039   1.860
 9258TIP3    H227718   2.371   1.043   1.898
 9259TIP3   OH227719   7.162   6.688   2.196
 9259TIP3    H127720   7.237   6.744   2.214
 9259TIP3    H227721   7.090   6.750   2.180
 9260TIP3   OH227722   4.410   3.345   5.594
 9260TIP3    H127723   4.404   3.428   5.546
 9260TIP3    H227724   4.486   3.301   5.555
 9261TIP3   OH227725   1.900   4.310   4.955
 9261TIP3    H127726   1.940   4.227   4.931
 9261TIP3    H227727   1.837   4.328   4.884
 9262TIP3   OH227728   2.565   1.971   0.927
 9262TIP3    H127729   2.657   1.971   0.902
 9262TIP3    H227730   2.546   1.879   0.946
 9263TIP3   OH227731   1.685   3.617   2.589
 9263TIP3    H127732   1.625   3.543   2.602
 9263TIP3    H227733   1.628   3.689   2.561
 9264TIP3   OH227734   7.793   2.854   5.657
 9264TIP3    H127735   7.752   2.940   5.647
 9264TIP3    H227736   7.835   2.858   5.743
 9265TIP3   OH227737   1.233   5.267   2.043
 9265TIP3    H127738   1.226   5.184   2.089
 9265TIP3    H227739   1.239   5.242   1.950
 9266TIP3   OH227740   3.725   5.982   6.133
 9266TIP3    H127741   3.776   5.947   6.061
 9266TIP3    H227742   3.639   5.941   6.124
 9267TIP3   OH227743   2.149   0.890   3.970
 9267TIP3    H127744   2.223   0.913   4.026
 9267TIP3    H227745   2.136   0.967   3.915
 9268TIP3   OH227746   2.563   1.390   0.624
 9268TIP3    H127747   2.620   1.427   0.691
 9268TIP3    H227748   2.594   1.299   0.614
 9269TIP3   OH227749   6.778   1.491   5.587
 9269TIP3    H127750   6.766   1.562   5.650
 9269TIP3    H227751   6.866   1.504   5.553
 9270TIP3   OH227752   4.951   2.124   3.879
 9270TIP3    H127753   4.858   2.148   3.882
 9270TIP3    H227754   4.955   2.041   3.928
 9271TIP3   OH227755   6.186   6.265   0.250
 9271TIP3    H127756   6.120   6.196   0.255
 9271TIP3    H227757   6.204   6.273   0.156
 9272TIP3   OH227758   6.888   7.225   0.977
 9272TIP3    H127759   6.935   7.143   0.990
 9272TIP3    H227760   6.796   7.200   0.968
 9273TIP3   OH227761   5.910   7.056   1.265
 9273TIP3    H127762   5.828   7.056   1.315
 9273TIP3    H227763   5.952   6.973   1.289
 9274TIP3   OH227764   0.258   5.219   4.638
 9274TIP3    H127765   0.208   5.192   4.714
 9274TIP3    H227766   0.244   5.150   4.573
 9275TIP3   OH227767   4.552   7.781   4.654
 9275TIP3    H127768   4.550   7.700   4.604
 9275TIP3    H227769   4.572   7.849   4.590
 9276TIP3   OH227770   2.539   2.217   0.467
 9276TIP3    H127771   2.570   2.280   0.531
 9276TIP3    H227772   2.542   2.133   0.512
 9277TIP3   OH227773   1.577   5.324   4.213
 9277TIP3    H127774   1.629   5.313   4.293
 9277TIP3    H227775   1.636   5.298   4.142
 9278TIP3   OH227776   5.009   3.649   2.631
 9278TIP3    H127777   5.036   3.696   2.710
 9278TIP3    H227778   4.978   3.718   2.572
 9279TIP3   OH227779   4.091   4.352   1.647
 9279TIP3    H127780   4.023   4.412   1.617
 9279TIP3    H227781   4.093   4.363   1.742
 9280TIP3   OH227782   0.376   2.542   5.705
 9280TIP3    H127783   0.372   2.543   5.801
 9280TIP3    H227784   0.441   2.474   5.685
 9281TIP3   OH227785   4.273   7.599   5.518
 9281TIP3    H127786   4.252   7.625   5.608
 9281TIP3    H227787   4.266   7.504   5.519
 9282TIP3   OH227788   0.666   0.612   4.872
 9282TIP3    H127789   0.583   0.603   4.918
 9282TIP3    H227790   0.691   0.523   4.849
 9283TIP3   OH227791   5.863   4.145   3.684
 9283TIP3    H127792   5.795   4.083   3.659
 9283TIP3    H227793   5.833   4.229   3.651
 9284TIP3   OH227794   2.389   6.555   0.562
 9284TIP3    H127795   2.393   6.471   0.607
 9284TIP3    H227796   2.475   6.594   0.575
 9285TIP3   OH227797   4.399   2.700   1.502
 9285TIP3    H127798   4.430   2.612   1.481
 9285TIP3    H227799   4.389   2.743   1.417
 9286TIP3   OH227800   7.434   6.711   1.329
 9286TIP3    H127801   7.404   6.708   1.420
 9286TIP3    H227802   7.424   6.802   1.302
 9287TIP3   OH227803   4.906   2.063   3.172
 9287TIP3    H127804   4.866   2.143   3.208
 9287TIP3    H227805   4.923   2.084   3.080
 9288TIP3   OH227806   4.325   3.485   0.181
 9288TIP3    H127807   4.239   3.522   0.163
 9288TIP3    H227808   4.381   3.519   0.111
 9289TIP3   OH227809   2.713   2.921   0.385
 9289TIP3    H127810   2.662   2.915   0.466
 9289TIP3    H227811   2.682   3.002   0.344
 9290TIP3   OH227812   7.558   6.291   5.742
 9290TIP3    H127813   7.534   6.287   5.835
 9290TIP3    H227814   7.647   6.257   5.739
 9291TIP3   OH227815   4.843   5.847   0.644
 9291TIP3    H127816   4.823   5.848   0.550
 9291TIP3    H227817   4.768   5.802   0.683
 9292TIP3   OH227818   8.215   0.559   2.997
 9292TIP3    H127819   8.206   0.464   2.991
 9292TIP3    H227820   8.138   0.587   3.047
 9293TIP3   OH227821   5.915   0.720   2.899
 9293TIP3    H127822   5.906   0.624   2.900
 9293TIP3    H227823   5.864   0.748   2.824
 9294TIP3   OH227824   3.819   1.890   0.374
 9294TIP3    H127825   3.861   1.808   0.402
 9294TIP3    H227826   3.865   1.958   0.424
 9295TIP3   OH227827   3.033   0.628   3.399
 9295TIP3    H127828   2.979   0.580   3.461
 9295TIP3    H227829   2.972   0.684   3.351
 9296TIP3   OH227830   7.438   2.281   0.160
 9296TIP3    H127831   7.360   2.300   0.213
 9296TIP3    H227832   7.459   2.364   0.118
 9297TIP3   OH227833   6.478   5.629   2.338
 9297TIP3    H127834   6.392   5.669   2.320
 9297TIP3    H227835   6.466   5.586   2.423
 9298TIP3   OH227836   8.289   0.411   6.529
 9298TIP3    H127837   8.313   0.466   6.604
 9298TIP3    H227838   8.266   0.473   6.461
 9299TIP3   OH227839   2.668   1.312   5.853
 9299TIP3    H127840   2.575   1.306   5.875
 9299TIP3    H227841   2.695   1.398   5.887
 9300TIP3   OH227842   0.072   5.466   6.272
 9300TIP3    H127843   0.152   5.519   6.273
 9300TIP3    H227844   0.016   5.509   6.207
 9301TIP3   OH227845   7.762   0.629   4.618
 9301TIP3    H127846   7.691   0.692   4.604
 9301TIP3    H227847   7.819   0.641   4.542
 9302TIP3   OH227848   2.203   7.087   0.509
 9302TIP3    H127849   2.124   7.133   0.537
 9302TIP3    H227850   2.274   7.132   0.554
 9303TIP3   OH227851   5.519   1.767   4.299
 9303TIP3    H127852   5.586   1.835   4.306
 9303TIP3    H227853   5.456   1.788   4.368
 9304TIP3   OH227854   6.922   5.470   0.629
 9304TIP3    H127855   6.831   5.496   0.617
 9304TIP3    H227856   6.944   5.423   0.549
 9305TIP3   OH227857   2.425   7.327   4.992
 9305TIP3    H127858   2.360   7.314   5.061
 9305TIP3    H227859   2.399   7.266   4.923
 9306TIP3   OH227860   0.701   6.747   0.881
 9306TIP3    H127861   0.698   6.747   0.977
 9306TIP3    H227862   0.757   6.822   0.859
 9307TIP3   OH227863   8.063   7.805   3.047
 9307TIP3    H127864   8.141   7.859   3.056
 9307TIP3    H227865   8.090   7.730   2.995
 9308TIP3   OH227866   1.836   6.977   4.813
 9308TIP3    H127867   1.888   6.980   4.893
 9308TIP3    H227868   1.875   7.043   4.756
 9309TIP3   OH227869   2.795   3.502   3.541
 9309TIP3    H127870   2.854   3.427   3.536
 9309TIP3    H227871   2.794   3.526   3.633
 9310TIP3   OH227872   5.333   0.186   4.497
 9310TIP3    H127873   5.332   0.268   4.546
 9310TIP3    H227874   5.369   0.122   4.558
 9311TIP3   OH227875   6.701   4.893   4.734
 9311TIP3    H127876   6.662   4.919   4.651
 9311TIP3    H227877   6.653   4.943   4.800
 9312TIP3   OH227878   0.948   1.658   5.486
 9312TIP3    H127879   1.035   1.681   5.519
 9312TIP3    H227880   0.958   1.571   5.448
 9313TIP3   OH227881   4.543   2.053   0.011
 9313TIP3    H127882   4.506   2.126   0.060
 9313TIP3    H227883   4.485   1.979   0.030
 9314TIP3   OH227884   8.052   0.506   0.941
 9314TIP3    H127885   8.128   0.466   0.984
 9314TIP3    H227886   7.981   0.498   1.004
 9315TIP3   OH227887   7.755   1.066   4.344
 9315TIP3    H127888   7.830   1.080   4.402
 9315TIP3    H227889   7.678   1.085   4.399
 9316TIP3   OH227890   1.339   2.409   5.300
 9316TIP3    H127891   1.332   2.503   5.284
 9316TIP3    H227892   1.254   2.385   5.337
 9317TIP3   OH227893   4.854   4.333   5.444
 9317TIP3    H127894   4.817   4.382   5.371
 9317TIP3    H227895   4.802   4.360   5.520
 9318TIP3   OH227896   7.025   6.061   3.384
 9318TIP3    H127897   7.009   6.000   3.312
 9318TIP3    H227898   7.040   6.005   3.460
 9319TIP3   OH227899   7.068   4.559   4.578
 9319TIP3    H127900   7.013   4.619   4.528
 9319TIP3    H227901   7.037   4.568   4.669
 9320TIP3   OH227902   7.936   1.569   3.016
 9320TIP3    H127903   7.946   1.488   3.065
 9320TIP3    H227904   8.026   1.597   2.997
 9321TIP3   OH227905   1.575   7.578   0.158
 9321TIP3    H127906   1.495   7.562   0.208
 9321TIP3    H227907   1.555   7.654   0.103
 9322TIP3   OH227908   5.368   1.092   5.640
 9322TIP3    H127909   5.395   1.010   5.600
 9322TIP3    H227910   5.437   1.112   5.704
 9323TIP3   OH227911   7.072   7.390   3.449
 9323TIP3    H127912   6.985   7.393   3.489
 9323TIP3    H227913   7.055   7.379   3.355
 9324TIP3   OH227914   6.710   6.644   5.625
 9324TIP3    H127915   6.746   6.557   5.644
 9324TIP3    H227916   6.676   6.637   5.536
 9325TIP3   OH227917   4.976   1.130   4.095
 9325TIP3    H127918   5.057   1.119   4.046
 9325TIP3    H227919   5.004   1.171   4.177
 9326TIP3   OH227920   6.570   3.094   6.002
 9326TIP3    H127921   6.519   3.172   6.022
 9326TIP3    H227922   6.511   3.020   6.020
 9327TIP3   OH227923   3.584   1.384   2.050
 9327TIP3    H127924   3.579   1.363   2.144
 9327TIP3    H227925   3.503   1.433   2.033
 9328TIP3   OH227926   2.904   7.347   5.508
 9328TIP3    H127927   2.940   7.435   5.518
 9328TIP3    H227928   2.837   7.356   5.440
 9329TIP3   OH227929   0.594   1.261   3.420
 9329TIP3    H127930   0.547   1.196   3.368
 9329TIP3    H227931   0.609   1.218   3.504
 9330TIP3   OH227932   2.210   1.190   1.369
 9330TIP3    H127933   2.163   1.136   1.306
 9330TIP3    H227934   2.151   1.262   1.388
 9331TIP3   OH227935   4.413   0.123   5.371
 9331TIP3    H127936   4.408   0.102   5.278
 9331TIP3    H227937   4.414   0.038   5.415
 9332TIP3   OH227938   4.121   2.007   3.384
 9332TIP3    H127939   4.080   1.952   3.451
 9332TIP3    H227940   4.201   2.039   3.426
 9333TIP3   OH227941   4.058   7.628   0.311
 9333TIP3    H127942   4.023   7.633   0.222
 9333TIP3    H227943   4.104   7.544   0.315
 9334TIP3   OH227944   6.589   1.122   0.675
 9334TIP3    H127945   6.531   1.179   0.724
 9334TIP3    H227946   6.677   1.158   0.690
 9335TIP3   OH227947   3.611   1.490   5.537
 9335TIP3    H127948   3.642   1.579   5.524
 9335TIP3    H227949   3.684   1.444   5.578
 9336TIP3   OH227950   8.013   6.425   3.416
 9336TIP3    H127951   7.965   6.422   3.334
 9336TIP3    H227952   8.050   6.513   3.419
 9337TIP3   OH227953   8.117   6.452   0.577
 9337TIP3    H127954   8.027   6.442   0.609
 9337TIP3    H227955   8.144   6.363   0.555
 9338TIP3   OH227956   0.175   5.027   5.391
 9338TIP3    H127957   0.207   4.954   5.445
 9338TIP3    H227958   0.253   5.080   5.374
 9339TIP3   OH227959   7.993   4.312   0.151
 9339TIP3    H127960   7.989   4.402   0.118
 9339TIP3    H227961   7.999   4.321   0.246
 9340TIP3   OH227962   2.921   7.647   5.498
 9340TIP3    H127963   2.893   7.669   5.587
 9340TIP3    H227964   2.894   7.721   5.445
 9341TIP3   OH227965   4.802   0.921   3.891
 9341TIP3    H127966   4.843   0.837   3.870
 9341TIP3    H227967   4.876   0.981   3.901
 9342TIP3   OH227968   7.437   0.050   3.411
 9342TIP3    H127969   7.529   0.030   3.429
 9342TIP3    H227970   7.423   0.016   3.322
 9343TIP3   OH227971   8.072   6.332   3.674
 9343TIP3    H127972   8.076   6.350   3.581
 9343TIP3    H227973   7.984   6.296   3.688
 9344TIP3   OH227974   0.661   7.678   0.412
 9344TIP3    H127975   0.676   7.763   0.372
 9344TIP3    H227976   0.703   7.684   0.498
 9345TIP3   OH227977   2.993   3.064   6.224
 9345TIP3    H127978   3.024   3.032   6.140
 9345TIP3    H227979   2.924   3.127   6.203
 9346TIP3   OH227980   5.563   0.130   5.084
 9346TIP3    H127981   5.598   0.158   5.168
 9346TIP3    H227982   5.624   0.167   5.019
 9347TIP3   OH227983   0.471   1.490   3.675
 9347TIP3    H127984   0.538   1.558   3.683
 9347TIP3    H227985   0.418   1.499   3.755
 9348TIP3   OH227986   8.107   7.812   2.078
 9348TIP3    H127987   8.097   7.809   2.174
 9348TIP3    H227988   8.040   7.874   2.050
 9349TIP3   OH227989   0.969   2.379   0.389
 9349TIP3    H127990   1.034   2.449   0.394
 9349TIP3    H227991   0.892   2.415   0.433
 9350TIP3   OH227992   6.816   5.898   2.101
 9350TIP3    H127993   6.891   5.947   2.068
 9350TIP3    H227994   6.842   5.807   2.097
 9351TIP3   OH227995   0.865   7.777   4.944
 9351TIP3    H127996   0.870   7.732   4.859
 9351TIP3    H227997   0.876   7.870   4.923
 9352TIP3   OH227998   6.034   0.292   3.403
 9352TIP3    H127999   6.047   0.319   3.494
 9352TIP3    H228000   6.096   0.220   3.391
 9353TIP3   OH228001   7.101   5.683   0.547
 9353TIP3    H128002   7.137   5.668   0.460
 9353TIP3    H228003   7.047   5.606   0.565
 9354TIP3   OH228004   1.669   7.588   5.721
 9354TIP3    H128005   1.676   7.519   5.786
 9354TIP3    H228006   1.759   7.619   5.710
 9355TIP3   OH228007   7.483   7.733   3.760
 9355TIP3    H128008   7.449   7.658   3.808
 9355TIP3    H228009   7.427   7.806   3.787
 9356TIP3   OH228010   1.488   3.122   0.481
 9356TIP3    H128011   1.483   3.158   0.392
 9356TIP3    H228012   1.582   3.111   0.497
 9357TIP3   OH228013   3.326   4.733   1.646
 9357TIP3    H128014   3.250   4.753   1.701
 9357TIP3    H228015   3.401   4.762   1.698
 9358TIP3   OH228016   8.241   4.606   3.480
 9358TIP3    H128017   8.331   4.589   3.508
 9358TIP3    H228018   8.189   4.537   3.521
 9359TIP3   OH228019   7.904   4.880   0.180
 9359TIP3    H128020   7.971   4.850   0.241
 9359TIP3    H228021   7.831   4.819   0.193
 9360TIP3   OH228022   5.038   3.364   2.051
 9360TIP3    H128023   5.110   3.301   2.055
 9360TIP3    H228024   5.069   3.439   2.103
 9361TIP3   OH228025   8.153   3.943   5.388
 9361TIP3    H128026   8.162   3.848   5.385
 9361TIP3    H228027   8.167   3.966   5.480
 9362TIP3   OH228028   7.345   4.482   1.442
 9362TIP3    H128029   7.275   4.531   1.485
 9362TIP3    H228030   7.338   4.394   1.479
 9363TIP3   OH228031   2.591   2.923   4.210
 9363TIP3    H128032   2.567   2.954   4.297
 9363TIP3    H228033   2.511   2.883   4.176
 9364TIP3   OH228034   2.645   4.345   3.721
 9364TIP3    H128035   2.574   4.281   3.720
 9364TIP3    H228036   2.670   4.355   3.629
 9365TIP3   OH228037   3.817   4.420   1.045
 9365TIP3    H128038   3.899   4.403   0.999
 9365TIP3    H228039   3.798   4.512   1.028
 9366TIP3   OH228040   2.581   5.818   0.057
 9366TIP3    H128041   2.662   5.838   0.103
 9366TIP3    H228042   2.545   5.903   0.033
 9367TIP3   OH228043   6.455   4.214   3.443
 9367TIP3    H128044   6.465   4.242   3.353
 9367TIP3    H228045   6.373   4.255   3.472
 9368TIP3   OH228046   3.819   0.450   1.804
 9368TIP3    H128047   3.807   0.541   1.778
 9368TIP3    H228048   3.742   0.431   1.859
 9369TIP3   OH228049   4.813   6.900   1.802
 9369TIP3    H128050   4.802   6.867   1.891
 9369TIP3    H228051   4.816   6.822   1.747
 9370TIP3   OH228052   2.523   6.860   6.191
 9370TIP3    H128053   2.537   6.946   6.150
 9370TIP3    H228054   2.484   6.807   6.122
 9371TIP3   OH228055   4.983   0.347   5.445
 9371TIP3    H128056   5.042   0.284   5.405
 9371TIP3    H228057   4.909   0.351   5.384
 9372TIP3   OH228058   1.132   2.528   4.318
 9372TIP3    H128059   1.113   2.435   4.334
 9372TIP3    H228060   1.218   2.541   4.359
 9373TIP3   OH228061   1.271   3.525   2.015
 9373TIP3    H128062   1.348   3.470   2.030
 9373TIP3    H228063   1.201   3.462   1.998
 9374TIP3   OH228064   2.000   4.147   5.996
 9374TIP3    H128065   2.087   4.114   6.017
 9374TIP3    H228066   1.942   4.108   6.061
 9375TIP3   OH228067   4.064   6.117   3.400
 9375TIP3    H128068   3.998   6.155   3.457
 9375TIP3    H228069   4.047   6.155   3.314
 9376TIP3   OH228070   4.301   6.073   4.397
 9376TIP3    H128071   4.272   6.102   4.483
 9376TIP3    H228072   4.221   6.066   4.346
 9377TIP3   OH228073   2.441   5.973   2.072
 9377TIP3    H128074   2.505   5.922   2.023
 9377TIP3    H228075   2.478   5.979   2.160
 9378TIP3   OH228076   3.215   3.407   2.867
 9378TIP3    H128077   3.293   3.421   2.920
 9378TIP3    H228078   3.238   3.334   2.810
 9379TIP3   OH228079   5.666   4.303   2.240
 9379TIP3    H128080   5.640   4.242   2.309
 9379TIP3    H228081   5.728   4.362   2.283
 9380TIP3   OH228082   2.359   5.039   3.786
 9380TIP3    H128083   2.343   5.036   3.692
 9380TIP3    H228084   2.432   4.979   3.800
 9381TIP3   OH228085   0.400   2.839   2.998
 9381TIP3    H128086   0.486   2.805   3.022
 9381TIP3    H228087   0.418   2.904   2.930
 9382TIP3   OH228088   6.955   4.667   5.990
 9382TIP3    H128089   6.976   4.574   5.986
 9382TIP3    H228090   6.918   4.687   5.904
 9383TIP3   OH228091   3.552   0.560   2.426
 9383TIP3    H128092   3.602   0.625   2.376
 9383TIP3    H228093   3.464   0.599   2.434
 9384TIP3   OH228094   1.127   4.682   5.370
 9384TIP3    H128095   1.074   4.602   5.375
 9384TIP3    H228096   1.216   4.652   5.390
 9385TIP3   OH228097   6.315   0.143   6.182
 9385TIP3    H128098   6.354   0.190   6.255
 9385TIP3    H228099   6.233   0.108   6.217
 9386TIP3   OH228100   3.670   7.698   4.870
 9386TIP3    H128101   3.725   7.742   4.805
 9386TIP3    H228102   3.641   7.767   4.929
 9387TIP3   OH228103   2.636   2.445   2.777
 9387TIP3    H128104   2.636   2.459   2.872
 9387TIP3    H228105   2.727   2.424   2.756
 9388TIP3   OH228106   6.191   0.359   0.221
 9388TIP3    H128107   6.156   0.423   0.160
 9388TIP3    H228108   6.266   0.402   0.261
 9389TIP3   OH228109   0.553   3.174   0.572
 9389TIP3    H128110   0.522   3.230   0.644
 9389TIP3    H228111   0.617   3.116   0.614
 9390TIP3   OH228112   2.770   1.766   3.481
 9390TIP3    H128113   2.800   1.823   3.552
 9390TIP3    H228114   2.786   1.817   3.402
 9391TIP3   OH228115   1.816   2.469   2.620
 9391TIP3    H128116   1.739   2.426   2.656
 9391TIP3    H228117   1.846   2.527   2.690
 9392TIP3   OH228118   6.342   0.734   5.492
 9392TIP3    H128119   6.404   0.798   5.458
 9392TIP3    H228120   6.269   0.736   5.430
 9393TIP3   OH228121   6.397   7.651   6.317
 9393TIP3    H128122   6.424   7.667   6.226
 9393TIP3    H228123   6.348   7.729   6.341
 9394TIP3   OH228124   2.219   4.358   4.990
 9394TIP3    H128125   2.190   4.309   5.066
 9394TIP3    H228126   2.184   4.310   4.915
 9395TIP3   OH228127   7.800   5.990   4.028
 9395TIP3    H128128   7.711   6.000   4.059
 9395TIP3    H228129   7.800   5.907   3.980
 9396TIP3   OH228130   6.650   2.573   1.232
 9396TIP3    H128131   6.664   2.649   1.175
 9396TIP3    H228132   6.705   2.590   1.309
 9397TIP3   OH228133   3.625   4.227   2.798
 9397TIP3    H128134   3.637   4.145   2.751
 9397TIP3    H228135   3.530   4.236   2.807
 9398TIP3   OH228136   2.380   4.373   0.584
 9398TIP3    H128137   2.300   4.423   0.592
 9398TIP3    H228138   2.395   4.366   0.489
 9399TIP3   OH228139   5.241   1.964   3.501
 9399TIP3    H128140   5.231   1.991   3.410
 9399TIP3    H228141   5.154   1.975   3.539
 9400TIP3   OH228142   2.318   7.285   0.194
 9400TIP3    H128143   2.365   7.203   0.178
 9400TIP3    H228144   2.278   7.307   0.109
 9401TIP3   OH228145   5.323   0.867   4.242
 9401TIP3    H128146   5.355   0.935   4.183
 9401TIP3    H228147   5.399   0.811   4.258
 9402TIP3   OH228148   3.419   0.628   4.379
 9402TIP3    H128149   3.406   0.579   4.460
 9402TIP3    H228150   3.443   0.561   4.314
 9403TIP3   OH228151   4.094   4.154   1.456
 9403TIP3    H128152   4.103   4.217   1.528
 9403TIP3    H228153   4.053   4.204   1.385
 9404TIP3   OH228154   4.039   0.946   3.719
 9404TIP3    H128155   4.031   0.999   3.640
 9404TIP3    H228156   3.977   0.984   3.781
 9405TIP3   OH228157   5.674   3.461   6.431
 9405TIP3    H128158   5.716   3.412   6.502
 9405TIP3    H228159   5.581   3.462   6.455
 9406TIP3   OH228160   4.564   5.707   5.470
 9406TIP3    H128161   4.647   5.667   5.495
 9406TIP3    H228162   4.528   5.742   5.551
 9407TIP3   OH228163   1.764   1.171   2.003
 9407TIP3    H128164   1.705   1.239   2.033
 9407TIP3    H228165   1.741   1.094   2.056
 9408TIP3   OH228166   3.028   5.929   1.908
 9408TIP3    H128167   2.964   5.877   1.861
 9408TIP3    H228168   2.988   6.016   1.915
 9409TIP3   OH228169   1.889   4.799   4.940
 9409TIP3    H128170   1.925   4.710   4.949
 9409TIP3    H228171   1.950   4.843   4.881
 9410TIP3   OH228172   4.381   6.069   4.071
 9410TIP3    H128173   4.298   6.097   4.110
 9410TIP3    H228174   4.423   6.150   4.041
 9411TIP3   OH228175   4.431   0.007   6.474
 9411TIP3    H128176   4.395  -0.025   6.557
 9411TIP3    H228177   4.431  -0.070   6.417
 9412TIP3   OH228178   5.961   1.246   6.233
 9412TIP3    H128179   6.011   1.318   6.196
 9412TIP3    H228180   5.882   1.240   6.179
 9413TIP3   OH228181   0.878   4.827   0.209
 9413TIP3    H128182   0.954   4.840   0.264
 9413TIP3    H228183   0.850   4.915   0.185
 9414TIP3   OH228184   2.129   1.514   5.509
 9414TIP3    H128185   2.148   1.555   5.593
 9414TIP3    H228186   2.076   1.578   5.462
 9415TIP3   OH228187   7.597   0.416   0.986
 9415TIP3    H128188   7.587   0.511   0.976
 9415TIP3    H228189   7.510   0.385   1.010
 9416TIP3   OH228190   3.928   7.058   6.404
 9416TIP3    H128191   3.857   7.113   6.371
 9416TIP3    H228192   3.955   7.006   6.329
 9417TIP3   OH228193   1.706   1.124   3.380
 9417TIP3    H128194   1.649   1.170   3.442
 9417TIP3    H228195   1.653   1.050   3.350
 9418TIP3   OH228196   0.697   6.301   3.772
 9418TIP3    H128197   0.654   6.315   3.856
 9418TIP3    H228198   0.698   6.206   3.761
 9419TIP3   OH228199   2.516   3.356   0.765
 9419TIP3    H128200   2.478   3.429   0.717
 9419TIP3    H228201   2.588   3.394   0.815
 9420TIP3   OH228202   5.804   0.940   2.367
 9420TIP3    H128203   5.731   0.911   2.313
 9420TIP3    H228204   5.855   0.997   2.310
 9421TIP3   OH228205   5.699   1.416   5.893
 9421TIP3    H128206   5.631   1.480   5.872
 9421TIP3    H228207   5.779   1.454   5.856
 9422TIP3   OH228208   0.730   1.498   0.776
 9422TIP3    H128209   0.794   1.429   0.762
 9422TIP3    H228210   0.647   1.452   0.789
 9423TIP3   OH228211   5.046   4.721   2.937
 9423TIP3    H128212   4.964   4.769   2.950
 9423TIP3    H228213   5.091   4.728   3.021
 9424TIP3   OH228214   2.769   4.969   2.601
 9424TIP3    H128215   2.679   4.990   2.577
 9424TIP3    H228216   2.815   5.053   2.598
 9425TIP3   OH228217   1.918   1.028   1.523
 9425TIP3    H128218   1.863   0.950   1.532
 9425TIP3    H228219   1.969   1.013   1.443
 9426TIP3   OH228220   7.773   7.488   4.145
 9426TIP3    H128221   7.838   7.421   4.125
 9426TIP3    H228222   7.712   7.485   4.072
 9427TIP3   OH228223   8.257   3.233   1.669
 9427TIP3    H128224   8.200   3.159   1.649
 9427TIP3    H228225   8.202   3.291   1.722
 9428TIP3   OH228226   0.227   4.050   3.111
 9428TIP3    H128227   0.313   4.092   3.112
 9428TIP3    H228228   0.240   3.969   3.062
 9429TIP3   OH228229   4.487   6.486   0.587
 9429TIP3    H128230   4.420   6.510   0.651
 9429TIP3    H228231   4.451   6.514   0.503
 9430TIP3   OH228232   8.219   6.978   0.350
 9430TIP3    H128233   8.124   6.988   0.339
 9430TIP3    H228234   8.237   7.013   0.437
 9431TIP3   OH228235   1.463   2.111   0.801
 9431TIP3    H128236   1.411   2.041   0.762
 9431TIP3    H228237   1.533   2.066   0.849
 9432TIP3   OH228238   0.276   1.891   0.659
 9432TIP3    H128239   0.201   1.844   0.623
 9432TIP3    H228240   0.327   1.824   0.706
 9433TIP3   OH228241   4.197   5.373   6.389
 9433TIP3    H128242   4.243   5.396   6.308
 9433TIP3    H228243   4.104   5.387   6.369
 9434TIP3   OH228244   6.132   4.589   6.371
 9434TIP3    H128245   6.222   4.615   6.354
 9434TIP3    H228246   6.139   4.498   6.401
 9435TIP3   OH228247   4.026   3.400   0.307
 9435TIP3    H128248   4.052   3.487   0.278
 9435TIP3    H228249   4.026   3.405   0.402
 9436TIP3   OH228250   2.197   4.737   0.620
 9436TIP3    H128251   2.246   4.768   0.696
 9436TIP3    H228252   2.202   4.642   0.625
 9437TIP3   OH228253   3.765   1.979   1.922
 9437TIP3    H128254   3.762   1.988   2.017
 9437TIP3    H228255   3.717   1.898   1.903
 9438TIP3   OH228256   4.365   0.436   6.332
 9438TIP3    H128257   4.382   0.492   6.256
 9438TIP3    H228258   4.273   0.454   6.354
 9439TIP3   OH228259   4.986   3.397   2.449
 9439TIP3    H128260   4.971   3.450   2.370
 9439TIP3    H228261   4.979   3.460   2.521
 9440TIP3   OH228262   0.432   2.551   4.640
 9440TIP3    H128263   0.443   2.628   4.585
 9440TIP3    H228264   0.427   2.478   4.578
 9441TIP3   OH228265   4.954   0.161   1.403
 9441TIP3    H128266   4.911   0.242   1.430
 9441TIP3    H228267   4.975   0.174   1.311
 9442TIP3   OH228268   1.892   6.591   5.413
 9442TIP3    H128269   1.832   6.644   5.362
 9442TIP3    H228270   1.842   6.512   5.435
 9443TIP3   OH228271   3.328   0.451   3.922
 9443TIP3    H128272   3.275   0.504   3.863
 9443TIP3    H228273   3.418   0.473   3.900
 9444TIP3   OH228274   2.197   1.230   5.596
 9444TIP3    H128275   2.185   1.323   5.576
 9444TIP3    H228276   2.286   1.224   5.628
 9445TIP3   OH228277   3.643   3.922   4.229
 9445TIP3    H128278   3.726   3.970   4.228
 9445TIP3    H228279   3.655   3.854   4.296
 9446TIP3   OH228280   3.739   6.316   4.572
 9446TIP3    H128281   3.711   6.397   4.530
 9446TIP3    H228282   3.722   6.248   4.507
 9447TIP3   OH228283   7.629   6.157   6.057
 9447TIP3    H128284   7.679   6.166   6.138
 9447TIP3    H228285   7.695   6.163   5.988
 9448TIP3   OH228286   3.136   1.704   4.557
 9448TIP3    H128287   3.196   1.764   4.602
 9448TIP3    H228288   3.192   1.653   4.499
 9449TIP3   OH228289   2.861   4.858   0.018
 9449TIP3    H128290   2.933   4.800   0.039
 9449TIP3    H228291   2.884   4.895  -0.068
 9450TIP3   OH228292   1.015   1.072   2.644
 9450TIP3    H128293   0.982   1.099   2.730
 9450TIP3    H228294   0.997   0.978   2.640
 9451TIP3   OH228295   1.982   4.856   2.239
 9451TIP3    H128296   2.040   4.784   2.265
 9451TIP3    H228297   1.952   4.831   2.152
 9452TIP3   OH228298   1.632   6.113   0.373
 9452TIP3    H128299   1.683   6.140   0.449
 9452TIP3    H228300   1.557   6.066   0.410
 9453TIP3   OH228301   5.617   3.638   3.026
 9453TIP3    H128302   5.624   3.714   3.083
 9453TIP3    H228303   5.645   3.669   2.940
 9454TIP3   OH228304   5.482   1.071   4.012
 9454TIP3    H128305   5.527   0.992   3.983
 9454TIP3    H228306   5.504   1.080   4.104
 9455TIP3   OH228307   1.071   1.801   2.052
 9455TIP3    H128308   1.089   1.831   1.963
 9455TIP3    H228309   1.059   1.706   2.043
 9456TIP3   OH228310   7.319   4.263   6.228
 9456TIP3    H128311   7.400   4.312   6.243
 9456TIP3    H228312   7.321   4.243   6.134
 9457TIP3   OH228313   2.468   5.133   4.510
 9457TIP3    H128314   2.490   5.215   4.554
 9457TIP3    H228315   2.501   5.065   4.568
 9458TIP3   OH228316   3.126   6.244   2.077
 9458TIP3    H128317   3.218   6.232   2.099
 9458TIP3    H228318   3.078   6.206   2.151
 9459TIP3   OH228319   3.973   2.474   2.279
 9459TIP3    H128320   3.903   2.490   2.343
 9459TIP3    H228321   3.981   2.557   2.232
 9460TIP3   OH228322   1.126   5.905   3.282
 9460TIP3    H128323   1.115   5.812   3.264
 9460TIP3    H228324   1.199   5.910   3.344
 9461TIP3   OH228325   6.852   3.943   2.467
 9461TIP3    H128326   6.771   3.991   2.484
 9461TIP3    H228327   6.842   3.861   2.515
 9462TIP3   OH228328   5.027   1.942   4.689
 9462TIP3    H128329   4.994   1.936   4.599
 9462TIP3    H228330   4.976   2.012   4.729
 9463TIP3   OH228331   3.079   1.170   2.172
 9463TIP3    H128332   3.080   1.264   2.153
 9463TIP3    H228333   2.997   1.156   2.219
 9464TIP3   OH228334   3.081   2.896   6.678
 9464TIP3    H128335   3.173   2.909   6.654
 9464TIP3    H228336   3.056   2.814   6.634
 9465TIP3   OH228337   2.339   2.057   1.267
 9465TIP3    H128338   2.345   1.978   1.320
 9465TIP3    H228339   2.295   2.028   1.187
 9466TIP3   OH228340   7.855   4.275   1.466
 9466TIP3    H128341   7.893   4.363   1.467
 9466TIP3    H228342   7.776   4.284   1.413
 9467TIP3   OH228343   8.223   4.909   0.681
 9467TIP3    H128344   8.313   4.881   0.700
 9467TIP3    H228345   8.221   5.001   0.709
 9468TIP3   OH228346   5.005   6.361   3.398
 9468TIP3    H128347   5.015   6.281   3.347
 9468TIP3    H228348   4.915   6.357   3.432
 9469TIP3   OH228349   1.101   1.240   1.597
 9469TIP3    H128350   1.060   1.243   1.511
 9469TIP3    H228351   1.191   1.212   1.580
 9470TIP3   OH228352   6.497   0.044   1.649
 9470TIP3    H128353   6.417   0.097   1.641
 9470TIP3    H228354   6.517   0.045   1.742
 9471TIP3   OH228355   1.360   3.809   0.041
 9471TIP3    H128356   1.433   3.857   0.002
 9471TIP3    H228357   1.287   3.871   0.041
 9472TIP3   OH228358   3.680   4.972   3.393
 9472TIP3    H128359   3.722   5.057   3.398
 9472TIP3    H228360   3.703   4.939   3.306
 9473TIP3   OH228361   0.937   7.213   4.346
 9473TIP3    H128362   0.991   7.203   4.267
 9473TIP3    H228363   0.982   7.163   4.413
 9474TIP3   OH228364   7.953   3.816   2.122
 9474TIP3    H128365   7.952   3.823   2.027
 9474TIP3    H228366   7.976   3.725   2.140
 9475TIP3   OH228367   0.634   4.642   2.251
 9475TIP3    H128368   0.675   4.711   2.199
 9475TIP3    H228369   0.540   4.661   2.247
 9476TIP3   OH228370   0.158   6.855   6.555
 9476TIP3    H128371   0.116   6.775   6.584
 9476TIP3    H228372   0.121   6.924   6.610
 9477TIP3   OH228373   3.349   0.328   5.216
 9477TIP3    H128374   3.370   0.370   5.299
 9477TIP3    H228375   3.272   0.375   5.183
 9478TIP3   OH228376   4.734   3.183   0.415
 9478TIP3    H128377   4.695   3.102   0.448
 9478TIP3    H228378   4.660   3.243   0.408
 9479TIP3   OH228379   1.686   4.998   4.727
 9479TIP3    H128380   1.637   4.924   4.692
 9479TIP3    H228381   1.778   4.973   4.719
 9480TIP3   OH228382   7.782   3.632   3.303
 9480TIP3    H128383   7.838   3.556   3.314
 9480TIP3    H228384   7.823   3.683   3.233
 9481TIP3   OH228385   7.812   2.932   1.049
 9481TIP3    H128386   7.859   2.850   1.065
 9481TIP3    H228387   7.856   2.996   1.106
 9482TIP3   OH228388   4.014   6.822   4.938
 9482TIP3    H128389   4.059   6.782   5.013
 9482TIP3    H228390   3.924   6.834   4.968
 9483TIP3   OH228391   3.164   4.919   0.620
 9483TIP3    H128392   3.115   4.913   0.538
 9483TIP3    H228393   3.234   4.855   0.612
 9484TIP3   OH228394   0.205   5.039   4.825
 9484TIP3    H128395   0.224   4.946   4.831
 9484TIP3    H228396   0.110   5.045   4.834
 9485TIP3   OH228397   1.458   0.013   2.231
 9485TIP3    H128398   1.388   0.047   2.287
 9485TIP3    H228399   1.430   0.035   2.142
 9486TIP3   OH228400   2.007   5.360   3.601
 9486TIP3    H128401   2.067   5.397   3.536
 9486TIP3    H228402   2.055   5.368   3.684
 9487TIP3   OH228403   6.259   7.027   0.051
 9487TIP3    H128404   6.234   7.101   0.106
 9487TIP3    H228405   6.246   6.950   0.107
 9488TIP3   OH228406   7.716   4.396   6.741
 9488TIP3    H128407   7.680   4.327   6.795
 9488TIP3    H228408   7.705   4.476   6.792
 9489TIP3   OH228409   4.645   3.122   4.430
 9489TIP3    H128410   4.730   3.097   4.394
 9489TIP3    H228411   4.585   3.054   4.399
 9490TIP3   OH228412   7.602   0.644   6.478
 9490TIP3    H128413   7.630   0.646   6.387
 9490TIP3    H228414   7.507   0.633   6.474
 9491TIP3   OH228415   1.668   5.505   2.010
 9491TIP3    H128416   1.652   5.447   2.085
 9491TIP3    H228417   1.646   5.452   1.934
 9492TIP3   OH228418   1.113   4.412   2.220
 9492TIP3    H128419   1.026   4.424   2.182
 9492TIP3    H228420   1.154   4.498   2.215
 9493TIP3   OH228421   3.395   7.533   0.257
 9493TIP3    H128422   3.392   7.538   0.353
 9493TIP3    H228423   3.382   7.440   0.237
 9494TIP3   OH228424   0.808   3.508   1.240
 9494TIP3    H128425   0.729   3.533   1.288
 9494TIP3    H228426   0.880   3.537   1.296
 9495TIP3   OH228427   5.673   5.052   2.514
 9495TIP3    H128428   5.647   5.123   2.573
 9495TIP3    H228429   5.622   5.067   2.435
 9496TIP3   OH228430   3.741   6.893   0.681
 9496TIP3    H128431   3.776   6.814   0.639
 9496TIP3    H228432   3.651   6.869   0.704
 9497TIP3   OH228433   4.807   7.318   0.333
 9497TIP3    H128434   4.893   7.355   0.310
 9497TIP3    H228435   4.792   7.250   0.267
 9498TIP3   OH228436   1.544   0.638   3.223
 9498TIP3    H128437   1.507   0.600   3.143
 9498TIP3    H228438   1.529   0.571   3.290
 9499TIP3   OH228439   4.739   5.404   2.253
 9499TIP3    H128440   4.739   5.498   2.266
 9499TIP3    H228441   4.818   5.373   2.299
 9500TIP3   OH228442   0.712   2.849   1.033
 9500TIP3    H128443   0.762   2.879   1.108
 9500TIP3    H228444   0.631   2.901   1.036
 9501TIP3   OH228445   2.213   6.979   4.788
 9501TIP3    H128446   2.210   7.075   4.795
 9501TIP3    H228447   2.270   6.963   4.713
 9502TIP3   OH228448   6.944   3.832   3.830
 9502TIP3    H128449   6.858   3.861   3.860
 9502TIP3    H228450   6.955   3.745   3.869
 9503TIP3   OH228451   5.800   7.349   0.213
 9503TIP3    H128452   5.876   7.316   0.262
 9503TIP3    H228453   5.724   7.317   0.261
 9504TIP3   OH228454   3.489   6.612   3.148
 9504TIP3    H128455   3.525   6.533   3.107
 9504TIP3    H228456   3.521   6.684   3.093
 9505TIP3   OH228457   4.690   1.894   2.397
 9505TIP3    H128458   4.729   1.910   2.483
 9505TIP3    H228459   4.762   1.860   2.344
 9506TIP3   OH228460   6.567   3.650   6.410
 9506TIP3    H128461   6.558   3.736   6.451
 9506TIP3    H228462   6.480   3.631   6.374
 9507TIP3   OH228463   1.867   2.951   6.290
 9507TIP3    H128464   1.878   3.009   6.215
 9507TIP3    H228465   1.801   2.887   6.263
 9508TIP3   OH228466   5.272   6.571   6.238
 9508TIP3    H128467   5.307   6.632   6.173
 9508TIP3    H228468   5.190   6.539   6.199
 9509TIP3   OH228469   0.465   0.426   4.301
 9509TIP3    H128470   0.373   0.430   4.328
 9509TIP3    H228471   0.502   0.353   4.352
 9510TIP3   OH228472   2.930   4.159   6.611
 9510TIP3    H128473   2.850   4.209   6.594
 9510TIP3    H228474   2.908   4.069   6.587
 9511TIP3   OH228475   7.883   7.546   0.272
 9511TIP3    H128476   7.867   7.558   0.178
 9511TIP3    H228477   7.837   7.619   0.314
 9512TIP3   OH228478   1.740   5.473   4.575
 9512TIP3    H128479   1.829   5.486   4.540
 9512TIP3    H228480   1.743   5.387   4.615
 9513TIP3   OH228481   7.086   0.837   5.556
 9513TIP3    H128482   7.074   0.747   5.525
 9513TIP3    H228483   7.006   0.883   5.528
 9514TIP3   OH228484   5.290   1.367   2.242
 9514TIP3    H128485   5.221   1.425   2.275
 9514TIP3    H228486   5.343   1.424   2.186
 9515TIP3   OH228487   2.179   0.057   2.563
 9515TIP3    H128488   2.089   0.042   2.593
 9515TIP3    H228489   2.169   0.099   2.478
 9516TIP3   OH228490   3.809   6.082   0.762
 9516TIP3    H128491   3.837   6.116   0.677
 9516TIP3    H228492   3.858   6.001   0.773
 9517TIP3   OH228493   8.003   5.964   0.329
 9517TIP3    H128494   7.998   5.964   0.424
 9517TIP3    H228495   7.986   6.055   0.304
 9518TIP3   OH228496   1.049   6.614   4.345
 9518TIP3    H128497   0.995   6.535   4.352
 9518TIP3    H228498   1.131   6.590   4.388
 9519TIP3   OH228499   2.605   2.837   3.300
 9519TIP3    H128500   2.593   2.823   3.206
 9519TIP3    H228501   2.682   2.894   3.305
 9520TIP3   OH228502   4.293   1.381   0.528
 9520TIP3    H128503   4.355   1.310   0.514
 9520TIP3    H228504   4.210   1.348   0.494
 9521TIP3   OH228505   3.806   7.523   5.565
 9521TIP3    H128506   3.736   7.499   5.504
 9521TIP3    H228507   3.768   7.592   5.619
 9522TIP3   OH228508   2.787   0.390   3.959
 9522TIP3    H128509   2.870   0.436   3.965
 9522TIP3    H228510   2.811   0.300   3.936
 9523TIP3   OH228511   7.438   4.103   2.684
 9523TIP3    H128512   7.418   4.034   2.748
 9523TIP3    H228513   7.516   4.072   2.639
 9524TIP3   OH228514   7.612   3.567   0.776
 9524TIP3    H128515   7.642   3.639   0.831
 9524TIP3    H228516   7.674   3.497   0.791
 9525TIP3   OH228517   2.918   6.543   4.815
 9525TIP3    H128518   2.902   6.454   4.785
 9525TIP3    H228519   2.898   6.598   4.740
 9526TIP3   OH228520   2.430   1.720   6.205
 9526TIP3    H128521   2.485   1.730   6.282
 9526TIP3    H228522   2.446   1.630   6.176
 9527TIP3   OH228523   6.767   3.533   5.834
 9527TIP3    H128524   6.719   3.471   5.778
 9527TIP3    H228525   6.699   3.572   5.889
 9528TIP3   OH228526   5.188   5.393   3.167
 9528TIP3    H128527   5.137   5.474   3.161
 9528TIP3    H228528   5.247   5.397   3.092
 9529TIP3   OH228529   2.382   3.949   5.295
 9529TIP3    H128530   2.376   3.919   5.205
 9529TIP3    H228531   2.401   3.870   5.346
 9530TIP3   OH228532   1.698   3.068   5.611
 9530TIP3    H128533   1.652   2.985   5.598
 9530TIP3    H228534   1.630   3.128   5.641
 9531TIP3   OH228535   8.062   3.244   5.097
 9531TIP3    H128536   8.128   3.284   5.041
 9531TIP3    H228537   7.991   3.308   5.101
 9532TIP3   OH228538   1.703   5.714   1.131
 9532TIP3    H128539   1.637   5.668   1.182
 9532TIP3    H228540   1.695   5.806   1.159
 9533TIP3   OH228541   5.340   2.800   0.418
 9533TIP3    H128542   5.343   2.886   0.376
 9533TIP3    H228543   5.357   2.738   0.347
 9534TIP3   OH228544   3.581   2.840   1.911
 9534TIP3    H128545   3.576   2.777   1.840
 9534TIP3    H228546   3.672   2.836   1.940
 9535TIP3   OH228547   0.392   2.829   0.208
 9535TIP3    H128548   0.428   2.904   0.160
 9535TIP3    H228549   0.463   2.800   0.264
 9536TIP3   OH228550   0.010   3.369   4.010
 9536TIP3    H128551   0.100   3.401   4.015
 9536TIP3    H228552   0.012   3.302   3.942
 9537TIP3   OH228553   4.356   1.208   2.905
 9537TIP3    H128554   4.345   1.288   2.957
 9537TIP3    H228555   4.400   1.237   2.826
 9538TIP3   OH228556   6.361   1.460   1.282
 9538TIP3    H128557   6.443   1.424   1.317
 9538TIP3    H228558   6.329   1.519   1.350
 9539TIP3   OH228559   5.444   1.020   1.626
 9539TIP3    H128560   5.396   1.024   1.543
 9539TIP3    H228561   5.388   1.067   1.688
 9540TIP3   OH228562   4.346   0.274   3.920
 9540TIP3    H128563   4.321   0.365   3.908
 9540TIP3    H228564   4.412   0.276   3.990
 9541TIP3   OH228565   0.839   5.579   3.913
 9541TIP3    H128566   0.816   5.631   3.990
 9541TIP3    H228567   0.798   5.494   3.928
 9542TIP3   OH228568   6.292   7.558   3.445
 9542TIP3    H128569   6.367   7.603   3.405
 9542TIP3    H228570   6.233   7.629   3.470
 9543TIP3   OH228571   5.637   7.022   4.704
 9543TIP3    H128572   5.603   7.081   4.637
 9543TIP3    H228573   5.617   6.935   4.671
 9544TIP3   OH228574   5.896   7.232   2.216
 9544TIP3    H128575   5.904   7.286   2.295
 9544TIP3    H228576   5.984   7.197   2.203
 9545TIP3   OH228577   2.054   0.125   2.897
 9545TIP3    H128578   2.043   0.065   2.824
 9545TIP3    H228579   2.065   0.211   2.857
 9546TIP3   OH228580   2.946   4.414   2.154
 9546TIP3    H128581   2.959   4.433   2.062
 9546TIP3    H228582   2.853   4.392   2.162
 9547TIP3   OH228583   5.818   7.239   6.702
 9547TIP3    H128584   5.822   7.155   6.656
 9547TIP3    H228585   5.734   7.277   6.677
 9548TIP3   OH228586   0.754   4.541   4.990
 9548TIP3    H128587   0.800   4.625   4.993
 9548TIP3    H228588   0.717   4.531   5.078
 9549TIP3   OH228589   6.457   1.409   0.271
 9549TIP3    H128590   6.423   1.494   0.244
 9549TIP3    H228591   6.435   1.350   0.200
 9550TIP3   OH228592   1.665   0.549   4.399
 9550TIP3    H128593   1.734   0.615   4.388
 9550TIP3    H228594   1.674   0.493   4.322
 9551TIP3   OH228595   7.042   2.331   2.528
 9551TIP3    H128596   6.972   2.365   2.584
 9551TIP3    H228597   7.025   2.236   2.524
 9552TIP3   OH228598   4.305   1.152   5.595
 9552TIP3    H128599   4.381   1.115   5.639
 9552TIP3    H228600   4.336   1.175   5.508
 9553TIP3   OH228601   3.887   3.408   2.144
 9553TIP3    H128602   3.819   3.470   2.172
 9553TIP3    H228603   3.886   3.339   2.210
 9554TIP3   OH228604   3.825   6.888   2.652
 9554TIP3    H128605   3.827   6.957   2.586
 9554TIP3    H228606   3.753   6.831   2.625
 9555TIP3   OH228607   3.034   1.111   6.419
 9555TIP3    H128608   3.092   1.144   6.351
 9555TIP3    H228609   3.040   1.176   6.489
 9556TIP3   OH228610   2.383   2.624   6.307
 9556TIP3    H128611   2.381   2.639   6.212
 9556TIP3    H228612   2.362   2.531   6.316
 9557TIP3   OH228613   1.890   3.711   5.305
 9557TIP3    H128614   1.975   3.731   5.344
 9557TIP3    H228615   1.901   3.626   5.263
 9558TIP3   OH228616   3.136   0.316   5.768
 9558TIP3    H128617   3.181   0.341   5.849
 9558TIP3    H228618   3.202   0.328   5.700
 9559TIP3   OH228619   6.588   5.876   0.534
 9559TIP3    H128620   6.677   5.902   0.513
 9559TIP3    H228621   6.540   5.884   0.452
 9560TIP3   OH228622   0.316   7.560   0.690
 9560TIP3    H128623   0.325   7.638   0.745
 9560TIP3    H228624   0.296   7.490   0.752
 9561TIP3   OH228625   2.528   4.322   1.239
 9561TIP3    H128626   2.508   4.343   1.148
 9561TIP3    H228627   2.616   4.283   1.235
 9562TIP3   OH228628   6.660   7.385   6.008
 9562TIP3    H128629   6.749   7.389   6.043
 9562TIP3    H228630   6.626   7.301   6.040
 9563TIP3   OH228631   5.954   2.893   6.176
 9563TIP3    H128632   5.918   2.967   6.225
 9563TIP3    H228633   5.939   2.817   6.232
 9564TIP3   OH228634   6.256   1.687   1.935
 9564TIP3    H128635   6.300   1.770   1.956
 9564TIP3    H228636   6.325   1.621   1.938
 9565TIP3   OH228637   1.241   3.159   4.560
 9565TIP3    H128638   1.184   3.135   4.633
 9565TIP3    H228639   1.282   3.241   4.587
 9566TIP3   OH228640   6.513   1.934   0.179
 9566TIP3    H128641   6.462   1.944   0.260
 9566TIP3    H228642   6.568   2.013   0.176
 9567TIP3   OH228643   3.984   6.098   1.962
 9567TIP3    H128644   4.061   6.155   1.969
 9567TIP3    H228645   3.910   6.155   1.980
 9568TIP3   OH228646   2.113   0.447   5.270
 9568TIP3    H128647   2.037   0.391   5.256
 9568TIP3    H228648   2.078   0.525   5.314
 9569TIP3   OH228649   7.094   0.443   2.899
 9569TIP3    H128650   7.024   0.406   2.952
 9569TIP3    H228651   7.050   0.487   2.827
 9570TIP3   OH228652   5.256   1.004   0.392
 9570TIP3    H128653   5.343   0.969   0.412
 9570TIP3    H228654   5.206   0.993   0.473
 9571TIP3   OH228655   8.180   1.593   6.067
 9571TIP3    H128656   8.181   1.643   5.986
 9571TIP3    H228657   8.202   1.656   6.135
 9572TIP3   OH228658   2.375   2.929   5.661
 9572TIP3    H128659   2.325   3.002   5.626
 9572TIP3    H228660   2.331   2.851   5.627
 9573TIP3   OH228661   4.149   2.327   4.293
 9573TIP3    H128662   4.072   2.351   4.242
 9573TIP3    H228663   4.139   2.375   4.376
 9574TIP3   OH228664   7.534   1.779   0.383
 9574TIP3    H128665   7.468   1.728   0.336
 9574TIP3    H228666   7.587   1.714   0.430
 9575TIP3   OH228667   7.547   0.349   0.236
 9575TIP3    H128668   7.592   0.293   0.300
 9575TIP3    H228669   7.468   0.301   0.212
 9576TIP3   OH228670   6.975   0.877   3.291
 9576TIP3    H128671   7.001   0.962   3.255
 9576TIP3    H228672   6.902   0.898   3.350
 9577TIP3   OH228673   7.873   0.734   3.465
 9577TIP3    H128674   7.809   0.799   3.493
 9577TIP3    H228675   7.948   0.786   3.436
 9578TIP3   OH228676   7.480   3.764   6.020
 9578TIP3    H128677   7.460   3.681   6.063
 9578TIP3    H228678   7.422   3.767   5.944
 9579TIP3   OH228679   0.728   0.471   0.935
 9579TIP3    H128680   0.696   0.546   0.884
 9579TIP3    H228681   0.798   0.434   0.882
 9580TIP3   OH228682   5.086   4.228   5.334
 9580TIP3    H128683   5.000   4.220   5.377
 9580TIP3    H228684   5.110   4.320   5.345
 9581TIP3   OH228685   6.702   0.217   1.624
 9581TIP3    H128686   6.649   0.290   1.592
 9581TIP3    H228687   6.643   0.142   1.623
 9582TIP3   OH228688   0.937   7.771   2.186
 9582TIP3    H128689   0.903   7.801   2.270
 9582TIP3    H228690   0.863   7.779   2.126
 9583TIP3   OH228691   6.867   5.953   6.692
 9583TIP3    H128692   6.915   5.993   6.620
 9583TIP3    H228693   6.786   5.923   6.653
 9584TIP3   OH228694   5.119   5.479   3.755
 9584TIP3    H128695   5.046   5.528   3.794
 9584TIP3    H228696   5.087   5.454   3.669
 9585TIP3   OH228697   0.663   0.207   5.938
 9585TIP3    H128698   0.758   0.221   5.933
 9585TIP3    H228699   0.653   0.134   5.999
 9586TIP3   OH228700   4.094   3.926   1.091
 9586TIP3    H128701   4.162   3.865   1.120
 9586TIP3    H228702   4.122   3.952   1.003
 9587TIP3   OH228703   6.522   7.333   5.073
 9587TIP3    H128704   6.581   7.266   5.109
 9587TIP3    H228705   6.538   7.330   4.979
 9588TIP3   OH228706   2.536   4.564   3.833
 9588TIP3    H128707   2.591   4.490   3.809
 9588TIP3    H228708   2.464   4.562   3.769
 9589TIP3   OH228709   4.594   3.951   3.165
 9589TIP3    H128710   4.531   4.008   3.122
 9589TIP3    H228711   4.679   3.981   3.135
 9590TIP3   OH228712   2.430   4.468   3.298
 9590TIP3    H128713   2.415   4.481   3.204
 9590TIP3    H228714   2.382   4.540   3.340
 9591TIP3   OH228715   6.525   3.243   2.541
 9591TIP3    H128716   6.475   3.219   2.618
 9591TIP3    H228717   6.571   3.162   2.516
 9592TIP3   OH228718   0.421   7.078   2.121
 9592TIP3    H128719   0.444   7.086   2.213
 9592TIP3    H228720   0.502   7.098   2.074
 9593TIP3   OH228721   4.486   5.917   4.755
 9593TIP3    H128722   4.520   5.937   4.668
 9593TIP3    H228723   4.463   5.824   4.751
 9594TIP3   OH228724   7.538   7.242   5.978
 9594TIP3    H128725   7.514   7.331   6.004
 9594TIP3    H228726   7.455   7.193   5.984
 9595TIP3   OH228727   1.161   7.339   2.977
 9595TIP3    H128728   1.196   7.424   3.003
 9595TIP3    H228729   1.178   7.283   3.053
 9596TIP3   OH228730   5.886   5.255   2.347
 9596TIP3    H128731   5.924   5.324   2.294
 9596TIP3    H228732   5.836   5.301   2.415
 9597TIP3   OH228733   2.140   1.497   6.268
 9597TIP3    H128734   2.208   1.489   6.200
 9597TIP3    H228735   2.074   1.554   6.230
 9598TIP3   OH228736   0.543   7.029   4.384
 9598TIP3    H128737   0.516   7.010   4.474
 9598TIP3    H228738   0.467   7.005   4.331
 9599TIP3   OH228739   6.269   7.194   0.314
 9599TIP3    H128740   6.183   7.165   0.344
 9599TIP3    H228741   6.328   7.123   0.340
 9600TIP3   OH228742   6.710   0.171   0.519
 9600TIP3    H128743   6.704   0.252   0.569
 9600TIP3    H228744   6.627   0.126   0.536
 9601TIP3   OH228745   5.598   3.893   4.675
 9601TIP3    H128746   5.563   3.807   4.651
 9601TIP3    H228747   5.553   3.915   4.757
 9602TIP3   OH228748   4.295   6.934   5.159
 9602TIP3    H128749   4.268   6.842   5.150
 9602TIP3    H228750   4.214   6.984   5.151
 9603TIP3   OH228751   2.863   6.717   0.434
 9603TIP3    H128752   2.816   6.637   0.408
 9603TIP3    H228753   2.817   6.787   0.389
 9604TIP3   OH228754   0.207   7.028   3.955
 9604TIP3    H128755   0.127   7.078   3.964
 9604TIP3    H228756   0.188   6.963   3.887
 9605TIP3   OH228757   6.790   6.625   1.392
 9605TIP3    H128758   6.868   6.609   1.339
 9605TIP3    H228759   6.817   6.606   1.481
 9606TIP3   OH228760   2.664   2.101   1.922
 9606TIP3    H128761   2.725   2.171   1.941
 9606TIP3    H228762   2.623   2.126   1.839
 9607TIP3   OH228763   3.157   4.675   3.125
 9607TIP3    H128764   3.110   4.620   3.062
 9607TIP3    H228765   3.098   4.747   3.144
 9608TIP3   OH228766   1.352   0.940   4.236
 9608TIP3    H128767   1.268   0.971   4.270
 9608TIP3    H228768   1.396   0.902   4.312
 9609TIP3   OH228769   2.977   2.681   2.389
 9609TIP3    H128770   2.922   2.682   2.467
 9609TIP3    H228771   3.056   2.729   2.415
 9610TIP3   OH228772   8.113   1.210   3.593
 9610TIP3    H128773   8.144   1.149   3.660
 9610TIP3    H228774   8.146   1.295   3.621
 9611TIP3   OH228775   6.737   3.307   1.669
 9611TIP3    H128776   6.819   3.316   1.621
 9611TIP3    H228777   6.755   3.240   1.735
 9612TIP3   OH228778   2.225   7.755   5.166
 9612TIP3    H128779   2.182   7.762   5.080
 9612TIP3    H228780   2.168   7.696   5.216
 9613TIP3   OH228781   3.425   6.277   3.253
 9613TIP3    H128782   3.375   6.297   3.333
 9613TIP3    H228783   3.494   6.217   3.282
 9614TIP3   OH228784   2.342   5.806   5.124
 9614TIP3    H128785   2.348   5.893   5.086
 9614TIP3    H228786   2.348   5.747   5.049
 9615TIP3   OH228787   5.988   7.305   4.606
 9615TIP3    H128788   5.980   7.285   4.699
 9615TIP3    H228789   5.924   7.375   4.591
 9616TIP3   OH228790   2.567   0.133   6.250
 9616TIP3    H128791   2.649   0.183   6.251
 9616TIP3    H228792   2.503   0.192   6.212
 9617TIP3   OH228793   8.147   3.993   1.312
 9617TIP3    H128794   8.079   3.936   1.348
 9617TIP3    H228795   8.112   4.081   1.321
 9618TIP3   OH228796   0.693   4.385   3.076
 9618TIP3    H128797   0.749   4.462   3.087
 9618TIP3    H228798   0.678   4.379   2.982
 9619TIP3   OH228799   1.869   4.636   6.087
 9619TIP3    H128800   1.925   4.710   6.108
 9619TIP3    H228801   1.913   4.592   6.015
 9620TIP3   OH228802   4.184   7.747   1.701
 9620TIP3    H128803   4.160   7.810   1.769
 9620TIP3    H228804   4.186   7.798   1.620
 9621TIP3   OH228805   7.053   3.611   0.228
 9621TIP3    H128806   6.979   3.599   0.168
 9621TIP3    H228807   7.025   3.567   0.309
 9622TIP3   OH228808   2.929   7.435   2.578
 9622TIP3    H128809   2.963   7.445   2.667
 9622TIP3    H228810   2.839   7.468   2.583
 9623TIP3   OH228811   2.242   2.723   2.188
 9623TIP3    H128812   2.277   2.807   2.158
 9623TIP3    H228813   2.301   2.657   2.151
 9624TIP3   OH228814   3.806   4.005   3.350
 9624TIP3    H128815   3.710   4.011   3.351
 9624TIP3    H228816   3.825   3.944   3.278
 9625TIP3   OH228817   5.867   0.298   3.817
 9625TIP3    H128818   5.814   0.269   3.742
 9625TIP3    H228819   5.930   0.359   3.779
 9626TIP3   OH228820   8.205   3.865   3.032
 9626TIP3    H128821   8.214   3.955   2.998
 9626TIP3    H228822   8.238   3.870   3.122
 9627TIP3   OH228823   7.206   2.354   4.527
 9627TIP3    H128824   7.240   2.328   4.442
 9627TIP3    H228825   7.259   2.429   4.553
 9628TIP3   OH228826   5.545   4.192   3.967
 9628TIP3    H128827   5.597   4.112   3.978
 9628TIP3    H228828   5.600   4.250   3.915
 9629TIP3   OH228829   4.115   7.356   2.667
 9629TIP3    H128830   4.030   7.311   2.662
 9629TIP3    H228831   4.095   7.438   2.712
 9630TIP3   OH228832   3.958   7.251   5.169
 9630TIP3    H128833   3.895   7.232   5.239
 9630TIP3    H228834   3.904   7.263   5.091
 9631TIP3   OH228835   0.148   1.980   1.263
 9631TIP3    H128836   0.101   1.927   1.328
 9631TIP3    H228837   0.189   2.050   1.314
 9632TIP3   OH228838   1.109   5.878   5.304
 9632TIP3    H128839   1.058   5.798   5.316
 9632TIP3    H228840   1.058   5.946   5.349
 9633TIP3   OH228841   0.308   2.939   5.290
 9633TIP3    H128842   0.222   2.899   5.304
 9633TIP3    H228843   0.302   2.980   5.204
 9634TIP3   OH228844   6.621   2.886   0.635
 9634TIP3    H128845   6.617   2.798   0.597
 9634TIP3    H228846   6.680   2.934   0.577
 9635TIP3   OH228847   2.598   0.936   2.681
 9635TIP3    H128848   2.603   0.877   2.606
 9635TIP3    H228849   2.683   0.980   2.684
 9636TIP3   OH228850   3.860   4.120   0.194
 9636TIP3    H128851   3.895   4.209   0.182
 9636TIP3    H228852   3.777   4.134   0.240
 9637TIP3   OH228853   4.273   5.668   2.956
 9637TIP3    H128854   4.201   5.606   2.971
 9637TIP3    H228855   4.310   5.643   2.871
 9638TIP3   OH228856   0.383   4.061   6.457
 9638TIP3    H128857   0.465   4.093   6.493
 9638TIP3    H228858   0.383   3.968   6.476
 9639TIP3   OH228859   4.575   4.090   4.805
 9639TIP3    H128860   4.552   3.998   4.805
 9639TIP3    H228861   4.654   4.095   4.858
 9640TIP3   OH228862   5.871   1.742   2.843
 9640TIP3    H128863   5.805   1.674   2.849
 9640TIP3    H228864   5.822   1.824   2.842
 9641TIP3   OH228865   0.239   4.285   5.646
 9641TIP3    H128866   0.212   4.298   5.555
 9641TIP3    H228867   0.304   4.354   5.662
 9642TIP3   OH228868   5.171   6.789   0.893
 9642TIP3    H128869   5.266   6.775   0.889
 9642TIP3    H228870   5.160   6.883   0.880
 9643TIP3   OH228871   0.813   6.188   1.608
 9643TIP3    H128872   0.822   6.165   1.700
 9643TIP3    H228873   0.880   6.136   1.564
 9644TIP3   OH228874   2.187   6.112   2.094
 9644TIP3    H128875   2.132   6.102   2.171
 9644TIP3    H228876   2.276   6.099   2.127
 9645TIP3   OH228877   3.796   0.530   0.983
 9645TIP3    H128878   3.716   0.557   0.939
 9645TIP3    H228879   3.785   0.437   1.001
 9646TIP3   OH228880   5.109   7.268   3.773
 9646TIP3    H128881   5.152   7.238   3.693
 9646TIP3    H228882   5.019   7.237   3.766
 9647TIP3   OH228883   0.226   0.218   2.515
 9647TIP3    H128884   0.213   0.299   2.563
 9647TIP3    H228885   0.146   0.208   2.463
 9648TIP3   OH228886   0.516   6.000   5.080
 9648TIP3    H128887   0.569   5.995   5.160
 9648TIP3    H228888   0.432   6.034   5.110
 9649TIP3   OH228889   7.505   4.990   5.345
 9649TIP3    H128890   7.512   5.022   5.255
 9649TIP3    H228891   7.553   5.055   5.397
 9650TIP3   OH228892   4.714   2.141   2.257
 9650TIP3    H128893   4.805   2.136   2.228
 9650TIP3    H228894   4.705   2.071   2.322
 9651TIP3   OH228895   0.729   1.803   5.756
 9651TIP3    H128896   0.820   1.774   5.771
 9651TIP3    H228897   0.712   1.863   5.829
 9652TIP3   OH228898   0.229   3.001   1.268
 9652TIP3    H128899   0.191   2.916   1.246
 9652TIP3    H228900   0.319   2.981   1.294
 9653TIP3   OH228901   4.801   0.818   1.967
 9653TIP3    H128902   4.855   0.865   2.030
 9653TIP3    H228903   4.829   0.851   1.882
 9654TIP3   OH228904   3.203   5.040   4.107
 9654TIP3    H128905   3.289   5.081   4.098
 9654TIP3    H228906   3.212   4.980   4.180
 9655TIP3   OH228907   7.810   2.996   2.645
 9655TIP3    H128908   7.872   3.069   2.639
 9655TIP3    H228909   7.865   2.918   2.657
 9656TIP3   OH228910   1.592   1.453   0.890
 9656TIP3    H128911   1.671   1.507   0.892
 9656TIP3    H228912   1.594   1.411   0.804
 9657TIP3   OH228913   3.943   7.265   1.484
 9657TIP3    H128914   3.915   7.340   1.433
 9657TIP3    H228915   3.948   7.193   1.422
 9658TIP3   OH228916   6.867   3.483   0.883
 9658TIP3    H128917   6.900   3.569   0.858
 9658TIP3    H228918   6.777   3.498   0.910
 9659TIP3   OH228919   1.946   7.158   4.622
 9659TIP3    H128920   1.934   7.217   4.548
 9659TIP3    H228921   2.037   7.171   4.648
 9660TIP3   OH228922   7.778   1.258   4.688
 9660TIP3    H128923   7.688   1.231   4.706
 9660TIP3    H228924   7.833   1.195   4.735
 9661TIP3   OH228925   7.546   6.533   1.881
 9661TIP3    H128926   7.505   6.600   1.826
 9661TIP3    H228927   7.639   6.552   1.876
 9662TIP3   OH228928   0.787   0.186   3.963
 9662TIP3    H128929   0.694   0.176   3.946
 9662TIP3    H228930   0.829   0.130   3.898
 9663TIP3   OH228931   5.798   7.221   0.470
 9663TIP3    H128932   5.749   7.146   0.502
 9663TIP3    H228933   5.741   7.296   0.487
 9664TIP3   OH228934   4.676   3.172   2.186
 9664TIP3    H128935   4.696   3.253   2.139
 9664TIP3    H228936   4.747   3.163   2.250
 9665TIP3   OH228937   1.176   5.603   1.705
 9665TIP3    H128938   1.224   5.683   1.682
 9665TIP3    H228939   1.244   5.539   1.726
 9666TIP3   OH228940   1.396   5.734   0.869
 9666TIP3    H128941   1.414   5.818   0.912
 9666TIP3    H228942   1.450   5.735   0.790
 9667TIP3   OH228943   1.469   3.432   3.122
 9667TIP3    H128944   1.479   3.525   3.101
 9667TIP3    H228945   1.538   3.414   3.187
 9668TIP3   OH228946   0.465   2.960   4.403
 9668TIP3    H128947   0.474   2.894   4.334
 9668TIP3    H228948   0.489   3.043   4.361
 9669TIP3   OH228949   2.893   1.594   3.761
 9669TIP3    H128950   2.946   1.651   3.817
 9669TIP3    H228951   2.943   1.587   3.680
 9670TIP3   OH228952   1.391   1.335   2.370
 9670TIP3    H128953   1.392   1.242   2.394
 9670TIP3    H228954   1.433   1.379   2.443
 9671TIP3   OH228955   4.187   1.911   4.337
 9671TIP3    H128956   4.198   1.996   4.295
 9671TIP3    H228957   4.096   1.888   4.321
 9672TIP3   OH228958   6.808   1.637   2.392
 9672TIP3    H128959   6.878   1.630   2.457
 9672TIP3    H228960   6.810   1.553   2.346
 9673TIP3   OH228961   8.258   1.918   1.998
 9673TIP3    H128962   8.278   1.968   2.077
 9673TIP3    H228963   8.226   1.983   1.935
 9674TIP3   OH228964   5.632   6.376   3.574
 9674TIP3    H128965   5.689   6.345   3.505
 9674TIP3    H228966   5.673   6.347   3.655
 9675TIP3   OH228967   6.783   7.270   3.955
 9675TIP3    H128968   6.735   7.352   3.941
 9675TIP3    H228969   6.873   7.291   3.929
 9676TIP3   OH228970   3.232   4.759   4.212
 9676TIP3    H128971   3.261   4.681   4.260
 9676TIP3    H228972   3.188   4.724   4.135
 9677TIP3   OH228973   0.559   1.904   2.184
 9677TIP3    H128974   0.465   1.921   2.183
 9677TIP3    H228975   0.597   1.980   2.228
 9678TIP3   OH228976   6.267   2.141   6.376
 9678TIP3    H128977   6.301   2.105   6.459
 9678TIP3    H228978   6.256   2.234   6.393
 9679TIP3   OH228979   4.464   4.411   4.037
 9679TIP3    H128980   4.550   4.453   4.034
 9679TIP3    H228981   4.449   4.395   4.130
 9680TIP3   OH228982   6.295   0.464   5.946
 9680TIP3    H128983   6.331   0.377   5.961
 9680TIP3    H228984   6.229   0.451   5.878
 9681TIP3   OH228985   0.904   7.407   4.033
 9681TIP3    H128986   0.845   7.336   4.008
 9681TIP3    H228987   0.901   7.467   3.959
 9682TIP3   OH228988   7.237   0.232   4.191
 9682TIP3    H128989   7.284   0.164   4.143
 9682TIP3    H228990   7.300   0.303   4.199
 9683TIP3   OH228991   0.824   6.760   0.028
 9683TIP3    H128992   0.777   6.843   0.040
 9683TIP3    H228993   0.775   6.696   0.080
 9684TIP3   OH228994   0.652   5.016   6.547
 9684TIP3    H128995   0.642   5.058   6.632
 9684TIP3    H228996   0.713   5.071   6.499
 9685TIP3   OH228997   7.378   6.709   3.018
 9685TIP3    H128998   7.371   6.669   3.104
 9685TIP3    H228999   7.350   6.800   3.032
 9686TIP3   OH229000   7.226   3.747   5.314
 9686TIP3    H129001   7.133   3.763   5.328
 9686TIP3    H229002   7.271   3.811   5.370
 9687TIP3   OH229003   0.164   6.630   3.462
 9687TIP3    H129004   0.074   6.643   3.435
 9687TIP3    H229005   0.197   6.717   3.481
 9688TIP3   OH229006   4.689   6.231   4.280
 9688TIP3    H129007   4.602   6.232   4.320
 9688TIP3    H229008   4.696   6.146   4.238
 9689TIP3   OH229009   5.485   1.343   3.914
 9689TIP3    H129010   5.498   1.260   3.959
 9689TIP3    H229011   5.499   1.410   3.982
 9690TIP3   OH229012   1.709   4.251   5.687
 9690TIP3    H129013   1.742   4.305   5.759
 9690TIP3    H229014   1.722   4.305   5.609
 9691TIP3   OH229015   6.730   7.262   2.455
 9691TIP3    H129016   6.749   7.343   2.408
 9691TIP3    H229017   6.746   7.193   2.391
 9692TIP3   OH229018   6.341   4.707   6.716
 9692TIP3    H129019   6.316   4.783   6.769
 9692TIP3    H229020   6.434   4.695   6.734
 9693TIP3   OH229021   3.234   6.822   2.155
 9693TIP3    H129022   3.208   6.737   2.118
 9693TIP3    H229023   3.157   6.878   2.143
 9694TIP3   OH229024   3.132   7.122   4.646
 9694TIP3    H129025   3.119   7.121   4.551
 9694TIP3    H229026   3.052   7.161   4.681
 9695TIP3   OH229027   3.266   2.792   5.170
 9695TIP3    H129028   3.311   2.832   5.245
 9695TIP3    H229029   3.200   2.857   5.145
 9696TIP3   OH229030   3.157   6.072   6.371
 9696TIP3    H129031   3.086   6.131   6.398
 9696TIP3    H229032   3.182   6.104   6.284
 9697TIP3   OH229033   1.740   0.912   4.809
 9697TIP3    H129034   1.828   0.895   4.843
 9697TIP3    H229035   1.754   0.947   4.722
 9698TIP3   OH229036   3.499   5.818   4.905
 9698TIP3    H129037   3.439   5.892   4.899
 9698TIP3    H229038   3.480   5.765   4.827
 9699TIP3   OH229039   0.494   2.257   1.457
 9699TIP3    H129040   0.462   2.168   1.468
 9699TIP3    H229041   0.464   2.283   1.371
 9700TIP3   OH229042   1.044   3.265   4.940
 9700TIP3    H129043   1.078   3.293   5.025
 9700TIP3    H229044   0.974   3.327   4.920
 9701TIP3   OH229045   6.182   0.722   3.625
 9701TIP3    H129046   6.222   0.768   3.698
 9701TIP3    H229047   6.095   0.762   3.617
 9702TIP3   OH229048   4.976   5.966   4.720
 9702TIP3    H129049   4.997   5.883   4.763
 9702TIP3    H229050   5.021   5.961   4.635
 9703TIP3   OH229051   5.570   2.887   6.337
 9703TIP3    H129052   5.552   2.968   6.290
 9703TIP3    H229053   5.487   2.840   6.338
 9704TIP3   OH229054   3.471   2.996   5.701
 9704TIP3    H129055   3.451   3.078   5.746
 9704TIP3    H229056   3.397   2.938   5.721
 9705TIP3   OH229057   5.941   5.185   4.486
 9705TIP3    H129058   5.846   5.188   4.499
 9705TIP3    H229059   5.967   5.277   4.479
 9706TIP3   OH229060   0.712   5.952   5.333
 9706TIP3    H129061   0.787   5.990   5.287
 9706TIP3    H229062   0.750   5.913   5.412
 9707TIP3   OH229063   7.385   6.119   1.663
 9707TIP3    H129064   7.370   6.045   1.604
 9707TIP3    H229065   7.319   6.110   1.731
 9708TIP3   OH229066   5.844   4.522   0.436
 9708TIP3    H129067   5.771   4.577   0.409
 9708TIP3    H229068   5.916   4.584   0.449
 9709TIP3   OH229069   7.647   5.420   4.907
 9709TIP3    H129070   7.699   5.373   4.842
 9709TIP3    H229071   7.699   5.498   4.927
 9710TIP3   OH229072   2.432   1.976   6.594
 9710TIP3    H129073   2.496   1.905   6.589
 9710TIP3    H229074   2.466   2.035   6.660
 9711TIP3   OH229075   6.951   2.936   5.093
 9711TIP3    H129076   6.884   2.934   5.162
 9711TIP3    H229077   6.994   2.851   5.100
 9712TIP3   OH229078   0.457   1.429   1.359
 9712TIP3    H129079   0.543   1.394   1.338
 9712TIP3    H229080   0.436   1.486   1.285
 9713TIP3   OH229081   2.250   7.713   1.467
 9713TIP3    H129082   2.313   7.740   1.533
 9713TIP3    H229083   2.201   7.792   1.446
 9714TIP3   OH229084   0.798   3.157   0.292
 9714TIP3    H129085   0.740   3.234   0.283
 9714TIP3    H229086   0.817   3.153   0.386
 9715TIP3   OH229087   4.507   1.521   4.552
 9715TIP3    H129088   4.545   1.562   4.629
 9715TIP3    H229089   4.491   1.430   4.578
 9716TIP3   OH229090   1.319   1.113   1.235
 9716TIP3    H129091   1.357   1.165   1.307
 9716TIP3    H229092   1.369   1.140   1.158
 9717TIP3   OH229093   3.776   4.676   2.669
 9717TIP3    H129094   3.748   4.585   2.663
 9717TIP3    H229095   3.783   4.705   2.578
 9718TIP3   OH229096   3.129   0.418   3.271
 9718TIP3    H129097   3.071   0.343   3.260
 9718TIP3    H229098   3.074   0.484   3.314
 9719TIP3   OH229099   5.931   7.191   0.008
 9719TIP3    H129100   5.942   7.174   0.102
 9719TIP3    H229101   5.894   7.109  -0.026
 9720TIP3   OH229102   0.341   1.301   3.955
 9720TIP3    H129103   0.346   1.310   3.860
 9720TIP3    H229104   0.337   1.392   3.987
 9721TIP3   OH229105   0.342   6.160   0.266
 9721TIP3    H129106   0.422   6.149   0.216
 9721TIP3    H229107   0.288   6.219   0.213
 9722TIP3   OH229108   7.044   5.549   3.004
 9722TIP3    H129109   7.078   5.503   2.927
 9722TIP3    H229110   7.056   5.487   3.076
 9723TIP3   OH229111   7.361   6.951   2.295
 9723TIP3    H129112   7.354   6.955   2.200
 9723TIP3    H229113   7.292   7.009   2.327
 9724TIP3   OH229114   4.956   3.551   5.709
 9724TIP3    H129115   4.965   3.642   5.736
 9724TIP3    H229116   5.017   3.503   5.765
 9725TIP3   OH229117   4.622   2.597   1.987
 9725TIP3    H129118   4.530   2.580   1.970
 9725TIP3    H229119   4.650   2.655   1.916
 9726TIP3   OH229120   5.113   5.619   1.566
 9726TIP3    H129121   5.055   5.622   1.490
 9726TIP3    H229122   5.100   5.704   1.609
 9727TIP3   OH229123   1.935   2.308   1.811
 9727TIP3    H129124   1.983   2.312   1.729
 9727TIP3    H229125   1.910   2.216   1.819
 9728TIP3   OH229126   7.118   3.269   3.324
 9728TIP3    H129127   7.092   3.234   3.238
 9728TIP3    H229128   7.038   3.309   3.358
 9729TIP3   OH229129   4.017   2.579   2.659
 9729TIP3    H129130   3.953   2.552   2.725
 9729TIP3    H229131   3.975   2.558   2.575
 9730TIP3   OH229132   1.378   1.345   1.396
 9730TIP3    H129133   1.452   1.387   1.350
 9730TIP3    H229134   1.369   1.395   1.477
 9731TIP3   OH229135   5.767   1.452   0.511
 9731TIP3    H129136   5.701   1.509   0.550
 9731TIP3    H229137   5.723   1.368   0.500
 9732TIP3   OH229138   1.221   3.200   5.453
 9732TIP3    H129139   1.151   3.152   5.497
 9732TIP3    H229140   1.175   3.267   5.402
 9733TIP3   OH229141   1.451   6.822   0.664
 9733TIP3    H129142   1.466   6.796   0.755
 9733TIP3    H229143   1.520   6.885   0.645
 9734TIP3   OH229144   1.243   2.488   0.731
 9734TIP3    H129145   1.240   2.564   0.788
 9734TIP3    H229146   1.151   2.459   0.726
 9735TIP3   OH229147   0.743   4.121   1.628
 9735TIP3    H129148   0.740   4.026   1.621
 9735TIP3    H229149   0.653   4.150   1.618
 9736TIP3   OH229150   0.097   4.829   6.324
 9736TIP3    H129151   0.082   4.902   6.264
 9736TIP3    H229152   0.013   4.784   6.329
 9737TIP3   OH229153   4.716   0.583   2.737
 9737TIP3    H129154   4.660   0.660   2.724
 9737TIP3    H229155   4.762   0.600   2.819
 9738TIP3   OH229156   2.362   6.902   3.102
 9738TIP3    H129157   2.445   6.873   3.064
 9738TIP3    H229158   2.353   6.993   3.074
 9739TIP3   OH229159   0.048   6.088   4.447
 9739TIP3    H129160   0.104   6.065   4.373
 9739TIP3    H229161  -0.008   6.011   4.459
 9740TIP3   OH229162   5.359   0.860   2.027
 9740TIP3    H129163   5.322   0.931   2.078
 9740TIP3    H229164   5.284   0.820   1.982
 9741TIP3   OH229165   4.189   1.748   1.665
 9741TIP3    H129166   4.151   1.751   1.577
 9741TIP3    H229167   4.199   1.840   1.690
 9742TIP3   OH229168   2.393   4.519   6.680
 9742TIP3    H129169   2.367   4.459   6.610
 9742TIP3    H229170   2.330   4.502   6.750
 9743TIP3   OH229171   5.899   7.204   0.747
 9743TIP3    H129172   5.836   7.263   0.706
 9743TIP3    H229173   5.931   7.149   0.675
 9744TIP3   OH229174   3.922   0.747   5.448
 9744TIP3    H129175   3.886   0.664   5.479
 9744TIP3    H229176   3.961   0.787   5.526
 9745TIP3   OH229177   0.562   0.588   5.506
 9745TIP3    H129178   0.594   0.655   5.445
 9745TIP3    H229179   0.528   0.519   5.449
 9746TIP3   OH229180   2.413   1.792   1.317
 9746TIP3    H129181   2.491   1.744   1.343
 9746TIP3    H229182   2.368   1.734   1.255
 9747TIP3   OH229183   4.039   4.905   6.124
 9747TIP3    H129184   3.972   4.912   6.191
 9747TIP3    H229185   4.040   4.991   6.082
 9748TIP3   OH229186   7.795   3.574   3.951
 9748TIP3    H129187   7.866   3.511   3.960
 9748TIP3    H229188   7.737   3.556   4.025
 9749TIP3   OH229189   3.979   1.331   3.097
 9749TIP3    H129190   3.951   1.270   3.029
 9749TIP3    H229191   3.978   1.416   3.054
 9750TIP3   OH229192   2.019   3.828   1.646
 9750TIP3    H129193   2.106   3.849   1.680
 9750TIP3    H229194   1.964   3.820   1.724
 9751TIP3   OH229195   8.165   6.605   1.870
 9751TIP3    H129196   8.165   6.626   1.963
 9751TIP3    H229197   8.213   6.522   1.864
 9752TIP3   OH229198   4.338   1.271   5.030
 9752TIP3    H129199   4.308   1.346   4.978
 9752TIP3    H229200   4.286   1.275   5.110
 9753TIP3   OH229201   0.538   2.014   0.563
 9753TIP3    H129202   0.487   1.965   0.498
 9753TIP3    H229203   0.483   2.088   0.587
 9754TIP3   OH229204   3.100   4.973   5.942
 9754TIP3    H129205   3.053   4.943   6.020
 9754TIP3    H229206   3.147   5.051   5.971
 9755TIP3   OH229207   2.130   1.137   5.200
 9755TIP3    H129208   2.066   1.086   5.249
 9755TIP3    H229209   2.091   1.224   5.192
 9756TIP3   OH229210   1.255   3.021   4.837
 9756TIP3    H129211   1.306   2.963   4.781
 9756TIP3    H229212   1.313   3.040   4.911
 9757TIP3   OH229213   5.886   4.188   5.622
 9757TIP3    H129214   5.820   4.177   5.553
 9757TIP3    H229215   5.867   4.273   5.660
 9758TIP3   OH229216   0.235   5.057   0.853
 9758TIP3    H129217   0.229   4.963   0.836
 9758TIP3    H229218   0.281   5.093   0.776
 9759TIP3   OH229219   3.336   6.349   5.835
 9759TIP3    H129220   3.414   6.332   5.888
 9759TIP3    H229221   3.299   6.263   5.818
 9760TIP3   OH229222   7.618   7.723   1.255
 9760TIP3    H129223   7.571   7.772   1.323
 9760TIP3    H229224   7.614   7.632   1.283
 9761TIP3   OH229225   5.138   6.656   6.726
 9761TIP3    H129226   5.208   6.602   6.761
 9761TIP3    H229227   5.164   6.746   6.745
 9762TIP3   OH229228   6.557   5.795   1.658
 9762TIP3    H129229   6.542   5.704   1.634
 9762TIP3    H229230   6.567   5.793   1.753
 9763TIP3   OH229231   1.230   4.590   6.354
 9763TIP3    H129232   1.192   4.624   6.273
 9763TIP3    H229233   1.287   4.519   6.325
 9764TIP3   OH229234   1.388   5.883   5.325
 9764TIP3    H129235   1.297   5.856   5.327
 9764TIP3    H229236   1.397   5.941   5.400
 9765TIP3   OH229237   3.141   2.446   6.204
 9765TIP3    H129238   3.194   2.514   6.244
 9765TIP3    H229239   3.175   2.364   6.240
 9766TIP3   OH229240   6.114   3.071   1.081
 9766TIP3    H129241   6.055   3.014   1.131
 9766TIP3    H229242   6.128   3.147   1.138
 9767TIP3   OH229243   6.001   0.490   4.210
 9767TIP3    H129244   5.928   0.523   4.156
 9767TIP3    H229245   5.985   0.396   4.216
 9768TIP3   OH229246   3.551   2.419   4.762
 9768TIP3    H129247   3.550   2.445   4.854
 9768TIP3    H229248   3.597   2.336   4.761
 9769TIP3   OH229249   4.887   6.409   1.699
 9769TIP3    H129250   4.980   6.416   1.677
 9769TIP3    H229251   4.857   6.331   1.653
 9770TIP3   OH229252   4.432   0.518   3.840
 9770TIP3    H129253   4.487   0.445   3.812
 9770TIP3    H229254   4.479   0.596   3.812
 9771TIP3   OH229255   0.617   4.105   0.404
 9771TIP3    H129256   0.529   4.081   0.434
 9771TIP3    H229257   0.601   4.164   0.330
 9772TIP3   OH229258   3.243   1.986   3.753
 9772TIP3    H129259   3.284   2.037   3.823
 9772TIP3    H229260   3.153   2.017   3.750
 9773TIP3   OH229261   4.347   0.087   3.697
 9773TIP3    H129262   4.418   0.027   3.720
 9773TIP3    H229263   4.347   0.153   3.767
 9774TIP3   OH229264   3.094   6.260   0.361
 9774TIP3    H129265   3.181   6.228   0.385
 9774TIP3    H229266   3.079   6.225   0.273
 9775TIP3   OH229267   4.017   0.523   0.032
 9775TIP3    H129268   4.024   0.535  -0.062
 9775TIP3    H229269   4.068   0.444   0.050
 9776TIP3   OH229270   6.980   6.189   3.749
 9776TIP3    H129271   7.016   6.276   3.730
 9776TIP3    H229272   7.057   6.135   3.765
 9777TIP3   OH229273   0.956   0.433   4.867
 9777TIP3    H129274   0.904   0.461   4.792
 9777TIP3    H229275   1.039   0.406   4.830
 9778TIP3   OH229276   2.578   1.446   3.681
 9778TIP3    H129277   2.546   1.508   3.746
 9778TIP3    H229278   2.660   1.484   3.650
 9779TIP3   OH229279   7.785   0.629   2.670
 9779TIP3    H129280   7.822   0.577   2.599
 9779TIP3    H229281   7.824   0.716   2.659
 9780TIP3   OH229282   3.692   5.499   1.515
 9780TIP3    H129283   3.690   5.430   1.449
 9780TIP3    H229284   3.783   5.501   1.545
 9781TIP3   OH229285   4.883   6.981   2.938
 9781TIP3    H129286   4.932   6.925   2.999
 9781TIP3    H229287   4.941   6.991   2.862
 9782TIP3   OH229288   0.347   6.546   5.786
 9782TIP3    H129289   0.367   6.518   5.876
 9782TIP3    H229290   0.372   6.639   5.785
 9783TIP3   OH229291   2.544   6.216   1.620
 9783TIP3    H129292   2.576   6.291   1.670
 9783TIP3    H229293   2.566   6.140   1.674
 9784TIP3   OH229294   3.445   3.785   1.791
 9784TIP3    H129295   3.420   3.705   1.745
 9784TIP3    H229296   3.492   3.837   1.726
 9785TIP3   OH229297   4.183   3.561   4.346
 9785TIP3    H129298   4.105   3.554   4.291
 9785TIP3    H229299   4.240   3.490   4.315
 9786TIP3   OH229300   8.094   6.200   5.339
 9786TIP3    H129301   8.031   6.235   5.402
 9786TIP3    H229302   8.051   6.210   5.254
 9787TIP3   OH229303   2.927   2.235   1.944
 9787TIP3    H129304   2.999   2.186   1.985
 9787TIP3    H229305   2.971   2.307   1.898
 9788TIP3   OH229306   0.892   3.251   1.077
 9788TIP3    H129307   0.851   3.321   1.129
 9788TIP3    H229308   0.982   3.246   1.111
 9789TIP3   OH229309   2.177   0.618   1.923
 9789TIP3    H129310   2.250   0.610   1.984
 9789TIP3    H229311   2.110   0.666   1.972
 9790TIP3   OH229312   6.669   1.786   2.000
 9790TIP3    H129313   6.710   1.828   2.075
 9790TIP3    H229314   6.624   1.710   2.036
 9791TIP3   OH229315   4.071   2.907   0.145
 9791TIP3    H129316   3.989   2.923   0.099
 9791TIP3    H229317   4.077   2.812   0.153
 9792TIP3   OH229318   3.938   4.162   3.870
 9792TIP3    H129319   3.997   4.103   3.823
 9792TIP3    H229320   3.860   4.166   3.814
 9793TIP3   OH229321   0.183   4.490   2.198
 9793TIP3    H129322   0.104   4.448   2.165
 9793TIP3    H229323   0.249   4.473   2.130
 9794TIP3   OH229324   6.441   6.491   3.128
 9794TIP3    H129325   6.442   6.579   3.089
 9794TIP3    H229326   6.446   6.507   3.223
 9795TIP3   OH229327   1.138   3.995   4.299
 9795TIP3    H129328   1.185   3.990   4.216
 9795TIP3    H229329   1.165   4.078   4.338
 9796TIP3   OH229330   1.572   6.671   2.625
 9796TIP3    H129331   1.632   6.704   2.558
 9796TIP3    H229332   1.554   6.581   2.598
 9797TIP3   OH229333   0.654   6.041   4.015
 9797TIP3    H129334   0.701   6.026   4.097
 9797TIP3    H229335   0.645   6.136   4.009
 9798TIP3   OH229336   7.213   1.710   5.540
 9798TIP3    H129337   7.204   1.783   5.479
 9798TIP3    H229338   7.296   1.726   5.585
 9799TIP3   OH229339   0.681   1.379   6.592
 9799TIP3    H129340   0.681   1.469   6.557
 9799TIP3    H229341   0.773   1.360   6.611
 9800TIP3   OH229342   0.973   1.915   4.026
 9800TIP3    H129343   0.890   1.879   4.055
 9800TIP3    H229344   0.955   2.008   4.012
 9801TIP3   OH229345   3.920   4.791   1.515
 9801TIP3    H129346   3.895   4.882   1.528
 9801TIP3    H229347   3.868   4.761   1.441
 9802TIP3   OH229348   4.769   4.222   3.614
 9802TIP3    H129349   4.714   4.150   3.584
 9802TIP3    H229350   4.806   4.191   3.697
 9803TIP3   OH229351   6.045   1.120   3.095
 9803TIP3    H129352   6.034   1.126   3.190
 9803TIP3    H229353   6.101   1.194   3.073
 9804TIP3   OH229354   5.957   7.493   5.172
 9804TIP3    H129355   5.911   7.488   5.088
 9804TIP3    H229356   5.993   7.582   5.175
 9805TIP3   OH229357   5.777   2.267   1.767
 9805TIP3    H129358   5.781   2.227   1.680
 9805TIP3    H229359   5.722   2.209   1.818
 9806TIP3   OH229360   7.494   7.528   1.499
 9806TIP3    H129361   7.500   7.438   1.468
 9806TIP3    H229362   7.418   7.528   1.557
 9807TIP3   OH229363   4.464   0.834   6.727
 9807TIP3    H129364   4.437   0.844   6.819
 9807TIP3    H229365   4.401   0.772   6.691
 9808TIP3   OH229366   1.373   6.148   3.115
 9808TIP3    H129367   1.384   6.174   3.023
 9808TIP3    H229368   1.280   6.129   3.123
 9809TIP3   OH229369   6.116   1.678   2.767
 9809TIP3    H129370   6.115   1.681   2.671
 9809TIP3    H229371   6.027   1.705   2.792
 9810TIP3   OH229372   2.560   3.345   3.097
 9810TIP3    H129373   2.555   3.440   3.096
 9810TIP3    H229374   2.583   3.321   3.007
 9811TIP3   OH229375   5.029   6.871   3.137
 9811TIP3    H129376   5.020   6.964   3.158
 9811TIP3    H229377   5.032   6.828   3.222
 9812TIP3   OH229378   7.395   3.564   5.067
 9812TIP3    H129379   7.407   3.470   5.084
 9812TIP3    H229380   7.301   3.574   5.057
 9813TIP3   OH229381   5.191   7.411   5.307
 9813TIP3    H129382   5.251   7.479   5.276
 9813TIP3    H229383   5.229   7.380   5.389
 9814TIP3   OH229384   4.172   7.345   2.004
 9814TIP3    H129385   4.267   7.356   1.993
 9814TIP3    H229386   4.153   7.260   1.964
 9815TIP3   OH229387   8.080   6.329   6.019
 9815TIP3    H129388   8.053   6.348   6.109
 9815TIP3    H229389   8.169   6.295   6.028
 9816TIP3   OH229390   1.852   1.576   2.255
 9816TIP3    H129391   1.802   1.507   2.301
 9816TIP3    H229392   1.815   1.658   2.287
 9817TIP3   OH229393   0.348   6.545   2.222
 9817TIP3    H129394   0.312   6.633   2.215
 9817TIP3    H229395   0.430   6.549   2.174
 9818TIP3   OH229396   1.556   5.127   5.721
 9818TIP3    H129397   1.466   5.160   5.728
 9818TIP3    H229398   1.546   5.037   5.690
 9819TIP3   OH229399   3.391   6.135   2.111
 9819TIP3    H129400   3.473   6.101   2.147
 9819TIP3    H229401   3.415   6.166   2.023
 9820TIP3   OH229402   4.764   6.869   2.059
 9820TIP3    H129403   4.859   6.870   2.069
 9820TIP3    H229404   4.731   6.847   2.146
 9821TIP3   OH229405   3.804   2.357   3.354
 9821TIP3    H129406   3.777   2.406   3.276
 9821TIP3    H229407   3.756   2.398   3.426
 9822TIP3   OH229408   0.544   1.472   4.759
 9822TIP3    H129409   0.466   1.430   4.723
 9822TIP3    H229410   0.517   1.503   4.846
 9823TIP3   OH229411   5.507   1.215   0.834
 9823TIP3    H129412   5.443   1.148   0.858
 9823TIP3    H229413   5.592   1.174   0.854
 9824TIP3   OH229414   4.447   1.114   6.732
 9824TIP3    H129415   4.352   1.125   6.728
 9824TIP3    H229416   4.461   1.020   6.719
 9825TIP3   OH229417   5.536   3.879   5.514
 9825TIP3    H129418   5.470   3.947   5.504
 9825TIP3    H229419   5.578   3.897   5.598
 9826TIP3   OH229420   4.236   5.665   5.802
 9826TIP3    H129421   4.315   5.614   5.820
 9826TIP3    H229422   4.191   5.616   5.733
 9827TIP3   OH229423   0.488   3.042   0.036
 9827TIP3    H129424   0.424   3.101  -0.004
 9827TIP3    H229425   0.544   3.099   0.087
 9828TIP3   OH229426   3.585   3.983   2.689
 9828TIP3    H129427   3.613   3.892   2.679
 9828TIP3    H229428   3.535   4.002   2.610
 9829TIP3   OH229429   8.097   2.437   5.848
 9829TIP3    H129430   8.137   2.493   5.781
 9829TIP3    H229431   8.162   2.369   5.865
 9830TIP3   OH229432   2.258   6.456   5.831
 9830TIP3    H129433   2.174   6.487   5.866
 9830TIP3    H229434   2.273   6.372   5.876
 9831TIP3   OH229435   1.673   4.575   0.011
 9831TIP3    H129436   1.726   4.647  -0.023
 9831TIP3    H229437   1.736   4.512   0.045
 9832TIP3   OH229438   4.772   0.941   1.355
 9832TIP3    H129439   4.824   0.902   1.425
 9832TIP3    H229440   4.686   0.953   1.393
 9833TIP3   OH229441   0.777   7.298   3.492
 9833TIP3    H129442   0.721   7.376   3.492
 9833TIP3    H229443   0.715   7.225   3.483
 9834TIP3   OH229444   0.498   4.901   4.868
 9834TIP3    H129445   0.434   4.926   4.934
 9834TIP3    H229446   0.520   4.810   4.889
 9835TIP3   OH229447   7.835   5.288   5.943
 9835TIP3    H129448   7.810   5.381   5.936
 9835TIP3    H229449   7.757   5.240   5.916
 9836TIP3   OH229450   1.793   7.058   2.203
 9836TIP3    H129451   1.778   7.004   2.126
 9836TIP3    H229452   1.718   7.041   2.260
 9837TIP3   OH229453   7.609   0.269   3.017
 9837TIP3    H129454   7.516   0.254   2.998
 9837TIP3    H229455   7.639   0.325   2.946
 9838TIP3   OH229456   1.652   7.049   4.134
 9838TIP3    H129457   1.625   6.959   4.113
 9838TIP3    H229458   1.628   7.099   4.056
 9839TIP3   OH229459   6.017   4.606   3.453
 9839TIP3    H129460   6.045   4.520   3.482
 9839TIP3    H229461   5.937   4.590   3.403
 9840TIP3   OH229462   2.522   6.571   5.261
 9840TIP3    H129463   2.583   6.562   5.187
 9840TIP3    H229464   2.439   6.596   5.220
 9841TIP3   OH229465   3.228   7.281   0.620
 9841TIP3    H129466   3.161   7.243   0.564
 9841TIP3    H229467   3.216   7.375   0.611
 9842TIP3   OH229468   0.029   2.040   0.446
 9842TIP3    H129469   0.001   1.995   0.367
 9842TIP3    H229470   0.112   1.999   0.469
 9843TIP3   OH229471   5.411   5.466   2.758
 9843TIP3    H129472   5.479   5.407   2.725
 9843TIP3    H229473   5.396   5.437   2.848
 9844TIP3   OH229474   0.236   0.654   0.822
 9844TIP3    H129475   0.236   0.697   0.736
 9844TIP3    H229476   0.303   0.700   0.871
 9845TIP3   OH229477   7.985   6.218   0.242
 9845TIP3    H129478   8.025   6.241   0.158
 9845TIP3    H229479   7.967   6.302   0.284
 9846TIP3   OH229480   6.069   6.271   2.431
 9846TIP3    H129481   6.022   6.220   2.365
 9846TIP3    H229482   6.051   6.226   2.513
 9847TIP3   OH229483   7.714   0.967   6.046
 9847TIP3    H129484   7.624   0.966   6.079
 9847TIP3    H229485   7.719   0.890   5.988
 9848TIP3   OH229486   2.418   0.219   5.909
 9848TIP3    H129487   2.347   0.265   5.864
 9848TIP3    H229488   2.405   0.239   6.001
 9849TIP3   OH229489   2.756   4.331   0.507
 9849TIP3    H129490   2.845   4.340   0.541
 9849TIP3    H229491   2.765   4.277   0.428
 9850TIP3   OH229492   3.910   5.083   0.102
 9850TIP3    H129493   3.895   5.135   0.180
 9850TIP3    H229494   3.991   5.036   0.119
 9851TIP3   OH229495   5.180   2.600   5.103
 9851TIP3    H129496   5.098   2.553   5.087
 9851TIP3    H229497   5.153   2.686   5.134
 9852TIP3   OH229498   4.771   2.454   4.872
 9852TIP3    H129499   4.695   2.477   4.819
 9852TIP3    H229500   4.738   2.450   4.962
 9853TIP3   OH229501   4.214   4.930   0.467
 9853TIP3    H129502   4.306   4.954   0.477
 9853TIP3    H229503   4.182   4.917   0.556
 9854TIP3   OH229504   5.741   3.506   3.713
 9854TIP3    H129505   5.652   3.527   3.742
 9854TIP3    H229506   5.738   3.412   3.694
 9855TIP3   OH229507   2.815   6.077   3.533
 9855TIP3    H129508   2.831   6.058   3.440
 9855TIP3    H229509   2.900   6.107   3.565
 9856TIP3   OH229510   1.210   6.924   2.542
 9856TIP3    H129511   1.153   6.934   2.466
 9856TIP3    H229512   1.151   6.905   2.615
 9857TIP3   OH229513   3.713   1.727   3.756
 9857TIP3    H129514   3.637   1.754   3.704
 9857TIP3    H229515   3.774   1.691   3.691
 9858TIP3   OH229516   5.272   2.547   2.039
 9858TIP3    H129517   5.355   2.589   2.063
 9858TIP3    H229518   5.219   2.552   2.118
 9859TIP3   OH229519   5.650   2.902   4.351
 9859TIP3    H129520   5.651   2.931   4.260
 9859TIP3    H229521   5.567   2.936   4.386
 9860TIP3   OH229522   3.897   6.419   0.956
 9860TIP3    H129523   3.977   6.395   0.908
 9860TIP3    H229524   3.894   6.514   0.951
 9861TIP3   OH229525   4.045   1.926   1.877
 9861TIP3    H129526   3.955   1.954   1.863
 9861TIP3    H229527   4.096   2.007   1.873
 9862TIP3   OH229528   3.673   1.710   4.026
 9862TIP3    H129529   3.699   1.694   3.935
 9862TIP3    H229530   3.615   1.786   4.022
 9863TIP3   OH229531   3.526   2.773   4.009
 9863TIP3    H129532   3.528   2.725   4.091
 9863TIP3    H229533   3.464   2.725   3.954
 9864TIP3   OH229534   8.028   2.195   0.364
 9864TIP3    H129535   8.004   2.288   0.362
 9864TIP3    H229536   8.116   2.194   0.402
 9865TIP3   OH229537   8.252   0.063   0.029
 9865TIP3    H129538   8.300   0.129  -0.022
 9865TIP3    H229539   8.270   0.085   0.120
 9866TIP3   OH229540   6.635   4.530   1.063
 9866TIP3    H129541   6.562   4.591   1.061
 9866TIP3    H229542   6.711   4.583   1.039
 9867TIP3   OH229543   7.361   1.986   3.064
 9867TIP3    H129544   7.442   2.030   3.038
 9867TIP3    H229545   7.322   2.045   3.129
 9868TIP3   OH229546   3.583   3.324   2.672
 9868TIP3    H129547   3.551   3.289   2.756
 9868TIP3    H229548   3.654   3.264   2.647
 9869TIP3   OH229549   2.509   0.302   0.953
 9869TIP3    H129550   2.433   0.350   0.985
 9869TIP3    H229551   2.554   0.364   0.896
 9870TIP3   OH229552   7.461   2.120   6.150
 9870TIP3    H129553   7.407   2.183   6.196
 9870TIP3    H229554   7.427   2.035   6.176
 9871TIP3   OH229555   2.068   4.253   0.019
 9871TIP3    H129556   1.988   4.289   0.055
 9871TIP3    H229557   2.093   4.184   0.080
 9872TIP3   OH229558   0.777   6.887   1.580
 9872TIP3    H129559   0.846   6.846   1.527
 9872TIP3    H229560   0.807   6.978   1.590
 9873TIP3   OH229561   5.595   7.448   4.331
 9873TIP3    H129562   5.682   7.481   4.353
 9873TIP3    H229563   5.567   7.401   4.409
 9874TIP3   OH229564   0.040   0.704   4.107
 9874TIP3    H129565   0.077   0.648   4.039
 9874TIP3    H229566   0.112   0.717   4.170
 9875TIP3   OH229567   5.079   5.349   0.609
 9875TIP3    H129568   5.052   5.439   0.590
 9875TIP3    H229569   5.015   5.318   0.674
 9876TIP3   OH229570   4.189   2.307   2.297
 9876TIP3    H129571   4.108   2.355   2.316
 9876TIP3    H229572   4.163   2.241   2.233
 9877TIP3   OH229573   6.090   2.369   0.743
 9877TIP3    H129574   5.996   2.351   0.749
 9877TIP3    H229575   6.104   2.444   0.801
 9878TIP3   OH229576   4.852   0.672   0.937
 9878TIP3    H129577   4.825   0.581   0.948
 9878TIP3    H229578   4.793   0.722   0.994
 9879TIP3   OH229579   6.566   7.279   6.733
 9879TIP3    H129580   6.518   7.216   6.680
 9879TIP3    H229581   6.583   7.232   6.815
 9880TIP3   OH229582   8.107   0.570   5.327
 9880TIP3    H129583   8.153   0.553   5.245
 9880TIP3    H229584   8.027   0.615   5.301
 9881TIP3   OH229585   7.427   5.105   1.389
 9881TIP3    H129586   7.387   5.018   1.397
 9881TIP3    H229587   7.454   5.127   1.478
 9882TIP3   OH229588   3.671   4.052   4.519
 9882TIP3    H129589   3.634   4.102   4.446
 9882TIP3    H229590   3.603   3.987   4.541
 9883TIP3   OH229591   2.318   6.432   1.821
 9883TIP3    H129592   2.309   6.384   1.739
 9883TIP3    H229593   2.374   6.507   1.799
 9884TIP3   OH229594   7.863   6.324   1.243
 9884TIP3    H129595   7.928   6.338   1.312
 9884TIP3    H229596   7.914   6.302   1.165
 9885TIP3   OH229597   4.735   5.025   6.271
 9885TIP3    H129598   4.675   4.992   6.338
 9885TIP3    H229599   4.811   5.056   6.319
 9886TIP3   OH229600   3.498   3.645   3.551
 9886TIP3    H129601   3.492   3.729   3.597
 9886TIP3    H229602   3.588   3.643   3.518
 9887TIP3   OH229603   1.624   6.085   2.156
 9887TIP3    H129604   1.667   6.028   2.092
 9887TIP3    H229605   1.531   6.070   2.143
 9888TIP3   OH229606   6.564   3.122   5.222
 9888TIP3    H129607   6.580   3.206   5.178
 9888TIP3    H229608   6.599   3.056   5.162
 9889TIP3   OH229609   7.382   1.331   1.616
 9889TIP3    H129610   7.302   1.279   1.604
 9889TIP3    H229611   7.352   1.413   1.655
 9890TIP3   OH229612   2.476   3.243   3.334
 9890TIP3    H129613   2.465   3.149   3.319
 9890TIP3    H229614   2.525   3.274   3.257
 9891TIP3   OH229615   7.252   2.243   4.802
 9891TIP3    H129616   7.346   2.261   4.794
 9891TIP3    H229617   7.214   2.272   4.720
 9892TIP3   OH229618   0.446   0.994   3.957
 9892TIP3    H129619   0.366   1.004   3.905
 9892TIP3    H229620   0.510   1.050   3.913
 9893TIP3   OH229621   1.994   7.144   0.090
 9893TIP3    H129622   1.960   7.129   0.001
 9893TIP3    H229623   1.946   7.221   0.121
 9894TIP3   OH229624   0.685   7.214   3.977
 9894TIP3    H129625   0.701   7.123   4.004
 9894TIP3    H229626   0.590   7.224   3.983
 9895TIP3   OH229627   4.396   6.038   0.746
 9895TIP3    H129628   4.445   6.110   0.787
 9895TIP3    H229629   4.336   6.081   0.686
 9896TIP3   OH229630   1.346   3.101   3.593
 9896TIP3    H129631   1.357   3.162   3.666
 9896TIP3    H229632   1.262   3.058   3.611
 9897TIP3   OH229633   4.810   6.788   5.475
 9897TIP3    H129634   4.897   6.751   5.460
 9897TIP3    H229635   4.792   6.769   5.567
 9898TIP3   OH229636   0.038   2.013   3.608
 9898TIP3    H129637   0.102   2.043   3.543
 9898TIP3    H229638   0.052   1.918   3.614
 9899TIP3   OH229639   7.783   2.779   0.638
 9899TIP3    H129640   7.769   2.730   0.719
 9899TIP3    H229641   7.878   2.794   0.635
 9900TIP3   OH229642   6.349   0.206   5.908
 9900TIP3    H129643   6.354   0.153   5.988
 9900TIP3    H229644   6.431   0.188   5.862
 9901TIP3   OH229645   6.167   0.498   1.385
 9901TIP3    H129646   6.107   0.566   1.415
 9901TIP3    H229647   6.147   0.422   1.441
 9902TIP3   OH229648   1.652   6.267   0.744
 9902TIP3    H129649   1.698   6.326   0.684
 9902TIP3    H229650   1.717   6.200   0.766
 9903TIP3   OH229651   2.737   5.961   5.003
 9903TIP3    H129652   2.647   5.992   5.016
 9903TIP3    H229653   2.727   5.868   4.981
 9904TIP3   OH229654   4.919   3.056   4.767
 9904TIP3    H129655   4.936   2.971   4.806
 9904TIP3    H229656   4.886   3.110   4.839
 9905TIP3   OH229657   1.898   7.477   1.302
 9905TIP3    H129658   1.966   7.457   1.366
 9905TIP3    H229659   1.909   7.570   1.283
 9906TIP3   OH229660   7.402   2.399   4.329
 9906TIP3    H129661   7.399   2.490   4.300
 9906TIP3    H229662   7.493   2.373   4.314
 9907TIP3   OH229663   4.152   5.659   3.208
 9907TIP3    H129664   4.088   5.727   3.186
 9907TIP3    H229665   4.112   5.578   3.176
 9908TIP3   OH229666   6.650   3.257   1.234
 9908TIP3    H129667   6.628   3.166   1.254
 9908TIP3    H229668   6.676   3.294   1.318
 9909TIP3   OH229669   2.868   7.668   2.182
 9909TIP3    H129670   2.849   7.736   2.247
 9909TIP3    H229671   2.951   7.630   2.211
 9910TIP3   OH229672   3.007   4.168   4.119
 9910TIP3    H129673   2.956   4.137   4.044
 9910TIP3    H229674   2.959   4.244   4.151
 9911TIP3   OH229675   0.152   6.573   6.632
 9911TIP3    H129676   0.215   6.529   6.575
 9911TIP3    H229677   0.202   6.591   6.712
 9912TIP3   OH229678   7.377   1.656   1.499
 9912TIP3    H129679   7.345   1.696   1.419
 9912TIP3    H229680   7.298   1.623   1.543
 9913TIP3   OH229681   4.985   5.842   1.905
 9913TIP3    H129682   5.051   5.889   1.855
 9913TIP3    H229683   4.955   5.772   1.847
 9914TIP3   OH229684   4.709   3.508   6.148
 9914TIP3    H129685   4.682   3.466   6.230
 9914TIP3    H229686   4.639   3.485   6.086
 9915TIP3   OH229687   4.337   0.270   2.164
 9915TIP3    H129688   4.428   0.288   2.140
 9915TIP3    H229689   4.315   0.339   2.226
 9916TIP3   OH229690   1.328   4.264   4.822
 9916TIP3    H129691   1.237   4.250   4.800
 9916TIP3    H229692   1.330   4.351   4.862
 9917TIP3   OH229693   5.692   1.325   6.559
 9917TIP3    H129694   5.699   1.321   6.654
 9917TIP3    H229695   5.700   1.417   6.537
 9918TIP3   OH229696   7.031   6.483   0.196
 9918TIP3    H129697   6.989   6.569   0.198
 9918TIP3    H229698   7.124   6.501   0.186
 9919TIP3   OH229699   2.899   6.806   4.480
 9919TIP3    H129700   2.972   6.858   4.446
 9919TIP3    H229701   2.828   6.869   4.492
 9920TIP3   OH229702   7.702   7.321   4.611
 9920TIP3    H129703   7.782   7.317   4.664
 9920TIP3    H229704   7.684   7.229   4.590
 9921TIP3   OH229705   1.187   3.728   1.231
 9921TIP3    H129706   1.270   3.762   1.264
 9921TIP3    H229707   1.211   3.657   1.172
 9922TIP3   OH229708   6.115   2.180   4.540
 9922TIP3    H129709   6.114   2.204   4.632
 9922TIP3    H229710   6.139   2.260   4.494
 9923TIP3   OH229711   1.505   7.393   2.905
 9923TIP3    H129712   1.595   7.425   2.898
 9923TIP3    H229713   1.457   7.466   2.944
 9924TIP3   OH229714   0.236   3.836   5.483
 9924TIP3    H129715   0.221   3.811   5.392
 9924TIP3    H229716   0.326   3.869   5.484
 9925TIP3   OH229717   2.484   6.926   6.565
 9925TIP3    H129718   2.485   6.852   6.625
 9925TIP3    H229719   2.398   6.966   6.577
 9926TIP3   OH229720   0.836   4.887   2.555
 9926TIP3    H129721   0.859   4.968   2.601
 9926TIP3    H229722   0.839   4.911   2.463
 9927TIP3   OH229723   0.235   7.039   4.976
 9927TIP3    H129724   0.198   7.123   5.002
 9927TIP3    H229725   0.266   7.054   4.886
 9928TIP3   OH229726   2.705   5.859   6.303
 9928TIP3    H129727   2.638   5.831   6.240
 9928TIP3    H229728   2.678   5.947   6.330
 9929TIP3   OH229729   0.699   7.799   3.915
 9929TIP3    H129730   0.750   7.719   3.906
 9929TIP3    H229731   0.635   7.779   3.984
 9930TIP3   OH229732   4.107   4.435   3.618
 9930TIP3    H129733   4.053   4.471   3.688
 9930TIP3    H229734   4.130   4.347   3.648
 9931TIP3   OH229735   0.669   4.537   5.253
 9931TIP3    H129736   0.668   4.466   5.316
 9931TIP3    H229737   0.699   4.613   5.303
 9932TIP3   OH229738   6.327   3.684   4.876
 9932TIP3    H129739   6.317   3.600   4.921
 9932TIP3    H229740   6.238   3.718   4.870
 9933TIP3   OH229741   2.455   5.540   5.622
 9933TIP3    H129742   2.539   5.586   5.629
 9933TIP3    H229743   2.405   5.591   5.558
 9934TIP3   OH229744   6.350   5.792   2.026
 9934TIP3    H129745   6.427   5.837   2.059
 9934TIP3    H229746   6.384   5.727   1.964
 9935TIP3   OH229747   6.231   5.443   2.347
 9935TIP3    H129748   6.235   5.436   2.443
 9935TIP3    H229749   6.205   5.355   2.318
 9936TIP3   OH229750   3.069   3.192   4.844
 9936TIP3    H129751   3.032   3.219   4.928
 9936TIP3    H229752   3.058   3.268   4.787
 9937TIP3   OH229753   5.787   1.946   6.390
 9937TIP3    H129754   5.800   1.965   6.482
 9937TIP3    H229755   5.695   1.967   6.373
 9938TIP3   OH229756   0.831   7.596   4.726
 9938TIP3    H129757   0.857   7.524   4.783
 9938TIP3    H229758   0.741   7.575   4.700
 9939TIP3   OH229759   4.006   4.203   4.514
 9939TIP3    H129760   4.010   4.251   4.432
 9939TIP3    H229761   3.952   4.257   4.571
 9940TIP3   OH229762   3.109   6.029   0.554
 9940TIP3    H129763   3.095   6.123   0.557
 9940TIP3    H229764   3.204   6.019   0.555
 9941TIP3   OH229765   0.287   1.537   1.987
 9941TIP3    H129766   0.219   1.595   1.953
 9941TIP3    H229767   0.363   1.594   1.999
 9942TIP3   OH229768   1.087   6.141   1.579
 9942TIP3    H129769   1.162   6.118   1.633
 9942TIP3    H229770   1.095   6.086   1.501
 9943TIP3   OH229771   5.091   0.061   0.570
 9943TIP3    H129772   5.089  -0.033   0.549
 9943TIP3    H229773   5.184   0.082   0.572
 9944TIP3   OH229774   7.027   5.909   4.058
 9944TIP3    H129775   7.060   5.819   4.063
 9944TIP3    H229776   6.934   5.899   4.040
 9945TIP3   OH229777   4.448   7.316   1.915
 9945TIP3    H129778   4.444   7.248   1.848
 9945TIP3    H229779   4.514   7.284   1.977
 9946TIP3   OH229780   4.681   1.612   3.090
 9946TIP3    H129781   4.613   1.596   3.024
 9946TIP3    H229782   4.635   1.657   3.161
 9947TIP3   OH229783   8.279   2.229   2.438
 9947TIP3    H129784   8.327   2.250   2.519
 9947TIP3    H229785   8.227   2.307   2.421
 9948TIP3   OH229786   6.708   7.275   1.220
 9948TIP3    H129787   6.678   7.214   1.153
 9948TIP3    H229788   6.658   7.355   1.203
 9949TIP3   OH229789   1.649   5.227   2.388
 9949TIP3    H129790   1.661   5.259   2.478
 9949TIP3    H229791   1.676   5.135   2.393
 9950TIP3   OH229792   4.812   6.002   1.672
 9950TIP3    H129793   4.831   6.070   1.609
 9950TIP3    H229794   4.718   6.007   1.686
 9951TIP3   OH229795   6.395   6.859   5.676
 9951TIP3    H129796   6.481   6.871   5.716
 9951TIP3    H229797   6.366   6.947   5.654
 9952TIP3   OH229798   1.423   2.701   3.608
 9952TIP3    H129799   1.372   2.624   3.631
 9952TIP3    H229800   1.452   2.685   3.518
 9953TIP3   OH229801   6.444   3.963   4.472
 9953TIP3    H129802   6.499   3.976   4.549
 9953TIP3    H229803   6.412   3.873   4.481
 9954TIP3   OH229804   6.315   3.172   4.667
 9954TIP3    H129805   6.284   3.116   4.596
 9954TIP3    H229806   6.376   3.232   4.625
 9955TIP3   OH229807   3.821   3.391   4.654
 9955TIP3    H129808   3.915   3.385   4.641
 9955TIP3    H229809   3.800   3.482   4.633
 9956TIP3   OH229810   4.784   3.624   1.474
 9956TIP3    H129811   4.843   3.674   1.418
 9956TIP3    H229812   4.790   3.534   1.442
 9957TIP3   OH229813   8.054   2.690   3.395
 9957TIP3    H129814   7.978   2.633   3.387
 9957TIP3    H229815   8.111   2.645   3.457
 9958TIP3   OH229816   0.082   0.378   3.453
 9958TIP3    H129817   0.095   0.286   3.477
 9958TIP3    H229818   0.019   0.376   3.381
 9959TIP3   OH229819   4.412   2.516   2.473
 9959TIP3    H129820   4.462   2.568   2.411
 9959TIP3    H229821   4.399   2.432   2.429
 9960TIP3   OH229822   3.028   1.196   5.237
 9960TIP3    H129823   3.031   1.273   5.180
 9960TIP3    H229824   3.112   1.152   5.221
 9961TIP3   OH229825   6.497   1.005   6.033
 9961TIP3    H129826   6.474   1.015   6.125
 9961TIP3    H229827   6.420   1.036   5.985
 9962TIP3   OH229828   4.543   6.947   0.921
 9962TIP3    H129829   4.505   6.893   0.991
 9962TIP3    H229830   4.599   7.010   0.967
 9963TIP3   OH229831   7.662   5.812   4.499
 9963TIP3    H129832   7.698   5.778   4.417
 9963TIP3    H229833   7.578   5.851   4.474
 9964TIP3   OH229834   0.167   1.281   4.939
 9964TIP3    H129835   0.208   1.203   4.976
 9964TIP3    H229836   0.096   1.248   4.884
 9965TIP3   OH229837   5.584   6.391   0.865
 9965TIP3    H129838   5.636   6.461   0.827
 9965TIP3    H229839   5.542   6.431   0.942
 9966TIP3   OH229840   6.674   2.711   1.819
 9966TIP3    H129841   6.698   2.620   1.805
 9966TIP3    H229842   6.692   2.727   1.912
 9967TIP3   OH229843   7.794   2.571   5.136
 9967TIP3    H129844   7.831   2.604   5.054
 9967TIP3    H229845   7.779   2.650   5.189
 9968TIP3   OH229846   4.013   5.536   2.565
 9968TIP3    H129847   3.932   5.577   2.535
 9968TIP3    H229848   3.986   5.477   2.635
 9969TIP3   OH229849   4.373   3.829   5.740
 9969TIP3    H129850   4.281   3.804   5.730
 9969TIP3    H229851   4.372   3.925   5.737
 9970TIP3   OH229852   4.121   6.861   4.070
 9970TIP3    H129853   4.040   6.908   4.052
 9970TIP3    H229854   4.139   6.878   4.163
 9971TIP3   OH229855   0.835   0.460   6.154
 9971TIP3    H129856   0.897   0.462   6.081
 9971TIP3    H229857   0.806   0.369   6.159
 9972TIP3   OH229858   5.946   6.065   3.908
 9972TIP3    H129859   5.906   6.051   3.993
 9972TIP3    H229860   5.885   6.027   3.845
 9973TIP3   OH229861   2.690   6.972   6.374
 9973TIP3    H129862   2.639   6.993   6.452
 9973TIP3    H229863   2.632   6.918   6.321
 9974TIP3   OH229864   6.316   5.294   4.326
 9974TIP3    H129865   6.253   5.310   4.255
 9974TIP3    H229866   6.401   5.295   4.283
 9975TIP3   OH229867   3.293   2.149   0.960
 9975TIP3    H129868   3.365   2.128   0.900
 9975TIP3    H229869   3.252   2.227   0.922
 9976TIP3   OH229870   4.190   4.039   4.175
 9976TIP3    H129871   4.139   4.106   4.221
 9976TIP3    H229872   4.221   4.083   4.095
 9977TIP3   OH229873   6.095   1.909   1.732
 9977TIP3    H129874   6.048   1.882   1.654
 9977TIP3    H229875   6.148   1.833   1.756
 9978TIP3   OH229876   2.397   6.701   6.008
 9978TIP3    H129877   2.460   6.732   5.943
 9978TIP3    H229878   2.423   6.610   6.024
 9979TIP3   OH229879   5.525   5.625   4.530
 9979TIP3    H129880   5.440   5.661   4.554
 9979TIP3    H229881   5.588   5.686   4.568
 9980TIP3   OH229882   6.144   5.761   6.156
 9980TIP3    H129883   6.190   5.794   6.078
 9980TIP3    H229884   6.053   5.750   6.127
 9981TIP3   OH229885   7.796   0.044   6.220
 9981TIP3    H129886   7.726  -0.017   6.245
 9981TIP3    H229887   7.752   0.129   6.214
 9982TIP3   OH229888   1.167   7.662   0.040
 9982TIP3    H129889   1.202   7.606  -0.030
 9982TIP3    H229890   1.175   7.751   0.006
 9983TIP3   OH229891   8.050   3.834   6.594
 9983TIP3    H129892   8.050   3.758   6.536
 9983TIP3    H229893   8.112   3.812   6.663
 9984TIP3   OH229894   0.599   1.727   4.500
 9984TIP3    H129895   0.567   1.812   4.470
 9984TIP3    H229896   0.558   1.714   4.585
 9985TIP3   OH229897   7.161   3.303   6.519
 9985TIP3    H129898   7.086   3.256   6.483
 9985TIP3    H229899   7.229   3.296   6.452
 9986TIP3   OH229900   5.824   2.105   4.747
 9986TIP3    H129901   5.765   2.113   4.671
 9986TIP3    H229902   5.911   2.122   4.711
 9987TIP3   OH229903   0.810   7.706   1.480
 9987TIP3    H129904   0.903   7.707   1.504
 9987TIP3    H229905   0.805   7.646   1.406
 9988TIP3   OH229906   8.104   7.377   1.493
 9988TIP3    H129907   8.150   7.341   1.569
 9988TIP3    H229908   8.109   7.472   1.506
 9989TIP3   OH229909   2.645   7.042   5.826
 9989TIP3    H129910   2.664   6.951   5.849
 9989TIP3    H229911   2.569   7.037   5.769
 9990TIP3   OH229912   8.033   1.947   0.284
 9990TIP3    H129913   8.016   2.040   0.301
 9990TIP3    H229914   7.951   1.903   0.309
 9991TIP3   OH229915   2.030   5.206   4.692
 9991TIP3    H129916   1.941   5.233   4.714
 9991TIP3    H229917   2.069   5.284   4.651
 9992TIP3   OH229918   8.216   5.262   2.258
 9992TIP3    H129919   8.128   5.254   2.295
 9992TIP3    H229920   8.247   5.348   2.288
 9993TIP3   OH229921   3.199   4.012   3.232
 9993TIP3    H129922   3.250   3.940   3.270
 9993TIP3    H229923   3.126   4.024   3.292
 9994TIP3   OH229924   0.288   0.398   6.757
 9994TIP3    H129925   0.354   0.439   6.700
 9994TIP3    H229926   0.211   0.453   6.748
 9995TIP3   OH229927   3.718   1.722   3.360
 9995TIP3    H129928   3.714   1.627   3.347
 9995TIP3    H229929   3.780   1.753   3.293
 9996TIP3   OH229930   7.395   3.719   4.208
 9996TIP3    H129931   7.456   3.664   4.159
 9996TIP3    H229932   7.404   3.690   4.299
 9997TIP3   OH229933   1.140   1.958   4.735
 9997TIP3    H129934   1.201   1.964   4.662
 9997TIP3    H229935   1.135   1.864   4.755
 9998TIP3   OH229936   7.992   4.339   0.436
 9998TIP3    H129937   8.031   4.269   0.488
 9998TIP3    H229938   7.911   4.361   0.482
 9999TIP3   OH229939   6.284   7.454   5.157
 9999TIP3    H129940   6.291   7.546   5.132
 9999TIP3    H229941   6.372   7.419   5.142
10000TIP3   OH229942   1.166   6.260   4.669
10000TIP3    H129943   1.125   6.345   4.649
10000TIP3    H229944   1.260   6.276   4.658
10001TIP3   OH229945   7.775   7.567   3.348
10001TIP3    H129946   7.815   7.545   3.264
10001TIP3    H229947   7.805   7.657   3.366
10002TIP3   OH229948   5.998   7.432   1.426
10002TIP3    H129949   6.070   7.494   1.441
10002TIP3    H229950   6.022   7.385   1.347
10003TIP3   OH229951   2.238   3.166   1.434
10003TIP3    H129952   2.315   3.221   1.420
10003TIP3    H229953   2.181   3.219   1.490
10004TIP3   OH229954   6.804   2.408   4.818
10004TIP3    H129955   6.881   2.357   4.792
10004TIP3    H229956   6.832   2.499   4.808
10005TIP3   OH229957   0.040   5.170   4.061
10005TIP3    H129958   0.056   5.109   4.134
10005TIP3    H229959   0.122   5.218   4.053
10006TIP3   OH229960   7.624   5.882   2.887
10006TIP3    H129961   7.553   5.843   2.938
10006TIP3    H229962   7.589   5.966   2.858
10007TIP3   OH229963   5.666   1.204   0.565
10007TIP3    H129964   5.679   1.111   0.549
10007TIP3    H229965   5.580   1.210   0.606
10008TIP3   OH229966   7.148   6.498   4.939
10008TIP3    H129967   7.122   6.513   5.030
10008TIP3    H229968   7.168   6.584   4.905
10009TIP3   OH229969   7.824   7.098   2.071
10009TIP3    H129970   7.804   7.096   2.164
10009TIP3    H229971   7.749   7.143   2.031
10010TIP3   OH229972   6.128   1.409   0.523
10010TIP3    H129973   6.146   1.485   0.467
10010TIP3    H229974   6.051   1.434   0.574
10011TIP3   OH229975   0.602   2.201   1.968
10011TIP3    H129976   0.531   2.149   1.931
10011TIP3    H229977   0.602   2.281   1.915
10012TIP3   OH229978   2.474   0.051   3.641
10012TIP3    H129979   2.493  -0.043   3.637
10012TIP3    H229980   2.383   0.056   3.669
10013TIP3   OH229981   6.931   3.710   5.252
10013TIP3    H129982   6.863   3.665   5.201
10013TIP3    H229983   6.884   3.745   5.327
10014TIP3   OH229984   5.772   0.761   4.948
10014TIP3    H129985   5.697   0.799   4.902
10014TIP3    H229986   5.813   0.703   4.883
10015TIP3   OH229987   5.933   6.285   1.317
10015TIP3    H129988   5.876   6.212   1.341
10015TIP3    H229989   5.953   6.271   1.224
10016TIP3   OH229990   0.890   0.752   6.106
10016TIP3    H129991   0.944   0.681   6.071
10016TIP3    H229992   0.800   0.722   6.091
10017TIP3   OH229993   6.161   4.358   3.589
10017TIP3    H129994   6.113   4.321   3.514
10017TIP3    H229995   6.152   4.292   3.658
10018TIP3   OH229996   0.090   5.381   5.648
10018TIP3    H129997   0.182   5.374   5.675
10018TIP3    H229998   0.074   5.300   5.600
10019TIP3   OH229999   1.460   4.492   6.749
10019TIP3    H130000   1.504   4.415   6.784
10019TIP3    H230001   1.494   4.565   6.801
10020TIP3   OH230002   2.910   7.762   2.864
10020TIP3    H130003   2.883   7.841   2.818
10020TIP3    H230004   2.904   7.784   2.957
10021TIP3   OH230005   0.515   2.620   2.537
10021TIP3    H130006   0.577   2.567   2.487
10021TIP3    H230007   0.542   2.609   2.628
10022TIP3   OH230008   1.723   2.148   6.470
10022TIP3    H130009   1.791   2.212   6.449
10022TIP3    H230010   1.734   2.080   6.403
10023TIP3   OH230011   8.030   1.009   2.004
10023TIP3    H130012   7.983   0.941   2.051
10023TIP3    H230013   7.962   1.070   1.973
10024TIP3   OH230014   7.288   5.441   3.596
10024TIP3    H130015   7.269   5.494   3.518
10024TIP3    H230016   7.382   5.425   3.592
10025TIP3   OH230017   1.518   3.705   3.117
10025TIP3    H130018   1.471   3.708   3.200
10025TIP3    H230019   1.587   3.771   3.125
10026TIP3   OH230020   1.504   7.197   0.412
10026TIP3    H130021   1.541   7.284   0.428
10026TIP3    H230022   1.569   7.152   0.359
10027TIP3   OH230023   6.382   3.284   5.520
10027TIP3    H130024   6.319   3.300   5.451
10027TIP3    H230025   6.465   3.270   5.474
10028TIP3   OH230026   1.660   2.547   6.351
10028TIP3    H130027   1.738   2.498   6.377
10028TIP3    H230028   1.587   2.501   6.394
10029TIP3   OH230029   5.512   5.255   1.057
10029TIP3    H130030   5.480   5.223   0.973
10029TIP3    H230031   5.433   5.283   1.104
10030TIP3   OH230032   6.668   1.926   0.731
10030TIP3    H130033   6.681   1.929   0.636
10030TIP3    H230034   6.755   1.909   0.767
10031TIP3   OH230035   7.539   4.135   2.208
10031TIP3    H130036   7.595   4.195   2.159
10031TIP3    H230037   7.594   4.059   2.225
10032TIP3   OH230038   0.442   2.603   5.960
10032TIP3    H130039   0.415   2.690   5.929
10032TIP3    H230040   0.436   2.610   6.056
10033TIP3   OH230041   0.552   5.829   6.093
10033TIP3    H130042   0.485   5.762   6.085
10033TIP3    H230043   0.610   5.815   6.018
10034TIP3   OH230044   1.043   7.563   2.069
10034TIP3    H130045   1.014   7.497   2.132
10034TIP3    H230046   1.021   7.647   2.110
10035TIP3   OH230047   2.348   2.355   6.346
10035TIP3    H130048   2.270   2.318   6.388
10035TIP3    H230049   2.398   2.280   6.317
10036TIP3   OH230050   3.724   1.066   5.961
10036TIP3    H130051   3.816   1.080   5.980
10036TIP3    H230052   3.719   1.066   5.865
10037TIP3   OH230053   6.282   5.480   0.248
10037TIP3    H130054   6.373   5.456   0.236
10037TIP3    H230055   6.284   5.549   0.314
10038TIP3   OH230056   0.204   5.956   1.970
10038TIP3    H130057   0.179   5.986   2.057
10038TIP3    H230058   0.296   5.930   1.979
10039TIP3   OH230059   1.682   6.414   5.466
10039TIP3    H130060   1.718   6.377   5.547
10039TIP3    H230061   1.589   6.426   5.484
10040TIP3   OH230062   1.198   6.494   3.556
10040TIP3    H130063   1.208   6.550   3.479
10040TIP3    H230064   1.143   6.421   3.526
10041TIP3   OH230065   6.976   1.038   4.296
10041TIP3    H130066   7.048   1.039   4.233
10041TIP3    H230067   6.899   1.063   4.245
10042TIP3   OH230068   3.961   1.918   3.193
10042TIP3    H130069   3.874   1.958   3.182
10042TIP3    H230070   4.008   1.979   3.251
10043TIP3   OH230071   1.692   0.166   5.736
10043TIP3    H130072   1.728   0.250   5.709
10043TIP3    H230073   1.726   0.103   5.672
10044TIP3   OH230074   7.368   2.717   6.639
10044TIP3    H130075   7.354   2.631   6.599
10044TIP3    H230076   7.280   2.751   6.656
10045TIP3   OH230077   7.487   5.135   1.700
10045TIP3    H130078   7.539   5.059   1.724
10045TIP3    H230079   7.551   5.203   1.679
10046TIP3   OH230080   2.700   1.742   0.493
10046TIP3    H130081   2.666   1.790   0.418
10046TIP3    H230082   2.633   1.677   0.513
10047TIP3   OH230083   2.362   1.186   2.537
10047TIP3    H130084   2.405   1.121   2.592
10047TIP3    H230085   2.389   1.164   2.448
10048TIP3   OH230086   3.046   3.843   1.612
10048TIP3    H130087   2.967   3.794   1.638
10048TIP3    H230088   3.117   3.780   1.623
10049TIP3   OH230089   5.650   2.698   5.066
10049TIP3    H130090   5.639   2.739   5.152
10049TIP3    H230091   5.744   2.700   5.051
10050TIP3   OH230092   3.997   4.640   1.733
10050TIP3    H130093   4.075   4.681   1.769
10050TIP3    H230094   3.961   4.705   1.672
10051TIP3   OH230095   6.604   4.511   1.363
10051TIP3    H130096   6.597   4.518   1.268
10051TIP3    H230097   6.560   4.430   1.385
10052TIP3   OH230098   7.631   1.450   2.251
10052TIP3    H130099   7.652   1.451   2.344
10052TIP3    H230100   7.705   1.406   2.210
10053TIP3   OH230101   0.567   3.643   4.691
10053TIP3    H130102   0.536   3.595   4.768
10053TIP3    H230103   0.633   3.704   4.725
10054TIP3   OH230104   4.580   6.508   3.539
10054TIP3    H130105   4.565   6.562   3.461
10054TIP3    H230106   4.656   6.548   3.581
10055TIP3   OH230107   3.396   5.839   0.488
10055TIP3    H130108   3.347   5.779   0.545
10055TIP3    H230109   3.436   5.902   0.547
10056TIP3   OH230110   3.752   4.279   3.318
10056TIP3    H130111   3.825   4.281   3.381
10056TIP3    H230112   3.777   4.212   3.255
10057TIP3   OH230113   7.953   0.552   6.227
10057TIP3    H130114   7.994   0.589   6.149
10057TIP3    H230115   7.860   0.575   6.219
10058TIP3   OH230116   4.426   4.820   3.440
10058TIP3    H130117   4.425   4.728   3.413
10058TIP3    H230118   4.369   4.864   3.376
10059TIP3   OH230119   5.383   6.979   3.793
10059TIP3    H130120   5.296   6.992   3.832
10059TIP3    H230121   5.432   6.930   3.860
10060TIP3   OH230122   3.964   0.621   5.835
10060TIP3    H130123   3.876   0.634   5.801
10060TIP3    H230124   3.994   0.539   5.794
10061TIP3   OH230125   0.356   2.879   5.873
10061TIP3    H130126   0.322   2.956   5.919
10061TIP3    H230127   0.406   2.914   5.800
10062TIP3   OH230128   1.990   5.090   3.004
10062TIP3    H130129   2.002   5.182   2.979
10062TIP3    H230130   1.970   5.045   2.922
10063TIP3   OH230131   0.481   0.427   5.991
10063TIP3    H130132   0.556   0.368   5.981
10063TIP3    H230133   0.417   0.394   5.929
10064TIP3   OH230134   4.770   2.274   5.821
10064TIP3    H130135   4.813   2.343   5.872
10064TIP3    H230136   4.841   2.212   5.801
10065TIP3   OH230137   6.097   1.770   6.083
10065TIP3    H130138   6.086   1.852   6.132
10065TIP3    H230139   6.009   1.750   6.050
10066TIP3   OH230140   0.477   2.474   6.671
10066TIP3    H130141   0.466   2.560   6.629
10066TIP3    H230142   0.524   2.494   6.752
10067TIP3   OH230143   5.738   5.876   4.392
10067TIP3    H130144   5.771   5.838   4.473
10067TIP3    H230145   5.690   5.806   4.350
10068TIP3   OH230146   0.370   5.578   4.054
10068TIP3    H130147   0.378   5.652   4.115
10068TIP3    H230148   0.334   5.616   3.974
10069TIP3   OH230149   3.208   1.984   0.490
10069TIP3    H130150   3.152   1.964   0.565
10069TIP3    H230151   3.276   1.917   0.492
10070TIP3   OH230152   5.902   2.497   1.368
10070TIP3    H130153   5.810   2.522   1.376
10070TIP3    H230154   5.911   2.464   1.279
10071TIP3   OH230155   3.680   4.262   5.687
10071TIP3    H130156   3.748   4.328   5.671
10071TIP3    H230157   3.600   4.314   5.698
10072TIP3   OH230158   4.987   2.420   5.029
10072TIP3    H130159   4.933   2.411   4.951
10072TIP3    H230160   5.039   2.339   5.032
10073TIP3   OH230161   6.841   2.674   6.120
10073TIP3    H130162   6.796   2.612   6.178
10073TIP3    H230163   6.784   2.680   6.043
10074TIP3   OH230164   1.989   3.424   6.755
10074TIP3    H130165   2.029   3.507   6.782
10074TIP3    H230166   2.026   3.408   6.668
10075TIP3   OH230167   0.993   6.184   3.310
10075TIP3    H130168   1.018   6.117   3.247
10075TIP3    H230169   0.985   6.137   3.393
10076TIP3   OH230170   2.816   0.303   0.144
10076TIP3    H130171   2.740   0.359   0.127
10076TIP3    H230172   2.853   0.287   0.057
10077TIP3   OH230173   2.739   5.757   0.495
10077TIP3    H130174   2.788   5.810   0.558
10077TIP3    H230175   2.665   5.812   0.470
10078TIP3   OH230176   8.043   5.469   3.378
10078TIP3    H130177   8.040   5.563   3.397
10078TIP3    H230178   8.062   5.428   3.463
10079TIP3   OH230179   6.852   2.484   5.690
10079TIP3    H130180   6.893   2.467   5.775
10079TIP3    H230181   6.846   2.580   5.685
10080TIP3   OH230182   3.289   0.082   3.304
10080TIP3    H130183   3.278  -0.010   3.282
10080TIP3    H230184   3.262   0.087   3.396
10081TIP3   OH230185   1.614   2.798   6.256
10081TIP3    H130186   1.635   2.706   6.275
10081TIP3    H230187   1.587   2.834   6.341
10082TIP3   OH230188   3.214   4.702   2.795
10082TIP3    H130189   3.296   4.677   2.837
10082TIP3    H230190   3.237   4.772   2.735
10083TIP3   OH230191   0.125   7.355   1.520
10083TIP3    H130192   0.210   7.394   1.500
10083TIP3    H230193   0.122   7.276   1.466
10084TIP3   OH230194   0.937   3.780   0.074
10084TIP3    H130195   0.999   3.710   0.096
10084TIP3    H230196   0.856   3.734   0.051
10085TIP3   OH230197   5.264   2.412   5.595
10085TIP3    H130198   5.210   2.431   5.517
10085TIP3    H230199   5.346   2.457   5.578
10086TIP3   OH230200   7.823   4.581   1.966
10086TIP3    H130201   7.737   4.568   1.926
10086TIP3    H230202   7.852   4.493   1.990
10087TIP3   OH230203   7.568   1.352   4.116
10087TIP3    H130204   7.498   1.288   4.123
10087TIP3    H230205   7.525   1.432   4.084
10088TIP3   OH230206   5.343   3.388   5.195
10088TIP3    H130207   5.381   3.345   5.271
10088TIP3    H230208   5.304   3.468   5.230
10089TIP3   OH230209   6.436   2.482   1.381
10089TIP3    H130210   6.428   2.417   1.311
10089TIP3    H230211   6.518   2.528   1.361
10090TIP3   OH230212   7.485   6.595   5.850
10090TIP3    H130213   7.470   6.581   5.944
10090TIP3    H230214   7.409   6.555   5.807
10091TIP3   OH230215   1.487   0.093   4.801
10091TIP3    H130216   1.437   0.065   4.878
10091TIP3    H230217   1.462   0.031   4.732
10092TIP3   OH230218   3.810   5.034   3.913
10092TIP3    H130219   3.814   4.989   3.828
10092TIP3    H230220   3.770   4.970   3.972
10093TIP3   OH230221   1.791   0.915   5.773
10093TIP3    H130222   1.699   0.931   5.790
10093TIP3    H230223   1.800   0.918   5.678
10094TIP3   OH230224   3.188   5.161   2.209
10094TIP3    H130225   3.113   5.102   2.206
10094TIP3    H230226   3.163   5.229   2.271
10095TIP3   OH230227   8.247   0.207   5.285
10095TIP3    H130228   8.188   0.251   5.224
10095TIP3    H230229   8.234   0.253   5.368
10096TIP3   OH230230   7.669   3.276   5.328
10096TIP3    H130231   7.616   3.353   5.348
10096TIP3    H230232   7.612   3.201   5.348
10097TIP3   OH230233   4.830   1.128   1.135
10097TIP3    H130234   4.809   1.071   1.209
10097TIP3    H230235   4.812   1.216   1.166
10098TIP3   OH230236   3.920   5.387   6.387
10098TIP3    H130237   3.844   5.348   6.431
10098TIP3    H230238   3.882   5.441   6.318
10099TIP3   OH230239   2.192   4.717   4.329
10099TIP3    H130240   2.236   4.695   4.411
10099TIP3    H230241   2.108   4.754   4.355
10100TIP3   OH230242   4.352   2.137   4.237
10100TIP3    H130243   4.416   2.180   4.294
10100TIP3    H230244   4.271   2.185   4.252
10101TIP3   OH230245   3.628   1.474   4.640
10101TIP3    H130246   3.578   1.543   4.683
10101TIP3    H230247   3.564   1.407   4.619
10102TIP3   OH230248   2.190   5.077   2.599
10102TIP3    H130249   2.177   5.098   2.506
10102TIP3    H230250   2.270   5.123   2.623
10103TIP3   OH230251   6.293   5.880   6.467
10103TIP3    H130252   6.308   5.856   6.558
10103TIP3    H230253   6.199   5.868   6.454
10104TIP3   OH230254   2.258   7.019   3.435
10104TIP3    H130255   2.334   7.010   3.492
10104TIP3    H230256   2.211   7.096   3.467
10105TIP3   OH230257   2.446   6.617   4.871
10105TIP3    H130258   2.520   6.575   4.915
10105TIP3    H230259   2.379   6.624   4.938
10106TIP3   OH230260   7.789   5.125   6.673
10106TIP3    H130261   7.698   5.109   6.650
10106TIP3    H230262   7.785   5.180   6.751
10107TIP3   OH230263   5.312   6.992   5.816
10107TIP3    H130264   5.253   7.007   5.742
10107TIP3    H230265   5.398   7.017   5.784
10108TIP3   OH230266   0.909   3.386   2.241
10108TIP3    H130267   0.943   3.366   2.328
10108TIP3    H230268   0.856   3.311   2.218
10109TIP3   OH230269   1.394   1.883   5.694
10109TIP3    H130270   1.460   1.919   5.753
10109TIP3    H230271   1.443   1.823   5.637
10110TIP3   OH230272   0.990   4.070   5.738
10110TIP3    H130273   1.059   4.007   5.758
10110TIP3    H230274   0.909   4.018   5.743
10111TIP3   OH230275   2.101   5.610   0.475
10111TIP3    H130276   2.153   5.661   0.538
10111TIP3    H230277   2.010   5.630   0.498
10112TIP3   OH230278   3.433   4.260   1.195
10112TIP3    H130279   3.380   4.211   1.132
10112TIP3    H230280   3.442   4.201   1.270
10113TIP3   OH230281   6.224   2.739   6.549
10113TIP3    H130282   6.297   2.713   6.607
10113TIP3    H230283   6.149   2.746   6.608
10114TIP3   OH230284   5.050   1.100   0.976
10114TIP3    H130285   4.977   1.089   1.038
10114TIP3    H230286   5.059   1.015   0.934
10115TIP3   OH230287   1.279   0.238   4.153
10115TIP3    H130288   1.262   0.281   4.069
10115TIP3    H230289   1.314   0.306   4.209
10116TIP3   OH230290   6.706   1.554   5.944
10116TIP3    H130291   6.714   1.485   6.009
10116TIP3    H230292   6.793   1.559   5.904
10117TIP3   OH230293   3.536   1.112   1.976
10117TIP3    H130294   3.509   1.075   2.060
10117TIP3    H230295   3.555   1.204   1.996
10118TIP3   OH230296   7.790   2.029   6.705
10118TIP3    H130297   7.765   2.032   6.612
10118TIP3    H230298   7.707   2.030   6.752
10119TIP3   OH230299   4.163   4.142   3.615
10119TIP3    H130300   4.165   4.061   3.665
10119TIP3    H230301   4.247   4.184   3.633
10120TIP3   OH230302   3.621   6.076   0.133
10120TIP3    H130303   3.715   6.089   0.119
10120TIP3    H230304   3.616   6.016   0.207
10121TIP3   OH230305   0.789   0.863   5.481
10121TIP3    H130306   0.742   0.820   5.410
10121TIP3    H230307   0.852   0.798   5.512
10122TIP3   OH230308   3.142   2.878   2.678
10122TIP3    H130309   3.070   2.816   2.683
10122TIP3    H230310   3.174   2.870   2.588
10123TIP3   OH230311   4.778   1.110   3.611
10123TIP3    H130312   4.722   1.111   3.534
10123TIP3    H230313   4.735   1.050   3.671
10124TIP3   OH230314   4.006   5.403   4.199
10124TIP3    H130315   4.060   5.325   4.186
10124TIP3    H230316   3.916   5.369   4.202
10125TIP3   OH230317   3.648   3.329   4.875
10125TIP3    H130318   3.718   3.335   4.811
10125TIP3    H230319   3.576   3.380   4.837
10126TIP3   OH230320   1.885   1.081   5.972
10126TIP3    H130321   1.838   1.160   5.946
10126TIP3    H230322   1.847   1.011   5.918
10127TIP3   OH230323   7.263   4.213   2.993
10127TIP3    H130324   7.220   4.207   3.078
10127TIP3    H230325   7.194   4.244   2.933
10128TIP3   OH230326   2.362   2.901   0.611
10128TIP3    H130327   2.370   2.819   0.564
10128TIP3    H230328   2.378   2.878   0.703
10129TIP3   OH230329   0.895   2.594   3.366
10129TIP3    H130330   0.850   2.512   3.386
10129TIP3    H230331   0.826   2.656   3.345
10130TIP3   OH230332   1.092   5.195   0.448
10130TIP3    H130333   1.179   5.180   0.485
10130TIP3    H230334   1.105   5.266   0.385
10131TIP3   OH230335   0.601   4.174   6.634
10131TIP3    H130336   0.597   4.115   6.709
10131TIP3    H230337   0.693   4.197   6.627
10132TIP3   OH230338   0.815   6.864   0.331
10132TIP3    H130339   0.795   6.942   0.279
10132TIP3    H230340   0.731   6.817   0.337
10133TIP3   OH230341   5.254   4.815   2.299
10133TIP3    H130342   5.289   4.736   2.342
10133TIP3    H230343   5.159   4.805   2.303
10134TIP3   OH230344   5.192   6.903   6.443
10134TIP3    H130345   5.256   6.908   6.514
10134TIP3    H230346   5.108   6.890   6.487
10135TIP3   OH230347   7.991   6.612   4.283
10135TIP3    H130348   8.011   6.566   4.202
10135TIP3    H230349   7.923   6.559   4.325
10136TIP3   OH230350   0.070   6.324   4.159
10136TIP3    H130351   0.012   6.261   4.200
10136TIP3    H230352   0.011   6.394   4.128
10137TIP3   OH230353   0.946   4.049   6.042
10137TIP3    H130354   0.855   4.057   6.071
10137TIP3    H230355   0.946   4.086   5.954
10138TIP3   OH230356   7.712   4.317   5.439
10138TIP3    H130357   7.674   4.234   5.408
10138TIP3    H230358   7.678   4.382   5.377
10139TIP3   OH230359   4.151   6.921   6.515
10139TIP3    H130360   4.232   6.962   6.484
10139TIP3    H230361   4.086   6.990   6.513
10140TIP3   OH230362   7.126   7.781   3.962
10140TIP3    H130363   7.151   7.705   4.014
10140TIP3    H230364   7.208   7.824   3.939
10141TIP3   OH230365   6.520   1.984   3.496
10141TIP3    H130366   6.450   1.965   3.558
10141TIP3    H230367   6.479   1.976   3.410
10142TIP3   OH230368   4.923   2.942   2.465
10142TIP3    H130369   4.870   2.990   2.527
10142TIP3    H230370   4.877   2.859   2.452
10143TIP3   OH230371   3.174   4.092   4.866
10143TIP3    H130372   3.083   4.121   4.861
10143TIP3    H230373   3.172   4.003   4.831
10144TIP3   OH230374   7.721   1.065   2.658
10144TIP3    H130375   7.643   1.066   2.603
10144TIP3    H230376   7.729   1.156   2.689
10145TIP3   OH230377   1.161   7.576   5.291
10145TIP3    H130378   1.110   7.496   5.306
10145TIP3    H230379   1.095   7.644   5.280
10146TIP3   OH230380   5.884   4.640   2.070
10146TIP3    H130381   5.826   4.630   2.145
10146TIP3    H230382   5.846   4.712   2.020
10147TIP3   OH230383   5.590   2.956   1.763
10147TIP3    H130384   5.660   2.928   1.706
10147TIP3    H230385   5.510   2.918   1.725
10148TIP3   OH230386   2.231   6.894   0.784
10148TIP3    H130387   2.255   6.985   0.766
10148TIP3    H230388   2.148   6.882   0.737
10149TIP3   OH230389   0.126   1.871   4.662
10149TIP3    H130390   0.079   1.946   4.698
10149TIP3    H230391   0.063   1.799   4.667
10150TIP3   OH230392   2.626   3.554   4.671
10150TIP3    H130393   2.574   3.532   4.749
10150TIP3    H230394   2.609   3.647   4.656
10151TIP3   OH230395   8.094   4.173   1.608
10151TIP3    H130396   8.185   4.187   1.585
10151TIP3    H230397   8.048   4.166   1.524
10152TIP3   OH230398   1.832   5.193   3.373
10152TIP3    H130399   1.919   5.205   3.335
10152TIP3    H230400   1.818   5.271   3.427
10153TIP3   OH230401   6.296   5.064   1.142
10153TIP3    H130402   6.202   5.057   1.158
10153TIP3    H230403   6.337   5.038   1.225
10154TIP3   OH230404   1.512   2.544   1.018
10154TIP3    H130405   1.572   2.543   1.092
10154TIP3    H230406   1.505   2.453   0.991
10155TIP3   OH230407   3.284   0.822   4.517
10155TIP3    H130408   3.235   0.767   4.580
10155TIP3    H230409   3.340   0.760   4.471
10156TIP3   OH230410   2.638   1.181   5.074
10156TIP3    H130411   2.584   1.135   5.010
10156TIP3    H230412   2.576   1.224   5.132
10157TIP3   OH230413   5.850   5.438   0.439
10157TIP3    H130414   5.815   5.515   0.393
10157TIP3    H230415   5.773   5.392   0.470
10158TIP3   OH230416   2.316   6.054   0.662
10158TIP3    H130417   2.315   6.036   0.756
10158TIP3    H230418   2.226   6.077   0.641
10159TIP3   OH230419   5.152   2.872   2.298
10159TIP3    H130420   5.101   2.895   2.376
10159TIP3    H230421   5.205   2.797   2.326
10160TIP3   OH230422   5.859   0.145   2.365
10160TIP3    H130423   5.899   0.232   2.358
10160TIP3    H230424   5.766   0.162   2.373
10161TIP3   OH230425   6.784   3.842   2.972
10161TIP3    H130426   6.849   3.890   3.025
10161TIP3    H230427   6.715   3.906   2.957
10162TIP3   OH230428   5.251   3.862   6.581
10162TIP3    H130429   5.221   3.920   6.651
10162TIP3    H230430   5.270   3.920   6.508
10163TIP3   OH230431   1.746   5.829   1.661
10163TIP3    H130432   1.717   5.920   1.660
10163TIP3    H230433   1.797   5.820   1.580
10164TIP3   OH230434   5.044   6.802   3.437
10164TIP3    H130435   5.114   6.775   3.496
10164TIP3    H230436   5.038   6.731   3.372
10165TIP3   OH230437   6.632   0.321   6.720
10165TIP3    H130438   6.604   0.230   6.716
10165TIP3    H230439   6.591   0.362   6.644
10166TIP3   OH230440   3.064   3.829   3.056
10166TIP3    H130441   3.060   3.877   2.974
10166TIP3    H230442   3.121   3.882   3.112
10167TIP3   OH230443   4.661   2.142   3.964
10167TIP3    H130444   4.584   2.176   3.920
10167TIP3    H230445   4.637   2.054   3.991
10168TIP3   OH230446   5.309   4.207   0.474
10168TIP3    H130447   5.310   4.294   0.515
10168TIP3    H230448   5.279   4.148   0.543
10169TIP3   OH230449   5.028   4.563   2.713
10169TIP3    H130450   5.030   4.622   2.789
10169TIP3    H230451   4.982   4.613   2.646
10170TIP3   OH230452   5.683   2.513   4.767
10170TIP3    H130453   5.628   2.446   4.808
10170TIP3    H230454   5.752   2.530   4.831
10171TIP3   OH230455   4.398   3.269   4.896
10171TIP3    H130456   4.481   3.252   4.852
10171TIP3    H230457   4.333   3.266   4.826
10172TIP3   OH230458   3.415   1.427   1.267
10172TIP3    H130459   3.365   1.426   1.349
10172TIP3    H230460   3.496   1.473   1.289
10173TIP3   OH230461   7.424   7.393   4.188
10173TIP3    H130462   7.457   7.474   4.228
10173TIP3    H230463   7.347   7.370   4.239
10174TIP3   OH230464   1.711   3.146   6.643
10174TIP3    H130465   1.694   3.215   6.708
10174TIP3    H230466   1.667   3.069   6.678
10175TIP3   OH230467   4.260   3.056   2.540
10175TIP3    H130468   4.307   3.066   2.457
10175TIP3    H230469   4.286   3.132   2.592
10176TIP3   OH230470   0.394   6.220   1.762
10176TIP3    H130471   0.416   6.311   1.742
10176TIP3    H230472   0.331   6.225   1.833
10177TIP3   OH230473   1.758   1.459   2.633
10177TIP3    H130474   1.849   1.440   2.609
10177TIP3    H230475   1.706   1.413   2.567
10178TIP3   OH230476   4.072   2.952   3.083
10178TIP3    H130477   3.982   2.953   3.049
10178TIP3    H230478   4.102   2.863   3.068
10179TIP3   OH230479   6.867   6.472   1.079
10179TIP3    H130480   6.782   6.429   1.090
10179TIP3    H230481   6.931   6.401   1.085
10180TIP3   OH230482   3.390   5.046   3.072
10180TIP3    H130483   3.462   5.027   3.131
10180TIP3    H230484   3.340   4.965   3.068
10181TIP3   OH230485   0.347   4.974   2.048
10181TIP3    H130486   0.262   4.988   2.089
10181TIP3    H230487   0.404   5.040   2.089
10182TIP3   OH230488   3.929   7.802   4.104
10182TIP3    H130489   3.858   7.746   4.073
10182TIP3    H230490   3.971   7.833   4.024
10183TIP3   OH230491   5.388   1.241   6.670
10183TIP3    H130492   5.335   1.314   6.639
10183TIP3    H230493   5.471   1.250   6.622
10184TIP3   OH230494   3.718   6.862   1.066
10184TIP3    H130495   3.632   6.831   1.094
10184TIP3    H230496   3.727   6.949   1.107
10185TIP3   OH230497   4.769   0.273   5.235
10185TIP3    H130498   4.762   0.189   5.280
10185TIP3    H230499   4.703   0.269   5.166
10186TIP3   OH230500   2.925   3.392   6.730
10186TIP3    H130501   3.015   3.361   6.728
10186TIP3    H230502   2.910   3.420   6.820
10187TIP3   OH230503   2.522   2.532   1.402
10187TIP3    H130504   2.518   2.615   1.450
10187TIP3    H230505   2.438   2.526   1.357
10188TIP3   OH230506   2.635   5.697   4.944
10188TIP3    H130507   2.689   5.618   4.949
10188TIP3    H230508   2.552   5.666   4.907
10189TIP3   OH230509   6.324   2.420   6.464
10189TIP3    H130510   6.351   2.476   6.392
10189TIP3    H230511   6.405   2.398   6.509
10190TIP3   OH230512   4.792   3.773   5.406
10190TIP3    H130513   4.736   3.705   5.369
10190TIP3    H230514   4.732   3.830   5.455
10191TIP3   OH230515   1.373   5.803   1.703
10191TIP3    H130516   1.411   5.800   1.615
10191TIP3    H230517   1.438   5.758   1.758
10192TIP3   OH230518   5.355   1.167   6.114
10192TIP3    H130519   5.310   1.123   6.186
10192TIP3    H230520   5.385   1.250   6.151
10193TIP3   OH230521   5.940   2.844   4.316
10193TIP3    H130522   5.845   2.851   4.307
10193TIP3    H230523   5.972   2.833   4.227
10194TIP3   OH230524   4.046   4.321   4.263
10194TIP3    H130525   3.983   4.314   4.192
10194TIP3    H230526   4.125   4.355   4.221
10195TIP3   OH230527   3.357   3.395   2.212
10195TIP3    H130528   3.319   3.313   2.182
10195TIP3    H230529   3.309   3.463   2.165
10196TIP3   OH230530   6.730   4.280   1.179
10196TIP3    H130531   6.713   4.357   1.125
10196TIP3    H230532   6.660   4.219   1.158
10197TIP3   OH230533   2.733   0.717   1.537
10197TIP3    H130534   2.748   0.797   1.587
10197TIP3    H230535   2.639   0.718   1.518
10198TIP3   OH230536   6.034   3.081   6.540
10198TIP3    H130537   6.047   3.070   6.634
10198TIP3    H230538   6.123   3.086   6.504
10199TIP3   OH230539   6.375   0.692   4.718
10199TIP3    H130540   6.373   0.780   4.679
10199TIP3    H230541   6.367   0.633   4.644
10200TIP3   OH230542   5.967   3.331   1.537
10200TIP3    H130543   5.913   3.401   1.501
10200TIP3    H230544   5.977   3.353   1.629
10201TIP3   OH230545   7.681   2.973   6.030
10201TIP3    H130546   7.675   2.937   6.119
10201TIP3    H230547   7.727   2.905   5.980
10202TIP3   OH230548   2.621   3.820   4.791
10202TIP3    H130549   2.642   3.853   4.703
10202TIP3    H230550   2.705   3.791   4.826
10203TIP3   OH230551   0.508   4.775   2.856
10203TIP3    H130552   0.481   4.763   2.947
10203TIP3    H230553   0.552   4.860   2.854
10204TIP3   OH230554   0.548   3.683   5.994
10204TIP3    H130555   0.610   3.704   6.064
10204TIP3    H230556   0.544   3.587   5.994
10205TIP3   OH230557   2.191   7.789   4.877
10205TIP3    H130558   2.240   7.859   4.833
10205TIP3    H230559   2.105   7.790   4.836
10206TIP3   OH230560   7.193   6.309   4.525
10206TIP3    H130561   7.257   6.378   4.509
10206TIP3    H230562   7.134   6.312   4.449
10207TIP3   OH230563   1.561   3.427   4.615
10207TIP3    H130564   1.557   3.466   4.528
10207TIP3    H230565   1.596   3.497   4.671
10208TIP3   OH230566   3.874   0.249   0.969
10208TIP3    H130567   3.840   0.251   1.058
10208TIP3    H230568   3.969   0.252   0.980
10209TIP3   OH230569   4.492   5.037   1.290
10209TIP3    H130570   4.423   5.023   1.226
10209TIP3    H230571   4.479   4.968   1.356
10210TIP3   OH230572   1.536   4.620   4.410
10210TIP3    H130573   1.570   4.549   4.356
10210TIP3    H230574   1.544   4.699   4.356
10211TIP3   OH230575   1.205   2.583   3.075
10211TIP3    H130576   1.220   2.540   2.991
10211TIP3    H230577   1.159   2.518   3.127
10212TIP3   OH230578   3.705   5.247   3.439
10212TIP3    H130579   3.690   5.291   3.355
10212TIP3    H230580   3.660   5.301   3.503
10213TIP3   OH230581   1.859   4.154   0.644
10213TIP3    H130582   1.920   4.173   0.716
10213TIP3    H230583   1.907   4.094   0.587
10214TIP3   OH230584   3.764   7.315   0.040
10214TIP3    H130585   3.685   7.275   0.076
10214TIP3    H230586   3.830   7.303   0.108
10215TIP3   OH230587   6.265   0.840   3.236
10215TIP3    H130588   6.336   0.887   3.280
10215TIP3    H230589   6.292   0.833   3.145
10216TIP3   OH230590   1.621   1.148   2.524
10216TIP3    H130591   1.528   1.132   2.508
10216TIP3    H230592   1.633   1.130   2.617
10217TIP3   OH230593   1.962   0.868   5.534
10217TIP3    H130594   1.928   0.784   5.504
10217TIP3    H230595   2.049   0.848   5.569
10218TIP3   OH230596   3.731   1.956   4.550
10218TIP3    H130597   3.769   1.879   4.592
10218TIP3    H230598   3.685   1.920   4.473
10219TIP3   OH230599   1.308   0.687   0.074
10219TIP3    H130600   1.402   0.695   0.086
10219TIP3    H230601   1.270   0.747   0.139
10220TIP3   OH230602   1.522   7.360   1.426
10220TIP3    H130603   1.563   7.420   1.488
10220TIP3    H230604   1.593   7.302   1.397
10221TIP3   OH230605   2.362   1.061   0.358
10221TIP3    H130606   2.385   1.057   0.451
10221TIP3    H230607   2.357   0.970   0.331
10222TIP3   OH230608   2.993   2.969   1.025
10222TIP3    H130609   2.931   2.982   0.953
10222TIP3    H230610   3.024   3.057   1.045
10223TIP3   OH230611   2.056   6.195   1.622
10223TIP3    H130612   2.011   6.277   1.641
10223TIP3    H230613   2.113   6.216   1.548
10224TIP3   OH230614   4.045   2.628   3.292
10224TIP3    H130615   3.962   2.677   3.292
10224TIP3    H230616   4.055   2.598   3.382
10225TIP3   OH230617   7.356   6.235   5.951
10225TIP3    H130618   7.284   6.288   5.919
10225TIP3    H230619   7.386   6.281   6.030
10226TIP3   OH230620   6.902   3.226   3.649
10226TIP3    H130621   6.890   3.303   3.594
10226TIP3    H230622   6.868   3.153   3.597
10227TIP3   OH230623   2.860   2.522   6.040
10227TIP3    H130624   2.906   2.448   6.000
10227TIP3    H230625   2.843   2.493   6.129
10228TIP3   OH230626   4.569   4.309   2.514
10228TIP3    H130627   4.528   4.394   2.496
10228TIP3    H230628   4.657   4.331   2.543
10229TIP3   OH230629   5.567   1.837   2.396
10229TIP3    H130630   5.601   1.842   2.307
10229TIP3    H230631   5.482   1.794   2.388
10230TIP3   OH230632   5.144   1.394   1.629
10230TIP3    H130633   5.184   1.460   1.572
10230TIP3    H230634   5.139   1.315   1.575
10231TIP3   OH230635   6.996   5.341   1.417
10231TIP3    H130636   7.059   5.396   1.371
10231TIP3    H230637   7.015   5.252   1.388
10232TIP3   OH230638   1.440   5.980   0.500
10232TIP3    H130639   1.487   5.899   0.519
10232TIP3    H230640   1.389   5.998   0.579
10233TIP3   OH230641   6.145   5.560   3.613
10233TIP3    H130642   6.107   5.599   3.534
10233TIP3    H230643   6.128   5.466   3.604
10234TIP3   OH230644   6.801   5.653   5.342
10234TIP3    H130645   6.764   5.644   5.431
10234TIP3    H230646   6.751   5.591   5.289
10235TIP3   OH230647   2.544   4.963   1.031
10235TIP3    H130648   2.595   4.885   1.011
10235TIP3    H230649   2.511   4.993   0.947
10236TIP3   OH230650   7.808   0.273   3.443
10236TIP3    H130651   7.752   0.215   3.494
10236TIP3    H230652   7.894   0.268   3.486
10237TIP3   OH230653   4.133   7.763   4.316
10237TIP3    H130654   4.136   7.715   4.233
10237TIP3    H230655   4.062   7.826   4.304
10238TIP3   OH230656   4.228   3.233   0.191
10238TIP3    H130657   4.259   3.322   0.211
10238TIP3    H230658   4.143   3.227   0.236
10239TIP3   OH230659   2.498   2.079   5.338
10239TIP3    H130660   2.491   1.984   5.327
10239TIP3    H230661   2.552   2.108   5.264
10240TIP3   OH230662   1.661   4.189   4.157
10240TIP3    H130663   1.638   4.113   4.104
10240TIP3    H230664   1.747   4.216   4.125
10241TIP3   OH230665   3.188   3.803   2.677
10241TIP3    H130666   3.274   3.760   2.679
10241TIP3    H230667   3.144   3.762   2.602
10242TIP3   OH230668   2.342   0.983   2.838
10242TIP3    H130669   2.339   1.062   2.890
10242TIP3    H230670   2.423   0.989   2.788
10243TIP3   OH230671   3.785   0.098   0.747
10243TIP3    H130672   3.802   0.170   0.808
10243TIP3    H230673   3.793   0.138   0.660
10244TIP3   OH230674   3.874   3.218   2.356
10244TIP3    H130675   3.920   3.137   2.332
10244TIP3    H230676   3.842   3.202   2.445
10245TIP3   OH230677   0.746   0.818   1.921
10245TIP3    H130678   0.718   0.737   1.964
10245TIP3    H230679   0.696   0.820   1.839
10246TIP3   OH230680   6.466   7.076   4.203
10246TIP3    H130681   6.443   6.984   4.191
10246TIP3    H230682   6.557   7.082   4.174
10247TIP3   OH230683   6.617   0.839   4.775
10247TIP3    H130684   6.576   0.926   4.774
10247TIP3    H230685   6.545   0.779   4.757
10248TIP3   OH230686   4.037   2.466   5.182
10248TIP3    H130687   4.100   2.410   5.136
10248TIP3    H230688   3.952   2.434   5.153
10249TIP3   OH230689   0.712   1.498   4.358
10249TIP3    H130690   0.710   1.571   4.420
10249TIP3    H230691   0.638   1.442   4.384
10250TIP3   OH230692   4.418   4.903   0.130
10250TIP3    H130693   4.431   4.912   0.036
10250TIP3    H230694   4.483   4.961   0.169
10251TIP3   OH230695   8.265   7.210   1.672
10251TIP3    H130696   8.333   7.265   1.635
10251TIP3    H230697   8.258   7.238   1.764
10252TIP3   OH230698   0.161   0.433   5.918
10252TIP3    H130699   0.074   0.456   5.886
10252TIP3    H230700   0.222   0.487   5.867
10253TIP3   OH230701   1.794   3.805   5.881
10253TIP3    H130702   1.750   3.733   5.927
10253TIP3    H230703   1.879   3.814   5.925
10254TIP3   OH230704   5.788   6.124   6.721
10254TIP3    H130705   5.698   6.107   6.748
10254TIP3    H230706   5.836   6.135   6.803
10255TIP3   OH230707   4.628   3.744   2.909
10255TIP3    H130708   4.553   3.784   2.866
10255TIP3    H230709   4.651   3.805   2.979
10256TIP3   OH230710   2.065   0.105   4.261
10256TIP3    H130711   1.976   0.141   4.268
10256TIP3    H230712   2.117   0.177   4.224
10257TIP3   OH230713   4.051   5.187   0.524
10257TIP3    H130714   4.080   5.178   0.615
10257TIP3    H230715   4.099   5.120   0.476
10258TIP3   OH230716   4.651   3.941   1.048
10258TIP3    H130717   4.642   4.029   1.083
10258TIP3    H230718   4.692   3.953   0.963
10259TIP3   OH230719   6.778   2.614   1.469
10259TIP3    H130720   6.829   2.553   1.524
10259TIP3    H230721   6.803   2.701   1.500
10260TIP3   OH230722   2.712   6.685   1.356
10260TIP3    H130723   2.676   6.597   1.357
10260TIP3    H230724   2.793   6.679   1.407
10261TIP3   OH230725   6.397   0.668   1.854
10261TIP3    H130726   6.347   0.673   1.773
10261TIP3    H230727   6.417   0.575   1.865
10262TIP3   OH230728   5.510   3.271   2.065
10262TIP3    H130729   5.522   3.280   1.970
10262TIP3    H230730   5.415   3.278   2.077
10263TIP3   OH230731   1.085   4.315   0.278
10263TIP3    H130732   1.104   4.240   0.223
10263TIP3    H230733   0.990   4.311   0.293
10264TIP3   OH230734   2.145   5.113   5.468
10264TIP3    H130735   2.088   5.056   5.416
10264TIP3    H230736   2.170   5.059   5.544
10265TIP3   OH230737   5.069   6.597   3.262
10265TIP3    H130738   5.043   6.509   3.288
10265TIP3    H230739   5.165   6.594   3.261
10266TIP3   OH230740   7.323   0.265   3.538
10266TIP3    H130741   7.387   0.336   3.540
10266TIP3    H230742   7.370   0.192   3.497
10267TIP3   OH230743   5.667   6.193   0.038
10267TIP3    H130744   5.605   6.139   0.086
10267TIP3    H230745   5.693   6.261   0.100
10268TIP3   OH230746   7.117   4.789   4.842
10268TIP3    H130747   7.077   4.795   4.755
10268TIP3    H230748   7.046   4.758   4.898
10269TIP3   OH230749   0.628   1.822   2.922
10269TIP3    H130750   0.687   1.747   2.923
10269TIP3    H230751   0.592   1.823   2.833
10270TIP3   OH230752   4.048   4.874   4.037
10270TIP3    H130753   3.972   4.887   3.980
10270TIP3    H230754   4.030   4.791   4.082
10271TIP3   OH230755   0.613   3.735   1.963
10271TIP3    H130756   0.621   3.816   2.014
10271TIP3    H230757   0.678   3.677   2.000
10272TIP3   OH230758   1.801   2.059   1.819
10272TIP3    H130759   1.852   2.003   1.877
10272TIP3    H230760   1.727   2.004   1.793
10273TIP3   OH230761   7.015   7.460   1.105
10273TIP3    H130762   6.978   7.379   1.070
10273TIP3    H230763   6.948   7.526   1.090
10274TIP3   OH230764   6.213   0.323   4.463
10274TIP3    H130765   6.146   0.391   4.468
10274TIP3    H230766   6.242   0.325   4.371
10275TIP3   OH230767   2.496   0.994   1.140
10275TIP3    H130768   2.567   0.943   1.178
10275TIP3    H230769   2.418   0.964   1.185
10276TIP3   OH230770   4.910   3.347   4.407
10276TIP3    H130771   4.897   3.411   4.338
10276TIP3    H230772   4.903   3.262   4.363
10277TIP3   OH230773   0.076   7.712   6.245
10277TIP3    H130774   0.029   7.668   6.316
10277TIP3    H230775   0.036   7.678   6.165
10278TIP3   OH230776   6.238   1.404   2.387
10278TIP3    H130777   6.305   1.472   2.384
10278TIP3    H230778   6.223   1.381   2.295
10279TIP3   OH230779   3.819   3.215   0.236
10279TIP3    H130780   3.897   3.252   0.276
10279TIP3    H230781   3.809   3.129   0.277
10280TIP3   OH230782   3.971   7.557   4.941
10280TIP3    H130783   3.977   7.642   4.897
10280TIP3    H230784   4.028   7.499   4.891
10281TIP3   OH230785   7.842   0.045   0.230
10281TIP3    H130786   7.840   0.012   0.141
10281TIP3    H230787   7.865  -0.030   0.284
10282TIP3   OH230788   2.545   0.884   5.657
10282TIP3    H130789   2.601   0.854   5.728
10282TIP3    H230790   2.577   0.839   5.580
10283TIP3   OH230791   7.389   1.581   6.643
10283TIP3    H130792   7.454   1.628   6.696
10283TIP3    H230793   7.383   1.495   6.683
10284TIP3   OH230794   5.353   1.642   0.462
10284TIP3    H130795   5.370   1.734   0.443
10284TIP3    H230796   5.274   1.642   0.516
10285TIP3   OH230797   3.538   3.814   0.198
10285TIP3    H130798   3.508   3.740   0.144
10285TIP3    H230799   3.478   3.885   0.175
10286TIP3   OH230800   6.927   1.930   6.318
10286TIP3    H130801   6.985   1.896   6.387
10286TIP3    H230802   6.854   1.869   6.316
10287TIP3   OH230803   7.737   4.070   2.787
10287TIP3    H130804   7.800   4.134   2.756
10287TIP3    H230805   7.673   4.121   2.836
10288TIP3   OH230806   2.781   1.509   1.027
10288TIP3    H130807   2.844   1.462   0.971
10288TIP3    H230808   2.762   1.447   1.097
10289TIP3   OH230809   2.374   6.654   5.643
10289TIP3    H130810   2.469   6.642   5.641
10289TIP3    H230811   2.344   6.589   5.707
10290TIP3   OH230812   0.971   2.163   1.473
10290TIP3    H130813   1.066   2.174   1.460
10290TIP3    H230814   0.932   2.202   1.395
10291TIP3   OH230815   5.935   1.179   0.449
10291TIP3    H130816   5.904   1.133   0.528
10291TIP3    H230817   5.910   1.270   0.463
10292TIP3   OH230818   2.531   7.664   4.548
10292TIP3    H130819   2.475   7.622   4.613
10292TIP3    H230820   2.477   7.734   4.511
10293TIP3   OH230821   7.544   5.022   0.226
10293TIP3    H130822   7.529   4.995   0.316
10293TIP3    H230823   7.534   4.942   0.174
10294TIP3   OH230824   7.850   2.562   4.507
10294TIP3    H130825   7.867   2.644   4.461
10294TIP3    H230826   7.919   2.502   4.476
10295TIP3   OH230827   7.654   5.039   1.240
10295TIP3    H130828   7.628   5.073   1.154
10295TIP3    H230829   7.578   5.054   1.296
10296TIP3   OH230830   4.547   4.082   5.984
10296TIP3    H130831   4.471   4.025   5.972
10296TIP3    H230832   4.559   4.086   6.078
10297TIP3   OH230833   4.620   2.742   0.073
10297TIP3    H130834   4.665   2.659   0.056
10297TIP3    H230835   4.681   2.791   0.128
10298TIP3   OH230836   0.922   5.922   6.102
10298TIP3    H130837   0.995   5.973   6.068
10298TIP3    H230838   0.889   5.874   6.026
10299TIP3   OH230839   7.182   5.139   2.120
10299TIP3    H130840   7.171   5.076   2.048
10299TIP3    H230841   7.262   5.187   2.099
10300TIP3   OH230842   2.577   1.627   5.098
10300TIP3    H130843   2.510   1.575   5.142
10300TIP3    H230844   2.651   1.568   5.088
10301TIP3   OH230845   2.961   6.273   4.317
10301TIP3    H130846   2.915   6.252   4.399
10301TIP3    H230847   2.991   6.188   4.284
10302TIP3   OH230848   6.387   7.648   1.913
10302TIP3    H130849   6.435   7.724   1.881
10302TIP3    H230850   6.295   7.673   1.905
10303TIP3   OH230851   3.603   6.915   5.503
10303TIP3    H130852   3.540   6.845   5.489
10303TIP3    H230853   3.553   6.984   5.546
10304TIP3   OH230854   5.442   3.824   4.927
10304TIP3    H130855   5.362   3.852   4.882
10304TIP3    H230856   5.425   3.734   4.955
10305TIP3   OH230857   2.342   5.757   2.900
10305TIP3    H130858   2.414   5.804   2.942
10305TIP3    H230859   2.364   5.664   2.910
10306TIP3   OH230860   2.306   7.512   0.682
10306TIP3    H130861   2.269   7.459   0.611
10306TIP3    H230862   2.400   7.491   0.681
10307TIP3   OH230863   2.219   0.910   5.716
10307TIP3    H130864   2.181   0.940   5.799
10307TIP3    H230865   2.292   0.969   5.700
10308TIP3   OH230866   2.104   7.470   1.963
10308TIP3    H130867   2.151   7.504   1.887
10308TIP3    H230868   2.146   7.512   2.038
10309TIP3   OH230869   7.433   4.831   0.418
10309TIP3    H130870   7.386   4.749   0.400
10309TIP3    H230871   7.382   4.873   0.487
10310TIP3   OH230872   3.271   6.910   4.741
10310TIP3    H130873   3.228   6.994   4.723
10310TIP3    H230874   3.215   6.868   4.806
10311TIP3   OH230875   4.463   0.022   6.102
10311TIP3    H130876   4.471   0.106   6.057
10311TIP3    H230877   4.543   0.017   6.156
10312TIP3   OH230878   6.061   1.073   3.772
10312TIP3    H130879   5.997   1.083   3.843
10312TIP3    H230880   6.034   0.993   3.727
10313TIP3   OH230881   2.869   6.925   2.415
10313TIP3    H130882   2.907   6.994   2.361
10313TIP3    H230883   2.888   6.844   2.367
10314TIP3   OH230884   6.391   0.108   4.464
10314TIP3    H130885   6.357   0.116   4.375
10314TIP3    H230886   6.338   0.168   4.516
10315TIP3   OH230887   3.996   4.958   6.712
10315TIP3    H130888   3.973   4.925   6.799
10315TIP3    H230889   3.913   4.990   6.677
10316TIP3   OH230890   1.955   3.439   3.136
10316TIP3    H130891   2.024   3.449   3.071
10316TIP3    H230892   1.901   3.518   3.126
10317TIP3   OH230893   3.393   2.845   1.413
10317TIP3    H130894   3.328   2.780   1.441
10317TIP3    H230895   3.477   2.806   1.433
10318TIP3   OH230896   4.654   0.834   3.139
10318TIP3    H130897   4.618   0.903   3.084
10318TIP3    H230898   4.595   0.829   3.214
10319TIP3   OH230899   7.806   4.909   0.864
10319TIP3    H130900   7.723   4.867   0.887
10319TIP3    H230901   7.854   4.843   0.815
10320TIP3   OH230902   5.620   0.132   5.662
10320TIP3    H130903   5.707   0.136   5.702
10320TIP3    H230904   5.565   0.092   5.729
10321TIP3   OH230905   6.306   5.800   5.902
10321TIP3    H130906   6.346   5.720   5.936
10321TIP3    H230907   6.374   5.867   5.911
10322TIP3   OH230908   2.303   2.165   2.291
10322TIP3    H130909   2.376   2.116   2.254
10322TIP3    H230910   2.297   2.136   2.382
10323TIP3   OH230911   2.584   0.772   2.423
10323TIP3    H130912   2.636   0.719   2.484
10323TIP3    H230913   2.648   0.820   2.371
10324TIP3   OH230914   1.437   6.907   1.550
10324TIP3    H130915   1.470   6.994   1.572
10324TIP3    H230916   1.434   6.906   1.454
10325TIP3   OH230917   0.880   5.362   6.410
10325TIP3    H130918   0.810   5.425   6.395
10325TIP3    H230919   0.858   5.288   6.354
10326TIP3   OH230920   1.282   1.872   0.658
10326TIP3    H130921   1.211   1.847   0.717
10326TIP3    H230922   1.355   1.816   0.685
10327TIP3   OH230923   4.111   0.349   1.466
10327TIP3    H130924   4.100   0.254   1.469
10327TIP3    H230925   4.075   0.379   1.550
10328TIP3   OH230926   7.804   2.840   4.648
10328TIP3    H130927   7.879   2.843   4.589
10328TIP3    H230928   7.808   2.922   4.697
10329TIP3   OH230929   7.245   4.000   4.448
10329TIP3    H130930   7.307   3.995   4.374
10329TIP3    H230931   7.163   3.964   4.413
10330TIP3   OH230932   5.355   6.872   4.907
10330TIP3    H130933   5.353   6.922   4.988
10330TIP3    H230934   5.328   6.935   4.840
10331TIP3   OH230935   3.835   4.228   0.574
10331TIP3    H130936   3.789   4.290   0.630
10331TIP3    H230937   3.928   4.250   0.586
10332TIP3   OH230938   7.948   2.539   2.945
10332TIP3    H130939   7.877   2.492   2.988
10332TIP3    H230940   7.982   2.598   3.011
10333TIP3   OH230941   6.195   4.038   0.699
10333TIP3    H130942   6.143   4.118   0.693
10333TIP3    H230943   6.273   4.064   0.747
10334TIP3   OH230944   8.094   4.965   5.249
10334TIP3    H130945   8.076   5.041   5.303
10334TIP3    H230946   8.022   4.962   5.186
10335TIP3   OH230947   7.215   7.501   0.518
10335TIP3    H130948   7.182   7.463   0.437
10335TIP3    H230949   7.171   7.451   0.587
10336TIP3   OH230950   4.853   1.600   4.180
10336TIP3    H130951   4.920   1.569   4.240
10336TIP3    H230952   4.785   1.533   4.183
10337TIP3   OH230953   0.925   4.380   1.291
10337TIP3    H130954   0.907   4.329   1.370
10337TIP3    H230955   0.897   4.323   1.219
10338TIP3   OH230956   4.995   6.581   2.652
10338TIP3    H130957   4.940   6.513   2.691
10338TIP3    H230958   5.085   6.554   2.675
10339TIP3   OH230959   0.724   4.185   2.543
10339TIP3    H130960   0.723   4.146   2.456
10339TIP3    H230961   0.715   4.279   2.528
10340TIP3   OH230962   7.588   7.387   3.960
10340TIP3    H130963   7.547   7.350   4.039
10340TIP3    H230964   7.526   7.454   3.931
10341TIP3   OH230965   1.025   7.135   4.817
10341TIP3    H130966   1.012   7.091   4.901
10341TIP3    H230967   1.000   7.226   4.834
10342TIP3   OH230968   5.070   5.803   6.112
10342TIP3    H130969   5.052   5.841   6.198
10342TIP3    H230970   5.002   5.839   6.055
10343TIP3   OH230971   4.756   4.666   3.805
10343TIP3    H130972   4.666   4.699   3.806
10343TIP3    H230973   4.748   4.572   3.820
10344TIP3   OH230974   2.953   4.161   2.253
10344TIP3    H130975   2.984   4.252   2.247
10344TIP3    H230976   2.915   4.144   2.167
10345TIP3   OH230977   1.581   3.929   6.237
10345TIP3    H130978   1.517   3.999   6.248
10345TIP3    H230979   1.556   3.885   6.156
10346TIP3   OH230980   5.746   3.458   1.341
10346TIP3    H130981   5.752   3.533   1.282
10346TIP3    H230982   5.711   3.494   1.423
10347TIP3   OH230983   5.745   3.876   4.424
10347TIP3    H130984   5.754   3.943   4.357
10347TIP3    H230985   5.705   3.920   4.498
10348TIP3   OH230986   7.398   6.353   0.864
10348TIP3    H130987   7.329   6.359   0.798
10348TIP3    H230988   7.421   6.260   0.866
10349TIP3   OH230989   0.409   1.119   3.264
10349TIP3    H130990   0.468   1.091   3.194
10349TIP3    H230991   0.404   1.043   3.323
10350TIP3   OH230992   2.069   6.700   5.584
10350TIP3    H130993   2.155   6.661   5.573
10350TIP3    H230994   2.017   6.665   5.511
10351TIP3   OH230995   3.429   0.214   4.771
10351TIP3    H130996   3.523   0.214   4.785
10351TIP3    H230997   3.410   0.300   4.733
10352TIP3   OH230998   5.892   3.665   2.555
10352TIP3    H130999   5.831   3.602   2.517
10352TIP3    H231000   5.860   3.679   2.645
10353TIP3   OH231001   3.269   4.697   5.618
10353TIP3    H131002   3.213   4.627   5.585
10353TIP3    H231003   3.357   4.675   5.586
10354TIP3   OH231004   3.447   4.817   4.071
10354TIP3    H131005   3.353   4.802   4.077
10354TIP3    H231006   3.455   4.906   4.036
10355TIP3   OH231007   6.860   7.170   5.693
10355TIP3    H131008   6.909   7.162   5.774
10355TIP3    H231009   6.815   7.254   5.699
10356TIP3   OH231010   2.065   1.247   6.343
10356TIP3    H131011   1.978   1.258   6.381
10356TIP3    H231012   2.083   1.331   6.302
10357TIP3   OH231013   3.001   3.660   4.072
10357TIP3    H131014   3.046   3.657   4.156
10357TIP3    H231015   3.040   3.589   4.021
10358TIP3   OH231016   0.721   3.123   0.896
10358TIP3    H131017   0.681   3.208   0.878
10358TIP3    H231018   0.787   3.142   0.963
10359TIP3   OH231019   4.224   1.486   1.562
10359TIP3    H131020   4.212   1.562   1.618
10359TIP3    H231021   4.142   1.480   1.512
10360TIP3   OH231022   5.860   3.326   2.500
10360TIP3    H131023   5.849   3.285   2.587
10360TIP3    H231024   5.837   3.257   2.438
10361TIP3   OH231025   0.724   6.395   4.530
10361TIP3    H131026   0.812   6.431   4.547
10361TIP3    H231027   0.667   6.472   4.530
10362TIP3   OH231028   4.976   1.069   6.365
10362TIP3    H131029   5.064   1.106   6.367
10362TIP3    H231030   4.989   0.975   6.371
10363TIP3   OH231031   7.505   3.259   6.280
10363TIP3    H131032   7.474   3.312   6.207
10363TIP3    H231033   7.592   3.293   6.300
10364TIP3   OH231034   0.470   3.220   4.301
10364TIP3    H131035   0.548   3.275   4.307
10364TIP3    H231036   0.414   3.250   4.373
10365TIP3   OH231037   0.168   4.912   4.189
10365TIP3    H131038   0.121   4.830   4.173
10365TIP3    H231039   0.250   4.902   4.140
10366TIP3   OH231040   0.894   6.920   3.030
10366TIP3    H131041   0.808   6.955   3.051
10366TIP3    H231042   0.927   6.977   2.961
10367TIP3   OH231043   2.968   7.141   3.174
10367TIP3    H131044   2.945   7.181   3.090
10367TIP3    H231045   3.048   7.186   3.201
10368TIP3   OH231046   7.607   5.296   4.420
10368TIP3    H131047   7.630   5.341   4.338
10368TIP3    H231048   7.679   5.236   4.435
10369TIP3   OH231049   5.161   0.463   0.764
10369TIP3    H131050   5.233   0.441   0.705
10369TIP3    H231051   5.085   0.470   0.706
10370TIP3   OH231052   3.444   5.768   0.792
10370TIP3    H131053   3.473   5.682   0.763
10370TIP3    H231054   3.497   5.786   0.869
10371TIP3   OH231055   7.330   3.574   0.148
10371TIP3    H131056   7.342   3.481   0.168
10371TIP3    H231057   7.239   3.592   0.170
10372TIP3   OH231058   0.503   7.351   0.063
10372TIP3    H131059   0.442   7.334   0.135
10372TIP3    H231060   0.576   7.398   0.104
10373TIP3   OH231061   0.200   2.775   6.714
10373TIP3    H131062   0.107   2.797   6.719
10373TIP3    H231063   0.244   2.859   6.698
10374TIP3   OH231064   7.579   0.987   3.198
10374TIP3    H131065   7.593   1.064   3.252
10374TIP3    H231066   7.572   0.915   3.260
10375TIP3   OH231067   0.729   1.810   4.108
10375TIP3    H131068   0.654   1.868   4.092
10375TIP3    H231069   0.690   1.726   4.132
10376TIP3   OH231070   1.411   3.388   0.009
10376TIP3    H131071   1.334   3.394  -0.048
10376TIP3    H231072   1.485   3.409  -0.047
10377TIP3   OH231073   1.860   7.120   2.583
10377TIP3    H131074   1.853   7.057   2.655
10377TIP3    H231075   1.790   7.095   2.523
10378TIP3   OH231076   2.377   7.012   3.775
10378TIP3    H131077   2.461   7.045   3.741
10378TIP3    H231078   2.399   6.976   3.861
10379TIP3   OH231079   0.352   0.635   6.136
10379TIP3    H131080   0.335   0.597   6.222
10379TIP3    H231081   0.388   0.563   6.084
10380TIP3   OH231082   5.232   5.194   2.080
10380TIP3    H131083   5.311   5.248   2.082
10380TIP3    H231084   5.165   5.248   2.123
10381TIP3   OH231085   8.021   6.528   1.638
10381TIP3    H131086   8.061   6.554   1.721
10381TIP3    H231087   7.978   6.608   1.607
10382TIP3   OH231088   2.841   3.195   5.716
10382TIP3    H131089   2.773   3.262   5.707
10382TIP3    H231090   2.796   3.112   5.697
10383TIP3   OH231091   6.279   1.232   3.315
10383TIP3    H131092   6.323   1.164   3.263
10383TIP3    H231093   6.307   1.314   3.274
10384TIP3   OH231094   6.156   6.369   5.782
10384TIP3    H131095   6.127   6.285   5.818
10384TIP3    H231096   6.095   6.386   5.710
10385TIP3   OH231097   5.632   5.493   3.943
10385TIP3    H131098   5.538   5.484   3.957
10385TIP3    H231099   5.656   5.417   3.889
10386TIP3   OH231100   2.884   4.633   6.686
10386TIP3    H131101   2.877   4.620   6.780
10386TIP3    H231102   2.907   4.725   6.675
10387TIP3   OH231103   0.209   4.030   3.996
10387TIP3    H131104   0.259   4.048   4.075
10387TIP3    H231105   0.274   4.019   3.927
10388TIP3   OH231106   4.512   2.486   0.615
10388TIP3    H131107   4.512   2.477   0.710
10388TIP3    H231108   4.524   2.397   0.582
10389TIP3   OH231109   2.114   7.515   4.813
10389TIP3    H131110   2.112   7.599   4.860
10389TIP3    H231111   2.056   7.528   4.738
10390TIP3   OH231112   2.880   1.971   3.680
10390TIP3    H131113   2.910   2.062   3.669
10390TIP3    H231114   2.934   1.936   3.750
10391TIP3   OH231115   3.485   0.893   6.601
10391TIP3    H131116   3.523   0.806   6.610
10391TIP3    H231117   3.557   0.953   6.624
10392TIP3   OH231118   0.550   3.636   1.272
10392TIP3    H131119   0.512   3.575   1.210
10392TIP3    H231120   0.540   3.722   1.230
10393TIP3   OH231121   1.548   4.861   5.659
10393TIP3    H131122   1.628   4.834   5.615
10393TIP3    H231123   1.520   4.784   5.709
10394TIP3   OH231124   0.224   7.356   5.728
10394TIP3    H131125   0.151   7.352   5.666
10394TIP3    H231126   0.296   7.393   5.677
10395TIP3   OH231127   3.863   2.881   6.503
10395TIP3    H131128   3.815   2.798   6.497
10395TIP3    H231129   3.813   2.933   6.565
10396TIP3   OH231130   1.837   7.210   2.957
10396TIP3    H131131   1.807   7.159   3.032
10396TIP3    H231132   1.766   7.202   2.893
10397TIP3   OH231133   0.427   2.457   0.349
10397TIP3    H131134   0.396   2.366   0.354
10397TIP3    H231135   0.492   2.456   0.278
10398TIP3   OH231136   0.198   7.298   3.231
10398TIP3    H131137   0.149   7.366   3.186
10398TIP3    H231138   0.185   7.219   3.178
10399TIP3   OH231139   6.467   4.657   1.590
10399TIP3    H131140   6.408   4.583   1.607
10399TIP3    H231141   6.514   4.631   1.511
10400TIP3   OH231142   6.310   4.438   1.687
10400TIP3    H131143   6.306   4.344   1.672
10400TIP3    H231144   6.234   4.456   1.743
10401TIP3   OH231145   3.278   4.998   0.852
10401TIP3    H131146   3.230   4.963   0.777
10401TIP3    H231147   3.254   4.942   0.925
10402TIP3   OH231148   2.065   5.527   5.071
10402TIP3    H131149   2.078   5.573   5.154
10402TIP3    H231150   1.970   5.524   5.060
10403TIP3   OH231151   4.226   2.296   5.504
10403TIP3    H131152   4.174   2.376   5.519
10403TIP3    H231153   4.317   2.324   5.517
10404TIP3   OH231154   2.286   0.393   3.323
10404TIP3    H131155   2.235   0.318   3.293
10404TIP3    H231156   2.362   0.355   3.367
10405TIP3   OH231157   1.917   6.095   3.825
10405TIP3    H131158   1.974   6.166   3.795
10405TIP3    H231159   1.876   6.128   3.905
10406TIP3   OH231160   1.646   0.254   6.314
10406TIP3    H131161   1.609   0.323   6.368
10406TIP3    H231162   1.575   0.191   6.303
10407TIP3   OH231163   8.146   3.041   1.445
10407TIP3    H131164   8.155   3.132   1.419
10407TIP3    H231165   8.173   2.991   1.368
10408TIP3   OH231166   7.174   0.956   4.114
10408TIP3    H131167   7.188   0.929   4.023
10408TIP3    H231168   7.151   0.875   4.159
10409TIP3   OH231169   3.862   0.221   0.517
10409TIP3    H131170   3.941   0.231   0.570
10409TIP3    H231171   3.887   0.162   0.446
10410TIP3   OH231172   8.027   0.646   3.668
10410TIP3    H131173   7.955   0.676   3.612
10410TIP3    H231174   8.106   0.676   3.624
10411TIP3   OH231175   6.598   1.748   6.270
10411TIP3    H131176   6.649   1.760   6.190
10411TIP3    H231177   6.654   1.780   6.340
10412TIP3   OH231178   8.161   4.681   2.177
10412TIP3    H131179   8.169   4.633   2.094
10412TIP3    H231180   8.178   4.616   2.245
10413TIP3   OH231181   6.488   7.467   3.660
10413TIP3    H131182   6.579   7.452   3.635
10413TIP3    H231183   6.444   7.492   3.578
10414TIP3   OH231184   3.632   1.879   4.265
10414TIP3    H131185   3.635   1.793   4.223
10414TIP3    H231186   3.539   1.894   4.281
10415TIP3   OH231187   6.003   3.755   6.266
10415TIP3    H131188   5.996   3.662   6.286
10415TIP3    H231189   6.074   3.787   6.321
10416TIP3   OH231190   1.085   1.564   6.120
10416TIP3    H131191   1.025   1.604   6.183
10416TIP3    H231192   1.046   1.582   6.034
10417TIP3   OH231193   8.119   2.466   2.330
10417TIP3    H131194   8.051   2.534   2.331
10417TIP3    H231195   8.196   2.511   2.295
10418TIP3   OH231196   0.305   1.084   6.191
10418TIP3    H131197   0.228   1.027   6.188
10418TIP3    H231198   0.270   1.173   6.180
10419TIP3   OH231199   3.904   4.197   3.529
10419TIP3    H131200   3.866   4.111   3.508
10419TIP3    H231201   3.998   4.181   3.534
10420TIP3   OH231202   5.594   3.567   0.411
10420TIP3    H131203   5.633   3.514   0.481
10420TIP3    H231204   5.669   3.607   0.367
10421TIP3   OH231205   0.031   3.962   5.608
10421TIP3    H131206   0.073   3.951   5.693
10421TIP3    H231207   0.096   3.931   5.544
10422TIP3   OH231208   7.474   6.939   4.266
10422TIP3    H131209   7.529   6.866   4.234
10422TIP3    H231210   7.528   7.017   4.253
10423TIP3   OH231211   2.867   3.171   1.249
10423TIP3    H131212   2.958   3.157   1.276
10423TIP3    H231213   2.839   3.086   1.217
10424TIP3   OH231214   2.794   7.616   5.766
10424TIP3    H131215   2.782   7.688   5.828
10424TIP3    H231216   2.774   7.538   5.817
10425TIP3   OH231217   2.765   0.250   4.871
10425TIP3    H131218   2.765   0.346   4.863
10425TIP3    H231219   2.815   0.220   4.796
10426TIP3   OH231220   3.644   3.692   4.402
10426TIP3    H131221   3.589   3.621   4.436
10426TIP3    H231222   3.718   3.696   4.464
10427TIP3   OH231223   1.331   5.430   0.878
10427TIP3    H131224   1.390   5.423   0.953
10427TIP3    H231225   1.335   5.522   0.853
10428TIP3   OH231226   4.018   0.212   2.563
10428TIP3    H131227   4.011   0.222   2.468
10428TIP3    H231228   4.038   0.119   2.575
10429TIP3   OH231229   6.063   4.785   2.625
10429TIP3    H131230   6.157   4.769   2.622
10429TIP3    H231231   6.051   4.870   2.582
10430TIP3   OH231232   8.290   2.087   4.785
10430TIP3    H131233   8.219   2.048   4.836
10430TIP3    H231234   8.263   2.178   4.772
10431TIP3   OH231235   0.301   5.526   1.342
10431TIP3    H131236   0.359   5.465   1.296
10431TIP3    H231237   0.287   5.486   1.427
10432TIP3   OH231238   2.078   5.138   3.262
10432TIP3    H131239   2.022   5.116   3.188
10432TIP3    H231240   2.124   5.218   3.234
10433TIP3   OH231241   1.895   6.993   1.257
10433TIP3    H131242   1.952   6.943   1.315
10433TIP3    H231243   1.942   6.998   1.174
10434TIP3   OH231244   3.857   2.369   5.605
10434TIP3    H131245   3.788   2.361   5.671
10434TIP3    H231246   3.814   2.341   5.524
10435TIP3   OH231247   4.018   0.862   2.332
10435TIP3    H131248   3.941   0.811   2.355
10435TIP3    H231249   4.031   0.920   2.407
10436TIP3   OH231250   7.735   2.362   3.050
10436TIP3    H131251   7.719   2.269   3.067
10436TIP3    H231252   7.678   2.383   2.976
10437TIP3   OH231253   2.862   1.729   1.113
10437TIP3    H131254   2.808   1.664   1.069
10437TIP3    H231255   2.942   1.734   1.060
10438TIP3   OH231256   2.785   1.621   2.258
10438TIP3    H131257   2.878   1.596   2.263
10438TIP3    H231258   2.779   1.700   2.311
10439TIP3   OH231259   2.509   4.192   2.883
10439TIP3    H131260   2.509   4.270   2.828
10439TIP3    H231261   2.584   4.204   2.942
10440TIP3   OH231262   0.650   6.817   5.983
10440TIP3    H131263   0.739   6.815   5.949
10440TIP3    H231264   0.636   6.907   6.010
10441TIP3   OH231265   0.340   2.409   1.247
10441TIP3    H131266   0.408   2.468   1.215
10441TIP3    H231267   0.325   2.348   1.175
10442TIP3   OH231268   0.360   2.612   3.935
10442TIP3    H131269   0.440   2.616   3.987
10442TIP3    H231270   0.309   2.687   3.965
10443TIP3   OH231271   0.947   5.007   6.636
10443TIP3    H131272   0.907   4.920   6.636
10443TIP3    H231273   0.998   5.010   6.554
10444TIP3   OH231274   3.371   3.236   0.703
10444TIP3    H131275   3.303   3.304   0.700
10444TIP3    H231276   3.390   3.225   0.796
10445TIP3   OH231277   7.223   0.460   2.437
10445TIP3    H131278   7.306   0.480   2.394
10445TIP3    H231279   7.181   0.395   2.380
10446TIP3   OH231280   4.145   0.326   0.629
10446TIP3    H131281   4.212   0.352   0.692
10446TIP3    H231282   4.135   0.403   0.573
10447TIP3   OH231283   2.343   6.498   2.492
10447TIP3    H131284   2.335   6.414   2.536
10447TIP3    H231285   2.300   6.486   2.408
10448TIP3   OH231286   6.025   5.850   1.238
10448TIP3    H131287   6.081   5.781   1.201
10448TIP3    H231288   5.971   5.879   1.165
10449TIP3   OH231289   2.800   7.622   3.793
10449TIP3    H131290   2.718   7.573   3.807
10449TIP3    H231291   2.786   7.705   3.838
10450TIP3   OH231292   5.247   1.456   6.552
10450TIP3    H131293   5.242   1.458   6.456
10450TIP3    H231294   5.164   1.495   6.580
10451TIP3   OH231295   2.808   3.918   1.494
10451TIP3    H131296   2.902   3.937   1.495
10451TIP3    H231297   2.770   3.978   1.558
10452TIP3   OH231298   8.067   7.759   5.130
10452TIP3    H131299   8.006   7.759   5.056
10452TIP3    H231300   8.114   7.842   5.121
10453TIP3   OH231301   3.964   5.671   4.118
10453TIP3    H131302   3.949   5.670   4.024
10453TIP3    H231303   3.994   5.582   4.139
10454TIP3   OH231304   3.516   4.215   4.802
10454TIP3    H131305   3.599   4.262   4.790
10454TIP3    H231306   3.528   4.167   4.884
10455TIP3   OH231307   2.357   0.322   5.093
10455TIP3    H131308   2.287   0.360   5.145
10455TIP3    H231309   2.405   0.265   5.154
10456TIP3   OH231310   3.044   3.733   5.903
10456TIP3    H131311   3.092   3.700   5.979
10456TIP3    H231312   3.034   3.657   5.845
10457TIP3   OH231313   7.233   4.234   5.141
10457TIP3    H131314   7.228   4.174   5.066
10457TIP3    H231315   7.274   4.182   5.210
10458TIP3   OH231316   2.888   1.951   0.879
10458TIP3    H131317   2.909   1.899   0.956
10458TIP3    H231318   2.891   1.889   0.806
10459TIP3   OH231319   0.918   1.331   6.728
10459TIP3    H131320   1.013   1.321   6.732
10459TIP3    H231321   0.894   1.363   6.815
10460TIP3   OH231322   8.069   5.471   3.659
10460TIP3    H131323   8.111   5.528   3.724
10460TIP3    H231324   7.975   5.491   3.667
10461TIP3   OH231325   3.863   0.783   0.077
10461TIP3    H131326   3.955   0.775   0.051
10461TIP3    H231327   3.854   0.726   0.153
10462TIP3   OH231328   2.929   3.483   3.782
10462TIP3    H131329   2.843   3.483   3.824
10462TIP3    H231330   2.967   3.399   3.807
10463TIP3   OH231331   1.177   7.527   0.960
10463TIP3    H131332   1.211   7.462   1.022
10463TIP3    H231333   1.116   7.580   1.011
10464TIP3   OH231334   5.594   3.853   6.529
10464TIP3    H131335   5.573   3.866   6.436
10464TIP3    H231336   5.536   3.912   6.576
10465TIP3   OH231337   7.807   7.391   5.307
10465TIP3    H131338   7.806   7.405   5.402
10465TIP3    H231339   7.900   7.389   5.284
10466TIP3   OH231340   3.562   0.060   0.288
10466TIP3    H131341   3.522   0.134   0.334
10466TIP3    H231342   3.651   0.090   0.269
10467TIP3   OH231343   7.622   4.883   4.985
10467TIP3    H131344   7.563   4.857   4.914
10467TIP3    H231345   7.582   4.961   5.022
10468TIP3   OH231346   3.271   1.053   2.782
10468TIP3    H131347   3.317   1.135   2.765
10468TIP3    H231348   3.305   1.025   2.868
10469TIP3   OH231349   3.513   4.395   3.377
10469TIP3    H131350   3.607   4.375   3.373
10469TIP3    H231351   3.507   4.486   3.349
10470TIP3   OH231352   4.478   4.552   2.277
10470TIP3    H131353   4.534   4.567   2.353
10470TIP3    H231354   4.529   4.494   2.221
10471TIP3   OH231355   5.472   0.371   1.151
10471TIP3    H131356   5.451   0.429   1.224
10471TIP3    H231357   5.447   0.284   1.181
10472TIP3   OH231358   4.660   6.821   4.580
10472TIP3    H131359   4.566   6.801   4.580
10472TIP3    H231360   4.665   6.915   4.595
10473TIP3   OH231361   7.172   4.577   4.014
10473TIP3    H131362   7.237   4.537   4.072
10473TIP3    H231363   7.189   4.671   4.019
10474TIP3   OH231364   4.152   0.527   0.446
10474TIP3    H131365   4.118   0.616   0.455
10474TIP3    H231366   4.159   0.513   0.351
10475TIP3   OH231367   5.164   0.999   5.287
10475TIP3    H131368   5.165   1.069   5.221
10475TIP3    H231369   5.158   1.044   5.371
10476TIP3   OH231370   3.948   6.346   1.241
10476TIP3    H131371   3.919   6.382   1.157
10476TIP3    H231372   3.948   6.251   1.227
10477TIP3   OH231373   6.645   4.134   2.470
10477TIP3    H131374   6.565   4.110   2.516
10477TIP3    H231375   6.669   4.219   2.507
10478TIP3   OH231376   1.902   4.508   1.522
10478TIP3    H131377   1.831   4.457   1.560
10478TIP3    H231378   1.860   4.587   1.488
10479TIP3   OH231379   0.699   5.793   5.893
10479TIP3    H131380   0.766   5.751   5.838
10479TIP3    H231381   0.664   5.863   5.838
10480TIP3   OH231382   4.911   6.731   6.317
10480TIP3    H131383   4.933   6.795   6.384
10480TIP3    H231384   4.962   6.654   6.339
10481TIP3   OH231385   7.202   1.272   0.997
10481TIP3    H131386   7.290   1.307   0.981
10481TIP3    H231387   7.149   1.304   0.924
10482TIP3   OH231388   1.522   1.252   3.542
10482TIP3    H131389   1.590   1.253   3.609
10482TIP3    H231390   1.451   1.201   3.581
10483TIP3   OH231391   7.364   4.745   3.129
10483TIP3    H131392   7.396   4.684   3.063
10483TIP3    H231393   7.437   4.756   3.189
10484TIP3   OH231394   6.840   0.813   4.581
10484TIP3    H131395   6.768   0.809   4.644
10484TIP3    H231396   6.799   0.790   4.497
10485TIP3   OH231397   2.091   6.607   0.460
10485TIP3    H131398   2.073   6.630   0.369
10485TIP3    H231399   2.187   6.602   0.466
10486TIP3   OH231400   0.083   3.445   5.225
10486TIP3    H131401   0.143   3.379   5.191
10486TIP3    H231402   0.012   3.395   5.265
10487TIP3   OH231403   2.741   2.111   5.717
10487TIP3    H131404   2.659   2.158   5.737
10487TIP3    H231405   2.744   2.041   5.781
10488TIP3   OH231406   4.238   4.874   3.675
10488TIP3    H131407   4.284   4.942   3.725
10488TIP3    H231408   4.296   4.855   3.602
10489TIP3   OH231409   0.964   1.746   0.567
10489TIP3    H131410   1.047   1.759   0.523
10489TIP3    H231411   0.898   1.778   0.505
10490TIP3   OH231412   7.283   0.913   3.306
10490TIP3    H131413   7.368   0.878   3.333
10490TIP3    H231414   7.248   0.847   3.247
10491TIP3   OH231415   3.587   1.574   2.485
10491TIP3    H131416   3.617   1.665   2.489
10491TIP3    H231417   3.502   1.575   2.529
10492TIP3   OH231418   5.881   5.199   6.453
10492TIP3    H131419   5.900   5.285   6.417
10492TIP3    H231420   5.788   5.204   6.476
10493TIP3   OH231421   7.914   0.741   1.845
10493TIP3    H131422   7.853   0.812   1.863
10493TIP3    H231423   7.877   0.665   1.890
10494TIP3   OH231424   2.123   5.093   5.969
10494TIP3    H131425   2.116   5.188   5.972
10494TIP3    H231426   2.217   5.075   5.967
10495TIP3   OH231427   1.147   1.576   1.332
10495TIP3    H131428   1.205   1.506   1.362
10495TIP3    H231429   1.205   1.641   1.293
10496TIP3   OH231430   3.443   5.206   3.543
10496TIP3    H131431   3.413   5.243   3.460
10496TIP3    H231432   3.476   5.120   3.521
10497TIP3   OH231433   6.811   1.754   0.143
10497TIP3    H131434   6.851   1.793   0.221
10497TIP3    H231435   6.776   1.829   0.095
10498TIP3   OH231436   4.416   7.321   0.587
10498TIP3    H131437   4.416   7.398   0.644
10498TIP3    H231438   4.358   7.259   0.630
10499TIP3   OH231439   7.319   0.118   3.871
10499TIP3    H131440   7.228   0.096   3.891
10499TIP3    H231441   7.318   0.211   3.852
10500TIP3   OH231442   7.481   1.554   3.924
10500TIP3    H131443   7.451   1.492   3.858
10500TIP3    H231444   7.438   1.636   3.901
10501TIP3   OH231445   0.069   6.421   0.068
10501TIP3    H131446   0.160   6.397   0.055
10501TIP3    H231447   0.020   6.353   0.023
10502TIP3   OH231448   2.959   2.879   0.663
10502TIP3    H131449   2.869   2.847   0.661
10502TIP3    H231450   3.012   2.801   0.682
10503TIP3   OH231451   1.400   4.438   2.367
10503TIP3    H131452   1.397   4.516   2.312
10503TIP3    H231453   1.332   4.451   2.433
10504TIP3   OH231454   0.956   7.489   0.789
10504TIP3    H131455   1.029   7.495   0.849
10504TIP3    H231456   0.995   7.460   0.706
10505TIP3   OH231457   1.270   1.177   5.290
10505TIP3    H131458   1.299   1.212   5.206
10505TIP3    H231459   1.196   1.121   5.269
10506TIP3   OH231460   0.768   5.911   1.479
10506TIP3    H131461   0.673   5.917   1.489
10506TIP3    H231462   0.790   5.974   1.410
10507TIP3   OH231463   4.954   4.562   1.301
10507TIP3    H131464   4.859   4.546   1.307
10507TIP3    H231465   4.993   4.490   1.349
10508TIP3   OH231466   2.264   1.938   6.218
10508TIP3    H131467   2.330   2.006   6.234
10508TIP3    H231468   2.314   1.857   6.213
10509TIP3   OH231469   7.910   3.978   3.560
10509TIP3    H131470   7.897   4.051   3.620
10509TIP3    H231471   7.884   3.901   3.611
10510TIP3   OH231472   4.970   4.474   4.486
10510TIP3    H131473   4.895   4.428   4.448
10510TIP3    H231474   5.036   4.473   4.417
10511TIP3   OH231475   4.750   5.752   4.771
10511TIP3    H131476   4.728   5.743   4.863
10511TIP3    H231477   4.711   5.835   4.744
10512TIP3   OH231478   3.767   7.494   5.134
10512TIP3    H131479   3.847   7.467   5.179
10512TIP3    H231480   3.798   7.526   5.049
10513TIP3   OH231481   1.327   7.777   3.653
10513TIP3    H131482   1.278   7.829   3.588
10513TIP3    H231483   1.393   7.838   3.686
10514TIP3   OH231484   1.949   3.573   1.908
10514TIP3    H131485   1.886   3.528   1.852
10514TIP3    H231486   1.895   3.626   1.967
10515TIP3   OH231487   0.314   4.062   2.600
10515TIP3    H131488   0.348   3.973   2.593
10515TIP3    H231489   0.328   4.100   2.513
10516TIP3   OH231490   6.780   6.636   3.037
10516TIP3    H131491   6.776   6.582   3.116
10516TIP3    H231492   6.768   6.574   2.965
10517TIP3   OH231493   2.202   2.530   2.919
10517TIP3    H131494   2.199   2.488   2.833
10517TIP3    H231495   2.272   2.486   2.966
10518TIP3   OH231496   0.234   3.215   5.180
10518TIP3    H131497   0.224   3.188   5.271
10518TIP3    H231498   0.325   3.241   5.172
10519TIP3   OH231499   7.219   6.056   0.770
10519TIP3    H131500   7.248   5.993   0.704
10519TIP3    H231501   7.212   6.139   0.723
10520TIP3   OH231502   6.660   0.715   1.569
10520TIP3    H131503   6.744   0.681   1.599
10520TIP3    H231504   6.619   0.750   1.648
10521TIP3   OH231505   6.024   4.059   6.510
10521TIP3    H131506   6.094   3.997   6.491
10521TIP3    H231507   5.987   4.080   6.424
10522TIP3   OH231508   0.844   0.632   3.642
10522TIP3    H131509   0.785   0.557   3.629
10522TIP3    H231510   0.786   0.703   3.668
10523TIP3   OH231511   4.122   2.374   0.329
10523TIP3    H131512   4.116   2.287   0.289
10523TIP3    H231513   4.110   2.358   0.423
10524TIP3   OH231514   7.847   1.600   4.595
10524TIP3    H131515   7.753   1.620   4.598
10524TIP3    H231516   7.890   1.684   4.610
10525TIP3   OH231517   1.275   2.686   5.158
10525TIP3    H131518   1.275   2.770   5.204
10525TIP3    H231519   1.184   2.673   5.132
10526TIP3   OH231520   3.994   6.471   6.475
10526TIP3    H131521   4.003   6.378   6.455
10526TIP3    H231522   3.967   6.474   6.567
10527TIP3   OH231523   7.474   0.525   3.151
10527TIP3    H131524   7.469   0.436   3.118
10527TIP3    H231525   7.518   0.517   3.236
10528TIP3   OH231526   4.471   0.778   5.310
10528TIP3    H131527   4.558   0.767   5.271
10528TIP3    H231528   4.443   0.865   5.283
10529TIP3   OH231529   7.485   1.360   3.627
10529TIP3    H131530   7.547   1.336   3.696
10529TIP3    H231531   7.539   1.400   3.559
10530TIP3   OH231532   2.898   0.942   1.595
10530TIP3    H131533   2.850   0.996   1.533
10530TIP3    H231534   2.975   0.912   1.546
10531TIP3   OH231535   5.764   7.463   0.652
10531TIP3    H131536   5.752   7.445   0.745
10531TIP3    H231537   5.730   7.552   0.639
10532TIP3   OH231538   2.162   2.794   6.084
10532TIP3    H131539   2.119   2.723   6.133
10532TIP3    H231540   2.186   2.858   6.151
10533TIP3   OH231541   7.157   1.600   4.450
10533TIP3    H131542   7.121   1.668   4.393
10533TIP3    H231543   7.178   1.528   4.391
10534TIP3   OH231544   2.219   4.150   0.278
10534TIP3    H131545   2.245   4.127   0.367
10534TIP3    H231546   2.189   4.068   0.239
10535TIP3   OH231547   5.560   1.205   4.242
10535TIP3    H131548   5.468   1.229   4.244
10535TIP3    H231549   5.597   1.242   4.322
10536TIP3   OH231550   1.434   0.055   5.672
10536TIP3    H131551   1.517   0.098   5.693
10536TIP3    H231552   1.368   0.122   5.687
10537TIP3   OH231553   7.309   6.315   3.982
10537TIP3    H131554   7.224   6.342   4.017
10537TIP3    H231555   7.299   6.324   3.887
10538TIP3   OH231556   6.794   2.225   1.844
10538TIP3    H131557   6.759   2.139   1.821
10538TIP3    H231558   6.811   2.220   1.938
10539TIP3   OH231559   3.373   6.836   5.899
10539TIP3    H131560   3.464   6.857   5.880
10539TIP3    H231561   3.323   6.909   5.862
10540TIP3   OH231562   6.055   4.755   6.155
10540TIP3    H131563   6.074   4.689   6.222
10540TIP3    H231564   6.021   4.830   6.204
10541TIP3   OH231565   3.781   2.071   0.140
10541TIP3    H131566   3.792   2.008   0.211
10541TIP3    H231567   3.847   2.138   0.157
10542TIP3   OH231568   7.963   6.731   2.510
10542TIP3    H131569   7.978   6.773   2.426
10542TIP3    H231570   8.050   6.708   2.542
10543TIP3   OH231571   3.225   4.507   1.316
10543TIP3    H131572   3.251   4.484   1.227
10543TIP3    H231573   3.129   4.505   1.315
10544TIP3   OH231574   5.298   0.444   6.133
10544TIP3    H131575   5.320   0.536   6.151
10544TIP3    H231576   5.287   0.441   6.038
10545TIP3   OH231577   5.516   5.114   3.158
10545TIP3    H131578   5.497   5.022   3.141
10545TIP3    H231579   5.486   5.129   3.248
10546TIP3   OH231580   5.894   6.724   4.706
10546TIP3    H131581   5.829   6.773   4.657
10546TIP3    H231582   5.843   6.662   4.758
10547TIP3   OH231583   7.048   2.100   3.080
10547TIP3    H131584   7.027   2.008   3.090
10547TIP3    H231585   7.078   2.108   2.989
10548TIP3   OH231586   0.281   1.651   4.358
10548TIP3    H131587   0.330   1.642   4.440
10548TIP3    H231588   0.319   1.587   4.299
10549TIP3   OH231589   0.023   1.085   1.518
10549TIP3    H131590   0.026   1.060   1.611
10549TIP3    H231591   0.032   1.180   1.518
10550TIP3   OH231592   2.546   1.169   3.110
10550TIP3    H131593   2.556   1.264   3.099
10550TIP3    H231594   2.452   1.154   3.107
10551TIP3   OH231595   6.031   1.477   5.317
10551TIP3    H131596   6.089   1.530   5.372
10551TIP3    H231597   6.087   1.406   5.285
10552TIP3   OH231598   2.136   4.976   1.398
10552TIP3    H131599   2.220   4.936   1.378
10552TIP3    H231600   2.106   5.012   1.314
10553TIP3   OH231601   8.010   4.202   4.981
10553TIP3    H131602   8.031   4.295   4.971
10553TIP3    H231603   7.956   4.181   4.905
10554TIP3   OH231604   7.118   6.931   1.335
10554TIP3    H131605   7.090   6.861   1.276
10554TIP3    H231606   7.054   7.001   1.320
10555TIP3   OH231607   3.793   4.829   0.149
10555TIP3    H131608   3.800   4.773   0.072
10555TIP3    H231609   3.812   4.917   0.117
10556TIP3   OH231610   8.182   5.501   5.814
10556TIP3    H131611   8.241   5.436   5.776
10556TIP3    H231612   8.237   5.555   5.871
10557TIP3   OH231613   5.825   4.859   3.262
10557TIP3    H131614   5.815   4.774   3.306
10557TIP3    H231615   5.889   4.843   3.193
10558TIP3   OH231616   5.452   2.529   0.615
10558TIP3    H131617   5.488   2.505   0.530
10558TIP3    H231618   5.360   2.549   0.598
10559TIP3   OH231619   2.162   2.274   4.890
10559TIP3    H131620   2.093   2.208   4.889
10559TIP3    H231621   2.127   2.345   4.943
10560TIP3   OH231622   7.683   7.033   4.581
10560TIP3    H131623   7.591   7.007   4.592
10560TIP3    H231624   7.732   6.956   4.609
10561TIP3   OH231625   4.633   5.146   6.649
10561TIP3    H131626   4.633   5.076   6.584
10561TIP3    H231627   4.609   5.103   6.731
10562TIP3   OH231628   3.448   5.261   2.770
10562TIP3    H131629   3.522   5.207   2.798
10562TIP3    H231630   3.472   5.290   2.682
10563TIP3   OH231631   4.462   2.610   5.992
10563TIP3    H131632   4.508   2.678   5.945
10563TIP3    H231633   4.519   2.588   6.066
10564TIP3   OH231634   3.200   1.078   6.183
10564TIP3    H131635   3.178   1.114   6.097
10564TIP3    H231636   3.171   0.987   6.179
10565TIP3   OH231637   0.155   0.140   1.050
10565TIP3    H131638   0.245   0.145   1.081
10565TIP3    H231639   0.135   0.228   1.020
10566TIP3   OH231640   8.276   5.023   1.672
10566TIP3    H131641   8.326   4.942   1.664
10566TIP3    H231642   8.270   5.057   1.582
10567TIP3   OH231643   7.605   7.016   4.902
10567TIP3    H131644   7.653   7.098   4.909
10567TIP3    H231645   7.663   6.958   4.852
10568TIP3   OH231646   5.251   0.354   5.884
10568TIP3    H131647   5.189   0.402   5.830
10568TIP3    H231648   5.325   0.337   5.826
10569TIP3   OH231649   8.176   7.522   5.221
10569TIP3    H131650   8.139   7.608   5.204
10569TIP3    H231651   8.267   7.528   5.190
10570TIP3   OH231652   7.183   5.266   0.672
10570TIP3    H131653   7.120   5.312   0.727
10570TIP3    H231654   7.253   5.329   0.657
10571TIP3   OH231655   2.614   4.534   5.983
10571TIP3    H131656   2.526   4.499   5.999
10571TIP3    H231657   2.633   4.588   6.060
10572TIP3   OH231658   1.892   2.033   1.483
10572TIP3    H131659   1.808   2.077   1.472
10572TIP3    H231660   1.872   1.957   1.538
10573TIP3   OH231661   4.940   4.301   6.444
10573TIP3    H131662   4.935   4.206   6.428
10573TIP3    H231663   4.890   4.313   6.525
10574TIP3   OH231664   3.328   6.437   5.439
10574TIP3    H131665   3.326   6.479   5.525
10574TIP3    H231666   3.237   6.434   5.411
10575TIP3   OH231667   2.110   1.211   2.689
10575TIP3    H131668   2.052   1.253   2.625
10575TIP3    H231669   2.193   1.201   2.643
10576TIP3   OH231670   5.322   6.348   5.787
10576TIP3    H131671   5.387   6.378   5.724
10576TIP3    H231672   5.370   6.335   5.868
10577TIP3   OH231673   7.108   0.848   6.539
10577TIP3    H131674   7.151   0.930   6.566
10577TIP3    H231675   7.037   0.836   6.602
10578TIP3   OH231676   4.653   1.249   6.594
10578TIP3    H131677   4.717   1.181   6.615
10578TIP3    H231678   4.571   1.218   6.633
10579TIP3   OH231679   0.256   6.314   3.886
10579TIP3    H131680   0.307   6.329   3.807
10579TIP3    H231681   0.298   6.367   3.954
10580TIP3   OH231682   0.081   1.491   3.426
10580TIP3    H131683  -0.006   1.458   3.403
10580TIP3    H231684   0.133   1.412   3.443
10581TIP3   OH231685   1.335   5.458   5.558
10581TIP3    H131686   1.394   5.438   5.486
10581TIP3    H231687   1.392   5.493   5.627
10582TIP3   OH231688   0.331   2.177   3.753
10582TIP3    H131689   0.369   2.213   3.673
10582TIP3    H231690   0.375   2.093   3.765
10583TIP3   OH231691   6.069   3.572   1.332
10583TIP3    H131692   5.978   3.600   1.332
10583TIP3    H231693   6.099   3.591   1.421
10584TIP3   OH231694   7.700   4.576   3.777
10584TIP3    H131695   7.686   4.596   3.685
10584TIP3    H231696   7.729   4.485   3.778
10585TIP3   OH231697   6.621   5.362   3.057
10585TIP3    H131698   6.528   5.366   3.033
10585TIP3    H231699   6.661   5.306   2.991
10586TIP3   OH231700   7.652   1.315   3.858
10586TIP3    H131701   7.609   1.340   3.940
10586TIP3    H231702   7.745   1.307   3.881
10587TIP3   OH231703   4.471   5.879   0.487
10587TIP3    H131704   4.416   5.801   0.482
10587TIP3    H231705   4.455   5.915   0.574
10588TIP3   OH231706   0.057   2.283   4.548
10588TIP3    H131707   0.048   2.378   4.559
10588TIP3    H231708   0.120   2.274   4.476
10589TIP3   OH231709   2.078   6.954   0.269
10589TIP3    H131710   2.045   7.014   0.202
10589TIP3    H231711   2.145   7.005   0.315
10590TIP3   OH231712   1.439   1.969   1.339
10590TIP3    H131713   1.364   1.975   1.397
10590TIP3    H231714   1.493   1.899   1.376
10591TIP3   OH231715   4.177   0.278   0.058
10591TIP3    H131716   4.213   0.262   0.146
10591TIP3    H231717   4.252   0.267   0.000
10592TIP3   OH231718   7.238   6.038   1.863
10592TIP3    H131719   7.317   6.047   1.917
10592TIP3    H231720   7.170   6.011   1.924
10593TIP3   OH231721   3.147   1.214   5.668
10593TIP3    H131722   3.060   1.251   5.679
10593TIP3    H231723   3.133   1.132   5.621
10594TIP3   OH231724   6.330   2.672   2.418
10594TIP3    H131725   6.283   2.660   2.500
10594TIP3    H231726   6.338   2.583   2.382
10595TIP3   OH231727   3.018   3.905   4.696
10595TIP3    H131728   3.006   3.997   4.675
10595TIP3    H231729   2.969   3.858   4.628
10596TIP3   OH231730   2.968   0.723   5.239
10596TIP3    H131731   2.970   0.765   5.153
10596TIP3    H231732   2.884   0.748   5.277
10597TIP3   OH231733   1.156   5.260   1.525
10597TIP3    H131734   1.107   5.341   1.528
10597TIP3    H231735   1.090   5.191   1.529
10598TIP3   OH231736   6.895   4.505   1.998
10598TIP3    H131737   6.882   4.585   2.048
10598TIP3    H231738   6.888   4.435   2.062
10599TIP3   OH231739   6.131   4.465   4.692
10599TIP3    H131740   6.204   4.413   4.725
10599TIP3    H231741   6.054   4.429   4.736
10600TIP3   OH231742   6.848   1.509   5.141
10600TIP3    H131743   6.787   1.482   5.073
10600TIP3    H231744   6.896   1.429   5.164
10601TIP3   OH231745   5.949   1.985   0.622
10601TIP3    H131746   5.856   2.006   0.633
10601TIP3    H231747   5.956   1.893   0.648
10602TIP3   OH231748   0.455   1.700   0.751
10602TIP3    H131749   0.542   1.708   0.714
10602TIP3    H231750   0.415   1.626   0.703
10603TIP3   OH231751   6.141   2.476   2.089
10603TIP3    H131752   6.079   2.471   2.017
10603TIP3    H231753   6.150   2.570   2.106
10604TIP3   OH231754   0.160   5.901   4.659
10604TIP3    H131755   0.097   5.937   4.596
10604TIP3    H231756   0.106   5.859   4.726
10605TIP3   OH231757   1.368   4.420   0.954
10605TIP3    H131758   1.278   4.388   0.952
10605TIP3    H231759   1.391   4.434   0.862
10606TIP3   OH231760   8.096   0.961   1.421
10606TIP3    H131761   8.030   1.028   1.442
10606TIP3    H231762   8.180   1.003   1.441
10607TIP3   OH231763   7.139   7.727   2.703
10607TIP3    H131764   7.145   7.648   2.649
10607TIP3    H231765   7.075   7.782   2.658
10608TIP3   OH231766   7.165   3.723   2.566
10608TIP3    H131767   7.207   3.801   2.531
10608TIP3    H231768   7.168   3.659   2.495
10609TIP3   OH231769   6.201   0.590   2.966
10609TIP3    H131770   6.133   0.624   2.908
10609TIP3    H231771   6.262   0.663   2.976
10610TIP3   OH231772   7.437   5.766   3.631
10610TIP3    H131773   7.503   5.745   3.566
10610TIP3    H231774   7.393   5.682   3.649
10611TIP3   OH231775   0.791   2.493   4.570
10611TIP3    H131776   0.787   2.399   4.549
10611TIP3    H231777   0.819   2.495   4.662
10612TIP3   OH231778   2.378   4.520   2.614
10612TIP3    H131779   2.318   4.445   2.621
10612TIP3    H231780   2.452   4.496   2.669
10613TIP3   OH231781   5.932   4.291   1.725
10613TIP3    H131782   5.948   4.303   1.819
10613TIP3    H231783   5.839   4.310   1.714
10614TIP3   OH231784   2.033   6.826   3.462
10614TIP3    H131785   2.110   6.882   3.471
10614TIP3    H231786   1.993   6.853   3.379
10615TIP3   OH231787   7.252   7.023   3.338
10615TIP3    H131788   7.265   6.933   3.365
10615TIP3    H231789   7.157   7.031   3.325
10616TIP3   OH231790   4.434   0.635   0.100
10616TIP3    H131791   4.486   0.684   0.037
10616TIP3    H231792   4.488   0.559   0.123
10617TIP3   OH231793   3.261   1.968   1.159
10617TIP3    H131794   3.201   2.004   1.224
10617TIP3    H231795   3.262   2.032   1.088
10618TIP3   OH231796   2.141   3.844   4.982
10618TIP3    H131797   2.092   3.896   5.046
10618TIP3    H231798   2.104   3.870   4.897
10619TIP3   OH231799   6.081   1.048   6.402
10619TIP3    H131800   6.063   1.070   6.494
10619TIP3    H231801   6.052   1.126   6.354
10620TIP3   OH231802   2.549   3.358   2.527
10620TIP3    H131803   2.471   3.405   2.497
10620TIP3    H231804   2.614   3.426   2.544
10621TIP3   OH231805   4.311   5.801   5.009
10621TIP3    H131806   4.380   5.839   5.063
10621TIP3    H231807   4.354   5.775   4.928
10622TIP3   OH231808   2.156   4.819   3.726
10622TIP3    H131809   2.140   4.869   3.806
10622TIP3    H231810   2.100   4.861   3.660
10623TIP3   OH231811   8.194   4.922   2.892
10623TIP3    H131812   8.208   4.843   2.944
10623TIP3    H231813   8.201   4.994   2.955
10624TIP3   OH231814   5.018   6.239   3.820
10624TIP3    H131815   5.062   6.288   3.750
10624TIP3    H231816   4.997   6.305   3.886
10625TIP3   OH231817   4.172   3.343   6.020
10625TIP3    H131818   4.098   3.403   6.031
10625TIP3    H231819   4.161   3.309   5.931
10626TIP3   OH231820   7.583   3.720   2.086
10626TIP3    H131821   7.504   3.770   2.107
10626TIP3    H231822   7.622   3.768   2.013
10627TIP3   OH231823   1.922   6.882   2.712
10627TIP3    H131824   2.016   6.880   2.731
10627TIP3    H231825   1.914   6.841   2.626
10628TIP3   OH231826   8.129   1.025   4.275
10628TIP3    H131827   8.068   0.976   4.221
10628TIP3    H231828   8.210   0.974   4.272
10629TIP3   OH231829   3.422   7.788   1.334
10629TIP3    H131830   3.419   7.805   1.428
10629TIP3    H231831   3.355   7.846   1.297
10630TIP3   OH231832   6.167   0.653   6.338
10630TIP3    H131833   6.098   0.603   6.382
10630TIP3    H231834   6.248   0.619   6.376
10631TIP3   OH231835   2.649   0.786   3.589
10631TIP3    H131836   2.628   0.720   3.523
10631TIP3    H231837   2.581   0.775   3.655
10632TIP3   OH231838   4.571   3.965   1.413
10632TIP3    H131839   4.610   4.016   1.342
10632TIP3    H231840   4.478   3.964   1.393
10633TIP3   OH231841   6.965   4.140   2.699
10633TIP3    H131842   7.000   4.051   2.692
10633TIP3    H231843   6.983   4.165   2.790
10634TIP3   OH231844   6.253   6.194   4.166
10634TIP3    H131845   6.343   6.166   4.149
10634TIP3    H231846   6.241   6.271   4.110
10635TIP3   OH231847   0.328   6.458   6.446
10635TIP3    H131848   0.422   6.445   6.432
10635TIP3    H231849   0.302   6.517   6.375
10636TIP3   OH231850   2.545   4.404   0.047
10636TIP3    H131851   2.597   4.483   0.037
10636TIP3    H231852   2.486   4.404  -0.029
10637TIP3   OH231853   6.405   3.800   5.264
10637TIP3    H131854   6.332   3.831   5.318
10637TIP3    H231855   6.404   3.858   5.187
10638TIP3   OH231856   4.550   0.293   1.862
10638TIP3    H131857   4.575   0.202   1.845
10638TIP3    H231858   4.487   0.313   1.793
10639TIP3   OH231859   6.166   0.125   0.072
10639TIP3    H131860   6.217   0.051   0.106
10639TIP3    H231861   6.177   0.193   0.138
10640TIP3   OH231862   5.318   1.422   3.529
10640TIP3    H131863   5.360   1.435   3.444
10640TIP3    H231864   5.285   1.509   3.553
10641TIP3   OH231865   4.928   1.832   2.291
10641TIP3    H131866   4.965   1.770   2.229
10641TIP3    H231867   4.964   1.917   2.265
10642TIP3   OH231868   5.606   6.130   4.804
10642TIP3    H131869   5.613   6.225   4.815
10642TIP3    H231870   5.662   6.110   4.728
10643TIP3   OH231871   5.333   6.135   1.542
10643TIP3    H131872   5.288   6.081   1.477
10643TIP3    H231873   5.425   6.107   1.537
10644TIP3   OH231874   3.061   7.437   3.837
10644TIP3    H131875   3.095   7.417   3.750
10644TIP3    H231876   2.974   7.475   3.821
10645TIP3   OH231877   0.351   1.790   3.522
10645TIP3    H131878   0.338   1.709   3.473
10645TIP3    H231879   0.377   1.854   3.455
10646TIP3   OH231880   0.784   2.092   6.556
10646TIP3    H131881   0.733   2.019   6.591
10646TIP3    H231882   0.723   2.167   6.558
10647TIP3   OH231883   0.740   5.400   5.502
10647TIP3    H131884   0.718   5.310   5.477
10647TIP3    H231885   0.810   5.426   5.441
10648TIP3   OH231886   4.848   3.572   3.402
10648TIP3    H131887   4.819   3.660   3.378
10648TIP3    H231888   4.907   3.546   3.331
10649TIP3   OH231889   3.312   0.748   5.712
10649TIP3    H131890   3.374   0.812   5.676
10649TIP3    H231891   3.366   0.671   5.732
10650TIP3   OH231892   0.752   3.448   1.834
10650TIP3    H131893   0.682   3.444   1.899
10650TIP3    H231894   0.831   3.467   1.885
10651TIP3   OH231895   6.195   3.876   5.423
10651TIP3    H131896   6.212   3.827   5.503
10651TIP3    H231897   6.102   3.900   5.429
10652TIP3   OH231898   8.054   3.645   4.948
10652TIP3    H131899   8.017   3.566   4.987
10652TIP3    H231900   7.985   3.678   4.890
10653TIP3   OH231901   3.281   4.825   1.237
10653TIP3    H131902   3.351   4.760   1.234
10653TIP3    H231903   3.219   4.791   1.303
10654TIP3   OH231904   0.662   2.737   4.504
10654TIP3    H131905   0.683   2.718   4.412
10654TIP3    H231906   0.651   2.651   4.544
10655TIP3   OH231907   1.891   0.356   1.978
10655TIP3    H131908   1.920   0.291   1.913
10655TIP3    H231909   1.972   0.387   2.018
10656TIP3   OH231910   3.897   5.176   3.099
10656TIP3    H131911   3.956   5.172   3.025
10656TIP3    H231912   3.950   5.148   3.174
10657TIP3   OH231913   2.270   1.838   3.873
10657TIP3    H131914   2.253   1.792   3.791
10657TIP3    H231915   2.236   1.780   3.941
10658TIP3   OH231916   6.808   5.034   6.101
10658TIP3    H131917   6.824   5.068   6.013
10658TIP3    H231918   6.889   5.051   6.148
10659TIP3   OH231919   2.690   6.642   4.181
10659TIP3    H131920   2.671   6.560   4.226
10659TIP3    H231921   2.701   6.618   4.090
10660TIP3   OH231922   0.598   7.117   1.272
10660TIP3    H131923   0.691   7.104   1.291
10660TIP3    H231924   0.554   7.107   1.356
10661TIP3   OH231925   1.856   3.876   1.871
10661TIP3    H131926   1.854   3.825   1.952
10661TIP3    H231927   1.814   3.959   1.895
10662TIP3   OH231928   8.191   2.462   1.830
10662TIP3    H131929   8.203   2.440   1.738
10662TIP3    H231930   8.277   2.452   1.869
10663TIP3   OH231931   1.239   1.246   1.847
10663TIP3    H131932   1.196   1.213   1.926
10663TIP3    H231933   1.283   1.170   1.810
10664TIP3   OH231934   3.377   3.002   4.199
10664TIP3    H131935   3.337   2.952   4.270
10664TIP3    H231936   3.379   2.941   4.124
10665TIP3   OH231937   4.179   7.409   5.230
10665TIP3    H131938   4.167   7.327   5.184
10665TIP3    H231939   4.091   7.432   5.261
10666TIP3   OH231940   1.610   1.080   1.461
10666TIP3    H131941   1.523   1.051   1.435
10666TIP3    H231942   1.664   1.002   1.457
10667TIP3   OH231943   6.521   6.116   3.559
10667TIP3    H131944   6.490   6.177   3.626
10667TIP3    H231945   6.617   6.123   3.564
10668TIP3   OH231946   6.981   1.175   3.902
10668TIP3    H131947   6.976   1.097   3.956
10668TIP3    H231948   7.003   1.143   3.815
10669TIP3   OH231949   6.815   5.389   2.414
10669TIP3    H131950   6.785   5.318   2.470
10669TIP3    H231951   6.833   5.461   2.474
10670TIP3   OH231952   1.606   2.363   4.952
10670TIP3    H131953   1.581   2.446   4.912
10670TIP3    H231954   1.525   2.313   4.958
10671TIP3   OH231955   3.787   4.763   2.927
10671TIP3    H131956   3.801   4.756   2.833
10671TIP3    H231957   3.813   4.677   2.961
10672TIP3   OH231958   5.396   4.216   4.211
10672TIP3    H131959   5.441   4.252   4.134
10672TIP3    H231960   5.464   4.209   4.278
10673TIP3   OH231961   2.477   7.453   1.219
10673TIP3    H131962   2.406   7.511   1.192
10673TIP3    H231963   2.434   7.374   1.252
10674TIP3   OH231964   4.409   1.059   3.875
10674TIP3    H131965   4.363   1.134   3.912
10674TIP3    H231966   4.499   1.067   3.909
10675TIP3   OH231967   5.269   3.990   4.749
10675TIP3    H131968   5.250   4.084   4.749
10675TIP3    H231969   5.186   3.949   4.772
10676TIP3   OH231970   1.427   3.877   1.368
10676TIP3    H131971   1.509   3.831   1.349
10676TIP3    H231972   1.398   3.839   1.451
10677TIP3   OH231973   4.376   1.557   5.326
10677TIP3    H131974   4.425   1.532   5.404
10677TIP3    H231975   4.351   1.648   5.342
10678TIP3   OH231976   5.003   6.340   4.868
10678TIP3    H131977   5.003   6.376   4.779
10678TIP3    H231978   4.995   6.417   4.925
10679TIP3   OH231979   3.862   3.786   3.755
10679TIP3    H131980   3.843   3.775   3.848
10679TIP3    H231981   3.910   3.869   3.751
10680TIP3   OH231982   6.691   4.890   1.851
10680TIP3    H131983   6.630   4.960   1.829
10680TIP3    H231984   6.771   4.934   1.877
10681TIP3   OH231985   3.943   2.881   4.188
10681TIP3    H131986   3.854   2.898   4.156
10681TIP3    H231987   3.941   2.908   4.280
10682TIP3   OH231988   0.031   0.086   5.578
10682TIP3    H131989   0.108   0.094   5.522
10682TIP3    H231990   0.062   0.111   5.665
10683TIP3   OH231991   6.021   3.139   1.887
10683TIP3    H131992   5.964   3.064   1.903
10683TIP3    H231993   5.962   3.214   1.887
10684TIP3   OH231994   0.767   3.966   2.348
10684TIP3    H131995   0.836   3.908   2.380
10684TIP3    H231996   0.808   4.015   2.276
10685TIP3   OH231997   8.251   4.052   4.986
10685TIP3    H131998   8.293   4.051   5.073
10685TIP3    H231999   8.172   4.105   4.998
10686TIP3   OH232000   6.367   3.607   5.463
10686TIP3    H132001   6.444   3.617   5.520
10686TIP3    H232002   6.377   3.675   5.397
10687TIP3   OH232003   4.992   3.596   2.223
10687TIP3    H132004   5.014   3.682   2.188
10687TIP3    H232005   4.912   3.611   2.274
10688TIP3   OH232006   2.154   2.960   5.289
10688TIP3    H132007   2.224   2.922   5.236
10688TIP3    H232008   2.077   2.908   5.268
10689TIP3   OH232009   8.096   0.587   0.132
10689TIP3    H132010   8.055   0.558   0.213
10689TIP3    H232011   8.025   0.590   0.068
10690TIP3   OH232012   5.943   5.488   4.527
10690TIP3    H132013   5.848   5.494   4.530
10690TIP3    H232014   5.967   5.516   4.439
10691TIP3   OH232015   7.177   2.725   4.667
10691TIP3    H132016   7.265   2.690   4.684
10691TIP3    H232017   7.193   2.813   4.633
10692TIP3   OH232018   2.204   6.300   3.153
10692TIP3    H132019   2.203   6.207   3.176
10692TIP3    H232020   2.256   6.342   3.222
10693TIP3   OH232021   6.817   4.395   3.954
10693TIP3    H132022   6.751   4.423   3.891
10693TIP3    H232023   6.891   4.366   3.899
10694TIP3   OH232024   7.501   7.009   0.977
10694TIP3    H132025   7.490   7.010   1.072
10694TIP3    H232026   7.413   6.997   0.942
10695TIP3   OH232027   1.491   1.854   5.201
10695TIP3    H132028   1.511   1.852   5.107
10695TIP3    H232029   1.548   1.922   5.236
10696TIP3   OH232030   3.543   4.660   5.610
10696TIP3    H132031   3.533   4.577   5.657
10696TIP3    H232032   3.579   4.720   5.675
10697TIP3   OH232033   3.666   6.065   0.431
10697TIP3    H132034   3.608   6.056   0.507
10697TIP3    H232035   3.642   6.148   0.392
10698TIP3   OH232036   4.518   2.496   4.061
10698TIP3    H132037   4.452   2.509   4.129
10698TIP3    H232038   4.552   2.584   4.044
10699TIP3   OH232039   7.098   4.255   1.649
10699TIP3    H132040   7.030   4.189   1.633
10699TIP3    H232041   7.179   4.206   1.655
10700TIP3   OH232042   7.165   5.459   2.439
10700TIP3    H132043   7.182   5.553   2.431
10700TIP3    H232044   7.073   5.454   2.468
10701TIP3   OH232045   0.902   5.044   5.269
10701TIP3    H132046   0.975   5.028   5.329
10701TIP3    H232047   0.906   5.138   5.252
10702TIP3   OH232048   1.213   2.762   2.569
10702TIP3    H132049   1.289   2.741   2.622
10702TIP3    H232050   1.208   2.858   2.571
10703TIP3   OH232051   4.502   6.808   1.683
10703TIP3    H132052   4.591   6.802   1.650
10703TIP3    H232053   4.491   6.730   1.739
10704TIP3   OH232054   8.247   2.835   2.885
10704TIP3    H132055   8.339   2.810   2.891
10704TIP3    H232056   8.203   2.775   2.946
10705TIP3   OH232057   0.367   7.007   6.466
10705TIP3    H132058   0.307   7.081   6.453
10705TIP3    H232059   0.323   6.953   6.531
10706TIP3   OH232060   5.255   3.267   3.253
10706TIP3    H132061   5.311   3.343   3.236
10706TIP3    H232062   5.205   3.255   3.172
10707TIP3   OH232063   8.242   5.665   1.970
10707TIP3    H132064   8.200   5.579   1.964
10707TIP3    H232065   8.172   5.725   1.992
10708TIP3   OH232066   3.381   5.282   3.278
10708TIP3    H132067   3.473   5.271   3.254
10708TIP3    H232068   3.332   5.254   3.201
10709TIP3   OH232069   0.092   2.450   5.619
10709TIP3    H132070   0.081   2.543   5.635
10709TIP3    H232071   0.186   2.434   5.633
10710TIP3   OH232072   3.962   3.129   2.827
10710TIP3    H132073   4.012   3.210   2.829
10710TIP3    H232074   4.002   3.074   2.895
10711TIP3   OH232075   4.054   0.408   5.215
10711TIP3    H132076   3.986   0.470   5.191
10711TIP3    H232077   4.105   0.453   5.283
10712TIP3   OH232078   1.865   4.875   4.134
10712TIP3    H132079   1.928   4.878   4.062
10712TIP3    H232080   1.779   4.869   4.091
10713TIP3   OH232081   4.798   7.781   4.882
10713TIP3    H132082   4.817   7.764   4.975
10713TIP3    H232083   4.724   7.724   4.862
10714TIP3   OH232084   3.153   5.531   2.838
10714TIP3    H132085   3.069   5.494   2.811
10714TIP3    H232086   3.197   5.460   2.883
10715TIP3   OH232087   0.828   6.994   1.164
10715TIP3    H132088   0.906   7.035   1.127
10715TIP3    H232089   0.755   7.045   1.129
10716TIP3   OH232090   7.645   3.572   4.236
10716TIP3    H132091   7.725   3.575   4.289
10716TIP3    H232092   7.575   3.558   4.299
10717TIP3   OH232093   5.832   5.993   3.301
10717TIP3    H132094   5.818   5.937   3.378
10717TIP3    H232095   5.888   5.941   3.244
10718TIP3   OH232096   2.032   1.051   2.893
10718TIP3    H132097   2.107   1.086   2.846
10718TIP3    H232098   2.071   0.993   2.960
10719TIP3   OH232099   3.597   6.711   6.239
10719TIP3    H132100   3.510   6.731   6.206
10719TIP3    H232101   3.654   6.774   6.197
10720TIP3   OH232102   6.752   4.264   1.462
10720TIP3    H132103   6.726   4.255   1.370
10720TIP3    H232104   6.669   4.262   1.510
10721TIP3   OH232105   7.073   1.745   3.769
10721TIP3    H132106   7.159   1.739   3.726
10721TIP3    H232107   7.043   1.654   3.773
10722TIP3   OH232108   2.899   4.768   0.863
10722TIP3    H132109   2.914   4.728   0.777
10722TIP3    H232110   2.950   4.715   0.923
10723TIP3   OH232111   1.811   2.828   4.100
10723TIP3    H132112   1.825   2.848   4.008
10723TIP3    H232113   1.785   2.737   4.102
10724TIP3   OH232114   5.840   1.453   3.865
10724TIP3    H132115   5.915   1.505   3.836
10724TIP3    H232116   5.784   1.446   3.788
10725TIP3   OH232117   6.745   6.515   6.120
10725TIP3    H132118   6.787   6.594   6.155
10725TIP3    H232119   6.674   6.497   6.182
10726TIP3   OH232120   3.686   3.088   6.110
10726TIP3    H132121   3.747   3.099   6.037
10726TIP3    H232122   3.741   3.096   6.188
10727TIP3   OH232123   3.678   0.190   1.539
10727TIP3    H132124   3.762   0.146   1.531
10727TIP3    H232125   3.699   0.283   1.532
10728TIP3   OH232126   4.010   4.384   2.676
10728TIP3    H132127   3.982   4.453   2.615
10728TIP3    H232128   4.001   4.303   2.626
10729TIP3   OH232129   5.308   2.333   2.300
10729TIP3    H132130   5.355   2.411   2.331
10729TIP3    H232131   5.231   2.328   2.356
10730TIP3   OH232132   0.627   3.323   2.665
10730TIP3    H132133   0.535   3.300   2.663
10730TIP3    H232134   0.650   3.321   2.758
10731TIP3   OH232135   4.816   6.229   1.431
10731TIP3    H132136   4.863   6.219   1.348
10731TIP3    H232137   4.759   6.304   1.418
10732TIP3   OH232138   6.831   0.461   3.438
10732TIP3    H132139   6.765   0.412   3.486
10732TIP3    H232140   6.908   0.404   3.437
10733TIP3   OH232141   2.924   1.862   2.350
10733TIP3    H132142   2.975   1.880   2.428
10733TIP3    H232143   2.887   1.947   2.324
10734TIP3   OH232144   3.143   5.997   0.035
10734TIP3    H132145   3.215   6.059   0.047
10734TIP3    H232146   3.119   5.971   0.123
10735TIP3   OH232147   1.753   5.412   0.339
10735TIP3    H132148   1.766   5.465   0.417
10735TIP3    H232149   1.834   5.361   0.331
10736TIP3   OH232150   0.084   6.516   5.013
10736TIP3    H132151   0.085   6.611   5.003
10736TIP3    H232152  -0.008   6.491   5.006
10737TIP3   OH232153   2.642   0.768   3.082
10737TIP3    H132154   2.701   0.693   3.093
10737TIP3    H232155   2.659   0.823   3.158
10738TIP3   OH232156   7.221   4.781   0.678
10738TIP3    H132157   7.127   4.776   0.696
10738TIP3    H232158   7.233   4.864   0.633
10739TIP3   OH232159   2.975   6.196   2.962
10739TIP3    H132160   2.888   6.197   3.001
10739TIP3    H232161   3.012   6.282   2.983
10740TIP3   OH232162   5.269   4.045   3.792
10740TIP3    H132163   5.357   4.012   3.808
10740TIP3    H232164   5.230   3.981   3.732
10741TIP3   OH232165   5.227   5.374   1.366
10741TIP3    H132166   5.184   5.300   1.322
10741TIP3    H232167   5.295   5.334   1.419
10742TIP3   OH232168   2.688   5.843   2.008
10742TIP3    H132169   2.673   5.751   1.985
10742TIP3    H232170   2.715   5.841   2.100
10743TIP3   OH232171   6.156   7.783   1.048
10743TIP3    H132172   6.226   7.840   1.016
10743TIP3    H232173   6.180   7.763   1.138
10744TIP3   OH232174   1.279   4.331   5.823
10744TIP3    H132175   1.194   4.322   5.780
10744TIP3    H232176   1.301   4.424   5.814
10745TIP3   OH232177   1.335   6.927   6.491
10745TIP3    H132178   1.326   6.854   6.429
10745TIP3    H232179   1.411   6.976   6.460
10746TIP3   OH232180   2.270   0.613   6.533
10746TIP3    H132181   2.311   0.696   6.510
10746TIP3    H232182   2.241   0.576   6.450
10747TIP3   OH232183   7.656   2.357   4.268
10747TIP3    H132184   7.707   2.313   4.337
10747TIP3    H232185   7.720   2.372   4.198
10748TIP3   OH232186   3.577   5.766   4.481
10748TIP3    H132187   3.515   5.780   4.552
10748TIP3    H232188   3.662   5.756   4.525
10749TIP3   OH232189   4.852   5.393   2.918
10749TIP3    H132190   4.788   5.357   2.857
10749TIP3    H232191   4.909   5.319   2.940
10750TIP3   OH232192   7.771   2.240   1.172
10750TIP3    H132193   7.861   2.249   1.201
10750TIP3    H232194   7.765   2.151   1.138
10751TIP3   OH232195   2.228   6.991   6.044
10751TIP3    H132196   2.244   7.081   6.017
10751TIP3    H232197   2.236   6.939   5.964
10752TIP3   OH232198   2.429   3.123   5.006
10752TIP3    H132199   2.468   3.173   4.934
10752TIP3    H232200   2.391   3.190   5.064
10753TIP3   OH232201   6.017   6.608   4.135
10753TIP3    H132202   5.996   6.541   4.070
10753TIP3    H232203   6.053   6.681   4.083
10754TIP3   OH232204   5.449   6.293   4.470
10754TIP3    H132205   5.485   6.275   4.383
10754TIP3    H232206   5.494   6.231   4.527
10755TIP3   OH232207   7.745   4.122   4.423
10755TIP3    H132208   7.794   4.109   4.504
10755TIP3    H232209   7.693   4.200   4.439
10756TIP3   OH232210   6.876   3.805   0.825
10756TIP3    H132211   6.951   3.860   0.845
10756TIP3    H232212   6.871   3.803   0.730
10757TIP3   OH232213   4.885   7.373   0.613
10757TIP3    H132214   4.871   7.404   0.524
10757TIP3    H232215   4.812   7.314   0.630
10758TIP3   OH232216   4.785   6.281   6.650
10758TIP3    H132217   4.820   6.326   6.727
10758TIP3    H232218   4.758   6.195   6.682
10759TIP3   OH232219   0.084   5.277   1.890
10759TIP3    H132220   0.147   5.253   1.822
10759TIP3    H232221   0.000   5.242   1.858
10760TIP3   OH232222   0.202   2.689   2.831
10760TIP3    H132223   0.280   2.744   2.844
10760TIP3    H232224   0.233   2.600   2.845
10761TIP3   OH232225   2.413   1.914   3.191
10761TIP3    H132226   2.394   1.823   3.216
10761TIP3    H232227   2.477   1.906   3.120
10762TIP3   OH232228   1.035   1.858   0.839
10762TIP3    H132229   0.975   1.924   0.875
10762TIP3    H232230   0.987   1.821   0.765
10763TIP3   OH232231   7.251   1.086   6.603
10763TIP3    H132232   7.305   1.034   6.663
10763TIP3    H232233   7.206   1.148   6.660
10764TIP3   OH232234   1.145   1.548   3.662
10764TIP3    H132235   1.177   1.464   3.628
10764TIP3    H232236   1.130   1.601   3.584
10765TIP3   OH232237   3.986   2.457   1.810
10765TIP3    H132238   4.055   2.482   1.748
10765TIP3    H232239   4.016   2.374   1.847
10766TIP3   OH232240   3.453   2.170   0.032
10766TIP3    H132241   3.389   2.241   0.027
10766TIP3    H232242   3.537   2.212   0.011
10767TIP3   OH232243   6.718   6.365   3.271
10767TIP3    H132244   6.697   6.404   3.356
10767TIP3    H232245   6.641   6.312   3.249
10768TIP3   OH232246   6.207   5.292   3.530
10768TIP3    H132247   6.193   5.259   3.619
10768TIP3    H232248   6.286   5.248   3.501
10769TIP3   OH232249   3.456   5.534   0.496
10769TIP3    H132250   3.364   5.550   0.517
10769TIP3    H232251   3.471   5.586   0.417
10770TIP3   OH232252   6.644   5.291   6.115
10770TIP3    H132253   6.692   5.217   6.079
10770TIP3    H232254   6.688   5.310   6.198
10771TIP3   OH232255   1.599   2.487   4.564
10771TIP3    H132256   1.677   2.458   4.610
10771TIP3    H232257   1.594   2.581   4.581
10772TIP3   OH232258   6.180   7.607   5.869
10772TIP3    H132259   6.269   7.592   5.901
10772TIP3    H232260   6.127   7.617   5.948
10773TIP3   OH232261   4.600   2.982   2.512
10773TIP3    H132262   4.577   2.994   2.604
10773TIP3    H232263   4.639   3.066   2.486
10774TIP3   OH232264   7.693   1.537   3.144
10774TIP3    H132265   7.634   1.611   3.133
10774TIP3    H232266   7.777   1.567   3.109
10775TIP3   OH232267   4.664   5.746   6.772
10775TIP3    H132268   4.609   5.668   6.768
10775TIP3    H232269   4.640   5.796   6.693
10776TIP3   OH232270   2.646   4.107   1.897
10776TIP3    H132271   2.568   4.053   1.910
10776TIP3    H232272   2.657   4.109   1.802
10777TIP3   OH232273   1.167   4.722   6.729
10777TIP3    H132274   1.124   4.777   6.794
10777TIP3    H232275   1.236   4.777   6.693
10778TIP3   OH232276   8.205   0.531   2.336
10778TIP3    H132277   8.241   0.619   2.330
10778TIP3    H232278   8.141   0.526   2.264
10779TIP3   OH232279   1.452   2.854   1.129
10779TIP3    H132280   1.399   2.788   1.174
10779TIP3    H232281   1.466   2.818   1.041
10780TIP3   OH232282   3.499   1.467   4.060
10780TIP3    H132283   3.549   1.547   4.044
10780TIP3    H232284   3.421   1.476   4.005
10781TIP3   OH232285   2.061   3.245   5.347
10781TIP3    H132286   1.980   3.200   5.323
10781TIP3    H232287   2.121   3.175   5.371
10782TIP3   OH232288   3.166   1.382   0.093
10782TIP3    H132289   3.243   1.326   0.098
10782TIP3    H232290   3.179   1.435   0.014
10783TIP3   OH232291   3.734   5.748   1.705
10783TIP3    H132292   3.725   5.670   1.651
10783TIP3    H232293   3.654   5.750   1.758
10784TIP3   OH232294   0.420   0.593   0.099
10784TIP3    H132295   0.352   0.527   0.084
10784TIP3    H232296   0.496   0.561   0.050
10785TIP3   OH232297   5.433   4.635   1.964
10785TIP3    H132298   5.455   4.543   1.948
10785TIP3    H232299   5.340   4.641   1.943
10786TIP3   OH232300   3.428   5.789   1.519
10786TIP3    H132301   3.489   5.759   1.451
10786TIP3    H232302   3.430   5.884   1.512
10787TIP3   OH232303   1.925   2.248   2.829
10787TIP3    H132304   1.948   2.190   2.757
10787TIP3    H232305   1.830   2.258   2.823
10788TIP3   OH232306   7.238   3.077   1.230
10788TIP3    H132307   7.143   3.086   1.234
10788TIP3    H232308   7.257   3.065   1.137
10789TIP3   OH232309   5.069   4.730   5.498
10789TIP3    H132310   5.118   4.811   5.512
10789TIP3    H232311   4.977   4.755   5.506
10790TIP3   OH232312   6.389   1.846   2.635
10790TIP3    H132313   6.388   1.892   2.719
10790TIP3    H232314   6.300   1.852   2.603
10791TIP3   OH232315   1.740   3.112   3.064
10791TIP3    H132316   1.802   3.134   3.133
10791TIP3    H232317   1.746   3.185   3.002
10792TIP3   OH232318   2.914   5.393   6.239
10792TIP3    H132319   2.879   5.482   6.229
10792TIP3    H232320   2.911   5.377   6.333
10793TIP3   OH232321   8.198   7.494   5.550
10793TIP3    H132322   8.170   7.504   5.460
10793TIP3    H232323   8.121   7.517   5.602
10794TIP3   OH232324   3.259   0.038   5.600
10794TIP3    H132325   3.164   0.025   5.602
10794TIP3    H232326   3.291  -0.032   5.543
10795TIP3   OH232327   7.123   0.764   2.684
10795TIP3    H132328   7.103   0.846   2.729
10795TIP3    H232329   7.199   0.728   2.729
10796TIP3   OH232330   6.438   3.165   0.687
10796TIP3    H132331   6.489   3.084   0.686
10796TIP3    H232332   6.448   3.199   0.775
10797TIP3   OH232333   3.061   5.931   2.910
10797TIP3    H132334   3.145   5.924   2.865
10797TIP3    H232335   3.056   6.024   2.935
10798TIP3   OH232336   8.280   2.984   0.101
10798TIP3    H132337   8.324   3.043   0.162
10798TIP3    H232338   8.337   2.906   0.098
10799TIP3   OH232339   2.837   3.676   0.990
10799TIP3    H132340   2.845   3.657   1.083
10799TIP3    H232341   2.814   3.768   0.986
10800TIP3   OH232342   8.145   5.419   1.992
10800TIP3    H132343   8.134   5.331   1.955
10800TIP3    H232344   8.188   5.405   2.076
10801TIP3   OH232345   4.154   6.525   3.572
10801TIP3    H132346   4.157   6.434   3.601
10801TIP3    H232347   4.099   6.569   3.637
10802TIP3   OH232348   7.470   7.511   6.063
10802TIP3    H132349   7.518   7.581   6.108
10802TIP3    H232350   7.438   7.552   5.982
10803TIP3   OH232351   5.962   2.957   5.226
10803TIP3    H132352   5.960   3.015   5.150
10803TIP3    H232353   5.903   2.999   5.289
10804TIP3   OH232354   3.229   5.876   1.280
10804TIP3    H132355   3.302   5.924   1.318
10804TIP3    H232356   3.262   5.841   1.197
10805TIP3   OH232357   5.417   3.303   6.493
10805TIP3    H132358   5.422   3.383   6.545
10805TIP3    H232359   5.345   3.320   6.432
10806TIP3   OH232360   4.708   4.467   0.590
10806TIP3    H132361   4.623   4.438   0.623
10806TIP3    H232362   4.734   4.399   0.528
10807TIP3   OH232363   0.697   7.191   5.127
10807TIP3    H132364   0.656   7.221   5.208
10807TIP3    H232365   0.630   7.206   5.060
10808TIP3   OH232366   3.995   1.639   0.892
10808TIP3    H132367   3.950   1.697   0.953
10808TIP3    H232368   3.937   1.635   0.816
10809TIP3   OH232369   1.971   4.984   2.722
10809TIP3    H132370   2.062   4.995   2.693
10809TIP3    H232371   1.919   4.999   2.643
10810TIP3   OH232372   4.142   6.706   5.142
10810TIP3    H132373   4.207   6.646   5.107
10810TIP3    H232374   4.080   6.650   5.189
10811TIP3   OH232375   6.968   4.936   4.611
10811TIP3    H132376   6.947   4.890   4.529
10811TIP3    H232377   6.883   4.961   4.647
10812TIP3   OH232378   6.252   1.162   0.592
10812TIP3    H132379   6.218   1.247   0.567
10812TIP3    H232380   6.268   1.169   0.686
10813TIP3   OH232381   4.310   6.363   2.511
10813TIP3    H132382   4.235   6.422   2.517
10813TIP3    H232383   4.344   6.359   2.600
10814TIP3   OH232384   3.659   4.084   5.015
10814TIP3    H132385   3.725   4.122   5.074
10814TIP3    H232386   3.709   4.024   4.960
10815TIP3   OH232387   3.330   7.099   2.441
10815TIP3    H132388   3.380   7.148   2.377
10815TIP3    H232389   3.239   7.129   2.429
10816TIP3   OH232390   1.340   0.103   0.905
10816TIP3    H132391   1.271   0.109   0.970
10816TIP3    H232392   1.306   0.043   0.839
10817TIP3   OH232393   5.704   0.524   5.142
10817TIP3    H132394   5.674   0.572   5.065
10817TIP3    H232395   5.625   0.509   5.193
10818TIP3   OH232396   7.822   1.929   4.838
10818TIP3    H132397   7.818   1.846   4.885
10818TIP3    H232398   7.755   1.983   4.880
10819TIP3   OH232399   5.962   6.472   1.521
10819TIP3    H132400   5.940   6.400   1.463
10819TIP3    H232401   5.944   6.437   1.609
10820TIP3   OH232402   1.601   3.137   1.367
10820TIP3    H132403   1.651   3.219   1.362
10820TIP3    H232404   1.638   3.091   1.442
10821TIP3   OH232405   1.233   2.201   6.107
10821TIP3    H132406   1.323   2.229   6.089
10821TIP3    H232407   1.205   2.256   6.179
10822TIP3   OH232408   2.732   7.318   5.015
10822TIP3    H132409   2.682   7.247   4.975
10822TIP3    H232410   2.667   7.379   5.047
10823TIP3   OH232411   5.586   7.299   5.417
10823TIP3    H132412   5.583   7.392   5.396
10823TIP3    H232413   5.612   7.256   5.335
10824TIP3   OH232414   1.486   4.880   6.359
10824TIP3    H132415   1.579   4.862   6.344
10824TIP3    H232416   1.461   4.821   6.430
10825TIP3   OH232417   4.155   6.123   4.965
10825TIP3    H132418   4.137   6.030   4.978
10825TIP3    H232419   4.089   6.152   4.902
10826TIP3   OH232420   7.082   2.369   0.776
10826TIP3    H132421   7.170   2.338   0.799
10826TIP3    H232422   7.091   2.465   0.773
10827TIP3   OH232423   6.736   1.320   3.793
10827TIP3    H132424   6.696   1.246   3.747
10827TIP3    H232425   6.815   1.283   3.833
10828TIP3   OH232426   7.523   6.268   2.348
10828TIP3    H132427   7.482   6.317   2.420
10828TIP3    H232428   7.472   6.293   2.271
10829TIP3   OH232429   1.893   6.064   6.331
10829TIP3    H132430   1.834   5.988   6.335
10829TIP3    H232431   1.838   6.138   6.355
10830TIP3   OH232432   5.764   3.934   5.240
10830TIP3    H132433   5.739   3.893   5.158
10830TIP3    H232434   5.683   3.972   5.274
10831TIP3   OH232435   7.344   1.343   5.222
10831TIP3    H132436   7.382   1.255   5.226
10831TIP3    H232437   7.385   1.390   5.294
10832TIP3   OH232438   5.159   4.655   1.847
10832TIP3    H132439   5.099   4.727   1.862
10832TIP3    H232440   5.180   4.660   1.754
10833TIP3   OH232441   2.014   1.262   1.680
10833TIP3    H132442   1.978   1.184   1.639
10833TIP3    H232443   1.938   1.310   1.714
10834TIP3   OH232444   2.615   7.036   3.645
10834TIP3    H132445   2.659   6.953   3.626
10834TIP3    H232446   2.625   7.087   3.564
10835TIP3   OH232447   6.985   0.236   0.377
10835TIP3    H132448   6.911   0.202   0.428
10835TIP3    H232449   6.959   0.325   0.353
10836TIP3   OH232450   1.251   7.681   4.251
10836TIP3    H132451   1.304   7.631   4.189
10836TIP3    H232452   1.226   7.617   4.318
10837TIP3   OH232453   1.202   7.401   4.025
10837TIP3    H132454   1.214   7.310   4.050
10837TIP3    H232455   1.108   7.417   4.036
10838TIP3   OH232456   3.761   4.652   1.334
10838TIP3    H132457   3.718   4.705   1.267
10838TIP3    H232458   3.694   4.589   1.362
10839TIP3   OH232459   2.309   0.033   5.661
10839TIP3    H132460   2.387   0.064   5.615
10839TIP3    H232461   2.337  -0.048   5.703
10840TIP3   OH232462   1.166   0.591   6.528
10840TIP3    H132463   1.242   0.617   6.475
10840TIP3    H232464   1.093   0.590   6.466
10841TIP3   OH232465   1.106   7.768   3.079
10841TIP3    H132466   1.134   7.684   3.115
10841TIP3    H232467   1.160   7.833   3.124
10842TIP3   OH232468   6.741   0.302   5.187
10842TIP3    H132469   6.662   0.273   5.231
10842TIP3    H232470   6.777   0.222   5.146
10843TIP3   OH232471   3.377   4.501   3.609
10843TIP3    H132472   3.343   4.581   3.567
10843TIP3    H232473   3.469   4.520   3.626
10844TIP3   OH232474   7.256   3.820   0.469
10844TIP3    H132475   7.226   3.885   0.533
10844TIP3    H232476   7.237   3.859   0.384
10845TIP3   OH232477   1.616   7.313   6.594
10845TIP3    H132478   1.601   7.333   6.687
10845TIP3    H232479   1.689   7.252   6.594
10846TIP3   OH232480   6.587   7.596   5.350
10846TIP3    H132481   6.658   7.537   5.374
10846TIP3    H232482   6.606   7.622   5.260
10847TIP3   OH232483   7.955   7.155   5.819
10847TIP3    H132484   7.920   7.170   5.907
10847TIP3    H232485   8.047   7.180   5.826
10848TIP3   OH232486   5.171   0.116   5.636
10848TIP3    H132487   5.097   0.110   5.576
10848TIP3    H232488   5.133   0.099   5.722
10849TIP3   OH232489   2.831   7.287   3.668
10849TIP3    H132490   2.819   7.244   3.583
10849TIP3    H232491   2.745   7.324   3.688
10850TIP3   OH232492   0.310   4.200   3.459
10850TIP3    H132493   0.398   4.238   3.467
10850TIP3    H232494   0.286   4.176   3.548
10851TIP3   OH232495   1.619   2.154   2.428
10851TIP3    H132496   1.671   2.159   2.348
10851TIP3    H232497   1.570   2.236   2.430
10852TIP3   OH232498   0.910   0.726   1.670
10852TIP3    H132499   0.820   0.755   1.683
10852TIP3    H232500   0.963   0.805   1.681
10853TIP3   OH232501   0.364   4.060   0.501
10853TIP3    H132502   0.320   4.144   0.486
10853TIP3    H232503   0.320   4.023   0.577
10854TIP3   OH232504   5.865   3.102   6.313
10854TIP3    H132505   5.920   3.081   6.389
10854TIP3    H232506   5.794   3.155   6.349
10855TIP3   OH232507   4.156   5.007   0.218
10855TIP3    H132508   4.184   4.934   0.163
10855TIP3    H232509   4.169   4.975   0.308
10856TIP3   OH232510   7.754   5.589   0.961
10856TIP3    H132511   7.761   5.496   0.939
10856TIP3    H232512   7.697   5.591   1.038
10857TIP3   OH232513   3.373   4.505   0.248
10857TIP3    H132514   3.308   4.574   0.237
10857TIP3    H232515   3.340   4.452   0.321
10858TIP3   OH232516   7.824   0.915   6.317
10858TIP3    H132517   7.770   0.981   6.361
10858TIP3    H232518   7.781   0.902   6.232
10859TIP3   OH232519   4.887   3.828   6.493
10859TIP3    H132520   4.833   3.818   6.572
10859TIP3    H232521   4.846   3.899   6.444
10860TIP3   OH232522   3.990   7.344   3.223
10860TIP3    H132523   3.986   7.250   3.203
10860TIP3    H232524   4.016   7.348   3.315
10861TIP3   OH232525   5.528   1.945   6.232
10861TIP3    H132526   5.537   1.865   6.180
10861TIP3    H232527   5.501   2.012   6.170
10862TIP3   OH232528   3.909   2.264   3.889
10862TIP3    H132529   3.996   2.286   3.853
10862TIP3    H232530   3.883   2.185   3.842
10863TIP3   OH232531   2.695   1.489   6.564
10863TIP3    H132532   2.722   1.428   6.633
10863TIP3    H232533   2.777   1.515   6.522
10864TIP3   OH232534   4.563   6.222   0.862
10864TIP3    H132535   4.614   6.293   0.902
10864TIP3    H232536   4.629   6.165   0.822
10865TIP3   OH232537   1.323   3.741   4.694
10865TIP3    H132538   1.281   3.813   4.742
10865TIP3    H232539   1.367   3.690   4.762
10866TIP3   OH232540   1.386   4.645   5.967
10866TIP3    H132541   1.411   4.727   6.011
10866TIP3    H232542   1.454   4.632   5.901
10867TIP3   OH232543   2.013   4.912   5.317
10867TIP3    H132544   2.016   4.957   5.232
10867TIP3    H232545   1.987   4.822   5.295
10868TIP3   OH232546   4.654   2.671   5.790
10868TIP3    H132547   4.723   2.735   5.772
10868TIP3    H232548   4.598   2.673   5.713
10869TIP3   OH232549   4.543   4.404   4.532
10869TIP3    H132550   4.621   4.356   4.506
10869TIP3    H232551   4.575   4.492   4.554
10870TIP3   OH232552   6.932   5.873   4.847
10870TIP3    H132553   6.869   5.944   4.854
10870TIP3    H232554   6.889   5.808   4.791
10871TIP3   OH232555   7.731   3.603   1.037
10871TIP3    H132556   7.802   3.566   0.985
10871TIP3    H232557   7.721   3.542   1.110
10872TIP3   OH232558   0.839   1.006   4.280
10872TIP3    H132559   0.771   0.950   4.241
10872TIP3    H232560   0.855   1.074   4.214
10873TIP3   OH232561   7.174   6.964   2.838
10873TIP3    H132562   7.142   6.996   2.753
10873TIP3    H232563   7.183   6.870   2.825
10874TIP3   OH232564   1.747   5.215   5.016
10874TIP3    H132565   1.686   5.279   5.053
10874TIP3    H232566   1.707   5.130   5.034
10875TIP3   OH232567   2.207   7.388   4.188
10875TIP3    H132568   2.132   7.345   4.230
10875TIP3    H232569   2.279   7.327   4.200
10876TIP3   OH232570   5.637   4.900   0.726
10876TIP3    H132571   5.561   4.930   0.775
10876TIP3    H232572   5.658   4.815   0.763
10877TIP3   OH232573   0.463   2.208   5.135
10877TIP3    H132574   0.404   2.141   5.171
10877TIP3    H232575   0.434   2.289   5.177
10878TIP3   OH232576   3.972   6.745   1.531
10878TIP3    H132577   4.058   6.719   1.563
10878TIP3    H232578   3.926   6.662   1.517
10879TIP3   OH232579   4.362   6.023   5.357
10879TIP3    H132580   4.393   6.082   5.425
10879TIP3    H232581   4.341   6.080   5.283
10880TIP3   OH232582   4.296   1.841   5.467
10880TIP3    H132583   4.283   1.823   5.561
10880TIP3    H232584   4.354   1.917   5.465
10881TIP3   OH232585   0.269   7.652   5.810
10881TIP3    H132586   0.336   7.596   5.773
10881TIP3    H232587   0.263   7.727   5.750
10882TIP3   OH232588   0.435   7.578   2.116
10882TIP3    H132589   0.506   7.539   2.167
10882TIP3    H232590   0.479   7.613   2.038
10883TIP3   OH232591   2.628   7.064   1.581
10883TIP3    H132592   2.698   7.123   1.552
10883TIP3    H232593   2.596   7.023   1.501
10884TIP3   OH232594   2.615   2.926   1.018
10884TIP3    H132595   2.657   2.840   1.009
10884TIP3    H232596   2.589   2.931   1.110
10885TIP3   OH232597   1.918   7.782   0.832
10885TIP3    H132598   1.881   7.755   0.748
10885TIP3    H232599   1.842   7.804   0.886
10886TIP3   OH232600   1.190   3.216   1.144
10886TIP3    H132601   1.235   3.190   1.224
10886TIP3    H232602   1.251   3.197   1.073
10887TIP3   OH232603   0.402   5.121   6.064
10887TIP3    H132604   0.353   5.106   5.983
10887TIP3    H232605   0.400   5.216   6.076
10888TIP3   OH232606   1.237   6.068   5.591
10888TIP3    H132607   1.144   6.067   5.609
10888TIP3    H232608   1.248   6.136   5.524
10889TIP3   OH232609   0.642   3.656   1.534
10889TIP3    H132610   0.609   3.641   1.446
10889TIP3    H232611   0.679   3.572   1.560
10890TIP3   OH232612   4.396   5.628   2.123
10890TIP3    H132613   4.388   5.593   2.212
10890TIP3    H232614   4.333   5.701   2.121
10891TIP3   OH232615   0.533   6.356   5.155
10891TIP3    H132616   0.563   6.447   5.155
10891TIP3    H232617   0.446   6.359   5.114
10892TIP3   OH232618   0.841   0.434   5.384
10892TIP3    H132619   0.747   0.416   5.390
10892TIP3    H232620   0.875   0.412   5.471
10893TIP3   OH232621   3.216   3.255   3.844
10893TIP3    H132622   3.283   3.276   3.909
10893TIP3    H232623   3.139   3.233   3.896
10894TIP3   OH232624   3.844   5.715   5.193
10894TIP3    H132625   3.800   5.800   5.196
10894TIP3    H232626   3.810   5.673   5.114
10895TIP3   OH232627   8.250   0.781   3.219
10895TIP3    H132628   8.336   0.795   3.181
10895TIP3    H232629   8.189   0.792   3.146
10896TIP3   OH232630   5.771   0.231   0.570
10896TIP3    H132631   5.721   0.295   0.620
10896TIP3    H232632   5.715   0.209   0.496
10897TIP3   OH232633   3.660   5.032   4.926
10897TIP3    H132634   3.579   5.000   4.885
10897TIP3    H232635   3.696   5.093   4.862
10898TIP3   OH232636   1.656   4.220   3.326
10898TIP3    H132637   1.742   4.196   3.361
10898TIP3    H232638   1.640   4.308   3.359
10899TIP3   OH232639   1.292   6.598   2.486
10899TIP3    H132640   1.309   6.687   2.515
10899TIP3    H232641   1.378   6.555   2.489
10900TIP3   OH232642   3.870   7.497   3.007
10900TIP3    H132643   3.912   7.425   3.054
10900TIP3    H232644   3.909   7.576   3.044
10901TIP3   OH232645   8.157   2.343   4.815
10901TIP3    H132646   8.066   2.336   4.841
10901TIP3    H232647   8.182   2.433   4.835
10902TIP3   OH232648   3.052   0.077   6.246
10902TIP3    H132649   3.053   0.152   6.306
10902TIP3    H232650   2.959   0.059   6.231
10903TIP3   OH232651   6.540   7.188   4.820
10903TIP3    H132652   6.618   7.132   4.822
10903TIP3    H232653   6.492   7.159   4.743
10904TIP3   OH232654   3.667   2.654   0.471
10904TIP3    H132655   3.613   2.590   0.518
10904TIP3    H232656   3.655   2.736   0.519
10905TIP3   OH232657   0.674   1.379   0.196
10905TIP3    H132658   0.620   1.447   0.237
10905TIP3    H232659   0.619   1.301   0.197
10906TIP3   OH232660   1.133   0.089   5.499
10906TIP3    H132661   1.208   0.148   5.508
10906TIP3    H232662   1.156   0.033   5.425
10907TIP3   OH232663   6.805   1.780   6.526
10907TIP3    H132664   6.890   1.736   6.526
10907TIP3    H232665   6.816   1.852   6.588
10908TIP3   OH232666   5.094   4.779   0.910
10908TIP3    H132667   5.181   4.788   0.872
10908TIP3    H232668   5.107   4.724   0.987
10909TIP3   OH232669   0.859   1.615   0.188
10909TIP3    H132670   0.835   1.592   0.098
10909TIP3    H232671   0.779   1.652   0.225
10910TIP3   OH232672   6.367   4.213   4.348
10910TIP3    H132673   6.388   4.138   4.403
10910TIP3    H232674   6.452   4.256   4.333
10911TIP3   OH232675   6.110   6.296   6.602
10911TIP3    H132676   6.071   6.225   6.550
10911TIP3    H232677   6.123   6.367   6.539
10912TIP3   OH232678   4.130   7.096   4.999
10912TIP3    H132679   4.066   7.132   5.061
10912TIP3    H232680   4.085   7.021   4.960
10913TIP3   OH232681   0.237   4.602   5.864
10913TIP3    H132682   0.144   4.595   5.846
10913TIP3    H232683   0.279   4.608   5.778
10914TIP3   OH232684   4.367   4.867   1.083
10914TIP3    H132685   4.413   4.785   1.100
10914TIP3    H232686   4.342   4.862   0.991
10915TIP3   OH232687   5.409   1.725   6.360
10915TIP3    H132688   5.324   1.769   6.352
10915TIP3    H232689   5.436   1.709   6.269
10916TIP3   OH232690   0.344   3.031   3.635
10916TIP3    H132691   0.253   3.024   3.607
10916TIP3    H232692   0.362   3.125   3.632
10917TIP3   OH232693   3.250   4.441   1.051
10917TIP3    H132694   3.340   4.409   1.044
10917TIP3    H232695   3.197   4.362   1.060
10918TIP3   OH232696   7.708   4.870   5.803
10918TIP3    H132697   7.800   4.843   5.793
10918TIP3    H232698   7.669   4.855   5.717
10919TIP3   OH232699   7.594   1.960   0.154
10919TIP3    H132700   7.554   1.925   0.233
10919TIP3    H232701   7.680   1.919   0.150
10920TIP3   OH232702   7.936   1.074   4.831
10920TIP3    H132703   7.925   1.068   4.926
10920TIP3    H232704   8.029   1.093   4.819
10921TIP3   OH232705   6.209   1.689   0.485
10921TIP3    H132706   6.301   1.691   0.511
10921TIP3    H232707   6.198   1.766   0.429
10922TIP3   OH232708   7.645   6.537   6.754
10922TIP3    H132709   7.726   6.577   6.721
10922TIP3    H232710   7.670   6.448   6.778
10923TIP3   OH232711   3.750   6.302   3.043
10923TIP3    H132712   3.744   6.395   3.020
10923TIP3    H232713   3.664   6.266   3.019
10924TIP3   OH232714   8.193   0.242   0.769
10924TIP3    H132715   8.209   0.266   0.860
10924TIP3    H232716   8.226   0.152   0.762
10925TIP3   OH232717   3.911   1.109   2.476
10925TIP3    H132718   3.851   1.176   2.510
10925TIP3    H232719   3.896   1.110   2.382
10926TIP3   OH232720   0.762   7.039   0.830
10926TIP3    H132721   0.775   7.129   0.860
10926TIP3    H232722   0.824   7.029   0.758
10927TIP3   OH232723   1.636   6.687   2.888
10927TIP3    H132724   1.561   6.729   2.930
10927TIP3    H232725   1.610   6.678   2.796
10928TIP3   OH232726   1.526   2.062   0.443
10928TIP3    H132727   1.474   2.038   0.366
10928TIP3    H232728   1.536   2.157   0.437
10929TIP3   OH232729   3.153   3.137   1.302
10929TIP3    H132730   3.238   3.142   1.344
10929TIP3    H232731   3.121   3.049   1.322
10930TIP3   OH232732   3.243   6.552   5.662
10930TIP3    H132733   3.268   6.477   5.717
10930TIP3    H232734   3.149   6.562   5.677
10931TIP3   OH232735   6.974   1.014   4.795
10931TIP3    H132736   7.030   0.937   4.808
10931TIP3    H232737   6.893   0.979   4.757
10932TIP3   OH232738   3.586   4.609   5.039
10932TIP3    H132739   3.609   4.691   5.083
10932TIP3    H232740   3.648   4.602   4.967
10933TIP3   OH232741   0.590   0.754   6.138
10933TIP3    H132742   0.500   0.724   6.130
10933TIP3    H232743   0.596   0.789   6.227
10934TIP3   OH232744   7.734   3.328   4.484
10934TIP3    H132745   7.686   3.246   4.475
10934TIP3    H232746   7.707   3.361   4.570
10935TIP3   OH232747   0.039   4.901   5.150
10935TIP3    H132748  -0.039   4.921   5.202
10935TIP3    H232749   0.111   4.900   5.213
10936TIP3   OH232750   6.944   1.860   3.013
10936TIP3    H132751   6.925   1.783   2.959
10936TIP3    H232752   6.891   1.848   3.091
10937TIP3   OH232753   7.786   2.728   0.367
10937TIP3    H132754   7.695   2.706   0.347
10937TIP3    H232755   7.788   2.739   0.462
10938TIP3   OH232756   0.824   5.428   1.727
10938TIP3    H132757   0.874   5.435   1.646
10938TIP3    H232758   0.855   5.348   1.768
10939TIP3   OH232759   4.026   1.817   0.214
10939TIP3    H132760   4.003   1.910   0.210
10939TIP3    H232761   4.110   1.815   0.259
10940TIP3   OH232762   3.501   3.860   5.345
10940TIP3    H132763   3.466   3.900   5.266
10940TIP3    H232764   3.503   3.766   5.326
10941TIP3   OH232765   7.071   2.822   5.652
10941TIP3    H132766   7.121   2.803   5.732
10941TIP3    H232767   6.979   2.816   5.680
10942TIP3   OH232768   3.136   1.799   1.660
10942TIP3    H132769   3.052   1.843   1.672
10942TIP3    H232770   3.114   1.706   1.655
10943TIP3   OH232771   2.362   4.130   1.920
10943TIP3    H132772   2.357   4.214   1.874
10943TIP3    H232773   2.322   4.147   2.005
10944TIP3   OH232774   1.083   7.083   0.449
10944TIP3    H132775   1.120   7.144   0.385
10944TIP3    H232776   1.146   7.011   0.452
10945TIP3   OH232777   3.542   3.521   3.798
10945TIP3    H132778   3.487   3.533   3.721
10945TIP3    H232779   3.522   3.597   3.854
10946TIP3   OH232780   4.001   6.370   4.403
10946TIP3    H132781   3.989   6.275   4.395
10946TIP3    H232782   3.922   6.407   4.364
10947TIP3   OH232783   8.054   6.961   1.338
10947TIP3    H132784   8.096   6.957   1.423
10947TIP3    H232785   8.054   7.055   1.315
10948TIP3   OH232786   0.186   3.260   3.196
10948TIP3    H132787   0.174   3.170   3.167
10948TIP3    H232788   0.152   3.261   3.285
10949TIP3   OH232789   0.968   2.192   4.133
10949TIP3    H132790   0.950   2.143   4.213
10949TIP3    H232791   0.937   2.281   4.151
10950TIP3   OH232792   7.854   5.767   5.812
10950TIP3    H132793   7.881   5.710   5.740
10950TIP3    H232794   7.825   5.848   5.770
10951TIP3   OH232795   6.405   6.402   1.864
10951TIP3    H132796   6.348   6.465   1.819
10951TIP3    H232797   6.350   6.326   1.881
10952TIP3   OH232798   7.854   0.801   1.475
10952TIP3    H132799   7.837   0.894   1.492
10952TIP3    H232800   7.944   0.799   1.443
10953TIP3   OH232801   6.604   4.707   0.785
10953TIP3    H132802   6.683   4.682   0.832
10953TIP3    H232803   6.585   4.796   0.815
10954TIP3   OH232804   5.320   5.833   5.917
10954TIP3    H132805   5.309   5.891   5.992
10954TIP3    H232806   5.239   5.841   5.868
10955TIP3   OH232807   6.217   2.941   1.348
10955TIP3    H132808   6.144   2.904   1.299
10955TIP3    H232809   6.255   2.867   1.395
10956TIP3   OH232810   3.043   7.771   1.180
10956TIP3    H132811   3.000   7.775   1.265
10956TIP3    H232812   3.079   7.683   1.174
10957TIP3   OH232813   7.619   2.366   5.048
10957TIP3    H132814   7.545   2.353   5.107
10957TIP3    H232815   7.673   2.432   5.090
10958TIP3   OH232816   3.685   1.303   1.014
10958TIP3    H132817   3.598   1.338   0.997
10958TIP3    H232818   3.721   1.286   0.927
10959TIP3   OH232819   6.835   2.065   1.337
10959TIP3    H132820   6.831   1.969   1.340
10959TIP3    H232821   6.763   2.093   1.394
10960TIP3   OH232822   2.925   0.335   4.356
10960TIP3    H132823   3.013   0.315   4.387
10960TIP3    H232824   2.912   0.276   4.281
10961TIP3   OH232825   1.645   6.427   0.522
10961TIP3    H132826   1.617   6.456   0.435
10961TIP3    H232827   1.572   6.448   0.579
10962TIP3   OH232828   8.040   1.692   3.776
10962TIP3    H132829   7.961   1.724   3.733
10962TIP3    H232830   8.024   1.704   3.869
10963TIP3   OH232831   0.747   5.141   4.553
10963TIP3    H132832   0.673   5.167   4.609
10963TIP3    H232833   0.748   5.206   4.483
10964TIP3   OH232834   6.811   2.613   2.489
10964TIP3    H132835   6.797   2.623   2.583
10964TIP3    H232836   6.732   2.652   2.450
10965TIP3   OH232837   7.797   4.522   3.031
10965TIP3    H132838   7.760   4.550   2.947
10965TIP3    H232839   7.802   4.427   3.024
10966TIP3   OH232840   0.870   1.358   3.608
10966TIP3    H132841   0.826   1.440   3.632
10966TIP3    H232842   0.882   1.313   3.691
10967TIP3   OH232843   8.060   4.120   0.896
10967TIP3    H132844   8.105   4.037   0.906
10967TIP3    H232845   7.977   4.109   0.944
10968TIP3   OH232846   7.869   4.545   4.125
10968TIP3    H132847   7.938   4.596   4.168
10968TIP3    H232848   7.820   4.609   4.074
10969TIP3   OH232849   2.400   3.569   1.388
10969TIP3    H132850   2.353   3.587   1.470
10969TIP3    H232851   2.476   3.626   1.391
10970TIP3   OH232852   0.514   0.451   5.081
10970TIP3    H132853   0.492   0.537   5.116
10970TIP3    H232854   0.429   0.413   5.057
10971TIP3   OH232855   0.375   4.762   1.891
10971TIP3    H132856   0.344   4.820   1.961
10971TIP3    H232857   0.466   4.744   1.914
10972TIP3   OH232858   5.406   6.413   4.797
10972TIP3    H132859   5.350   6.482   4.833
10972TIP3    H232860   5.480   6.460   4.758
10973TIP3   OH232861   5.106   1.681   5.822
10973TIP3    H132862   5.109   1.594   5.782
10973TIP3    H232863   5.179   1.728   5.782
10974TIP3   OH232864   2.781   7.598   4.718
10974TIP3    H132865   2.711   7.629   4.660
10974TIP3    H232866   2.760   7.636   4.804
10975TIP3   OH232867   6.799   6.524   4.858
10975TIP3    H132868   6.876   6.561   4.902
10975TIP3    H232869   6.811   6.548   4.766
10976TIP3   OH232870   0.149   1.073   4.550
10976TIP3    H132871   0.094   1.112   4.618
10976TIP3    H232872   0.213   1.140   4.530
10977TIP3   OH232873   5.602   2.743   4.645
10977TIP3    H132874   5.635   2.736   4.555
10977TIP3    H232875   5.635   2.664   4.689
10978TIP3   OH232876   6.542   1.772   5.836
10978TIP3    H132877   6.574   1.696   5.883
10978TIP3    H232878   6.454   1.788   5.872
10979TIP3   OH232879   3.811   2.331   5.098
10979TIP3    H132880   3.799   2.307   5.189
10979TIP3    H232881   3.722   2.347   5.065
10980TIP3   OH232882   1.814   5.676   4.016
10980TIP3    H132883   1.887   5.718   3.970
10980TIP3    H232884   1.835   5.582   4.013
10981TIP3   OH232885   2.502   1.723   3.559
10981TIP3    H132886   2.448   1.646   3.543
10981TIP3    H232887   2.555   1.732   3.480
10982TIP3   OH232888   3.811   6.028   1.563
10982TIP3    H132889   3.769   5.942   1.557
10982TIP3    H232890   3.867   6.023   1.640
10983TIP3   OH232891   6.009   5.948   4.594
10983TIP3    H132892   6.035   5.856   4.592
10983TIP3    H232893   6.030   5.981   4.507
10984TIP3   OH232894   3.014   5.169   0.656
10984TIP3    H132895   3.091   5.115   0.637
10984TIP3    H232896   2.957   5.111   0.707
10985TIP3   OH232897   5.800   2.410   4.319
10985TIP3    H132898   5.728   2.362   4.279
10985TIP3    H232899   5.855   2.436   4.246
10986TIP3   OH232900   4.008   2.113   2.194
10986TIP3    H132901   3.912   2.112   2.193
10986TIP3    H232902   4.032   2.038   2.248
10987TIP3   OH232903   2.457   7.661   6.357
10987TIP3    H132904   2.513   7.733   6.386
10987TIP3    H232905   2.368   7.696   6.360
10988TIP3   OH232906   2.802   5.464   4.894
10988TIP3    H132907   2.765   5.407   4.826
10988TIP3    H232908   2.829   5.403   4.963
10989TIP3   OH232909   4.832   4.807   6.729
10989TIP3    H132910   4.851   4.895   6.761
10989TIP3    H232911   4.773   4.770   6.795
10990TIP3   OH232912   2.815   7.620   0.873
10990TIP3    H132913   2.887   7.556   0.870
10990TIP3    H232914   2.851   7.699   0.833
10991TIP3   OH232915   7.017   1.353   0.497
10991TIP3    H132916   7.005   1.264   0.463
10991TIP3    H232917   7.074   1.395   0.432
10992TIP3   OH232918   8.165   2.964   5.464
10992TIP3    H132919   8.114   2.887   5.487
10992TIP3    H232920   8.205   2.992   5.546
10993TIP3   OH232921   5.370   5.081   6.749
10993TIP3    H132922   5.360   5.076   6.654
10993TIP3    H232923   5.422   5.160   6.763
10994TIP3   OH232924   6.427   0.438   0.358
10994TIP3    H132925   6.503   0.431   0.300
10994TIP3    H232926   6.456   0.398   0.440
10995TIP3   OH232927   5.172   6.645   2.945
10995TIP3    H132928   5.106   6.688   2.999
10995TIP3    H232929   5.224   6.716   2.908
10996TIP3   OH232930   5.876   3.510   2.073
10996TIP3    H132931   5.856   3.543   1.985
10996TIP3    H232932   5.943   3.569   2.107
10997TIP3   OH232933   1.151   1.567   0.672
10997TIP3    H132934   1.069   1.607   0.643
10997TIP3    H232935   1.212   1.582   0.600
10998TIP3   OH232936   5.963   3.455   6.541
10998TIP3    H132937   5.969   3.370   6.585
10998TIP3    H232938   6.015   3.514   6.596
10999TIP3   OH232939   1.573   3.864   6.517
10999TIP3    H132940   1.513   3.791   6.497
10999TIP3    H232941   1.617   3.882   6.434
11000TIP3   OH232942   5.541   2.264   6.731
11000TIP3    H132943   5.583   2.179   6.737
11000TIP3    H232944   5.494   2.263   6.648
11001TIP3   OH232945   2.627   0.940   1.712
11001TIP3    H132946   2.639   1.019   1.660
11001TIP3    H232947   2.541   0.950   1.752
11002TIP3   OH232948   3.116   0.310   0.141
11002TIP3    H132949   3.104   0.300   0.236
11002TIP3    H232950   3.090   0.401   0.125
11003TIP3   OH232951   1.639   4.073   4.817
11003TIP3    H132952   1.607   4.080   4.906
11003TIP3    H232953   1.669   4.161   4.795
11004TIP3   OH232954   4.269   3.414   5.340
11004TIP3    H132955   4.302   3.325   5.344
11004TIP3    H232956   4.302   3.449   5.258
11005TIP3   OH232957   4.523   4.678   4.304
11005TIP3    H132958   4.491   4.665   4.393
11005TIP3    H232959   4.445   4.669   4.249
11006TIP3   OH232960   6.339   7.780   0.457
11006TIP3    H132961   6.363   7.846   0.392
11006TIP3    H232962   6.416   7.773   0.514
11007TIP3   OH232963   5.523   1.605   3.210
11007TIP3    H132964   5.484   1.659   3.279
11007TIP3    H232965   5.520   1.516   3.244
11008TIP3   OH232966   1.985   1.853   0.263
11008TIP3    H132967   1.960   1.854   0.171
11008TIP3    H232968   1.915   1.901   0.308
11009TIP3   OH232969   4.582   6.218   2.586
11009TIP3    H132970   4.591   6.234   2.492
11009TIP3    H232971   4.612   6.299   2.628
11010TIP3   OH232972   6.746   7.065   4.132
11010TIP3    H132973   6.822   7.008   4.141
11010TIP3    H232974   6.775   7.135   4.074
11011TIP3   OH232975   5.958   3.949   3.152
11011TIP3    H132976   6.018   3.964   3.225
11011TIP3    H232977   5.966   4.027   3.098
11012TIP3   OH232978   7.005   3.692   5.799
11012TIP3    H132979   6.992   3.721   5.890
11012TIP3    H232980   6.935   3.627   5.785
11013TIP3   OH232981   3.367   0.766   3.814
11013TIP3    H132982   3.310   0.714   3.757
11013TIP3    H232983   3.433   0.703   3.845
11014TIP3   OH232984   2.120   2.802   2.499
11014TIP3    H132985   2.068   2.853   2.438
11014TIP3    H232986   2.057   2.749   2.547
11015TIP3   OH232987   2.345   3.821   2.053
11015TIP3    H132988   2.346   3.884   1.981
11015TIP3    H232989   2.309   3.741   2.014
11016TIP3   OH232990   5.710   1.722   6.737
11016TIP3    H132991   5.759   1.671   6.672
11016TIP3    H232992   5.620   1.693   6.726
11017TIP3   OH232993   2.138   2.271   4.202
11017TIP3    H132994   2.072   2.239   4.141
11017TIP3    H232995   2.091   2.331   4.259
11018TIP3   OH232996   0.805   3.894   0.614
11018TIP3    H132997   0.866   3.878   0.687
11018TIP3    H232998   0.844   3.846   0.541
11019TIP3   OH232999   6.656   5.248   6.613
11019TIP3    H133000   6.588   5.187   6.584
11019TIP3    H233001   6.722   5.193   6.656
11020TIP3   OH233002   0.254   5.716   2.218
11020TIP3    H133003   0.251   5.782   2.287
11020TIP3    H233004   0.241   5.633   2.264
11021TIP3   OH233005   2.727   6.239   6.753
11021TIP3    H133006   2.808   6.196   6.727
11021TIP3    H233007   2.670   6.168   6.784
11022TIP3   OH233008   8.002   0.453   4.500
11022TIP3    H133009   7.987   0.448   4.595
11022TIP3    H233010   8.010   0.547   4.483
11023TIP3   OH233011   7.650   2.384   0.670
11023TIP3    H133012   7.661   2.391   0.765
11023TIP3    H233013   7.593   2.457   0.647
11024TIP3   OH233014   2.533   6.723   6.724
11024TIP3    H133015   2.590   6.774   6.781
11024TIP3    H233016   2.542   6.633   6.755
11025TIP3   OH233017   6.060   0.063   3.771
11025TIP3    H133018   6.066  -0.031   3.784
11025TIP3    H233019   6.047   0.099   3.859
11026TIP3   OH233020   2.131   0.433   2.150
11026TIP3    H133021   2.193   0.367   2.119
11026TIP3    H233022   2.176   0.475   2.224
11027TIP3   OH233023   1.365   2.091   4.229
11027TIP3    H133024   1.364   2.004   4.269
11027TIP3    H233025   1.457   2.118   4.230
11028TIP3   OH233026   0.150   2.059   1.707
11028TIP3    H133027   0.062   2.063   1.745
11028TIP3    H233028   0.135   2.034   1.616
11029TIP3   OH233029   4.134   6.899   4.689
11029TIP3    H133030   4.081   6.868   4.762
11029TIP3    H233031   4.076   6.895   4.613
11030TIP3   OH233032   2.792   2.920   5.876
11030TIP3    H133033   2.801   2.831   5.841
11030TIP3    H233034   2.880   2.942   5.907
11031TIP3   OH233035   8.085   0.954   3.853
11031TIP3    H133036   7.996   0.988   3.859
11031TIP3    H233037   8.089   0.883   3.917
11032TIP3   OH233038   8.288   2.525   1.185
11032TIP3    H133039   8.249   2.551   1.269
11032TIP3    H233040   8.301   2.431   1.193
11033TIP3   OH233041   1.781   4.754   0.301
11033TIP3    H133042   1.818   4.680   0.253
11033TIP3    H233043   1.757   4.718   0.386
11034TIP3   OH233044   6.386   4.007   2.518
11034TIP3    H133045   6.317   4.016   2.584
11034TIP3    H233046   6.373   3.919   2.482
11035TIP3   OH233047   4.905   3.551   3.787
11035TIP3    H133048   4.936   3.566   3.697
11035TIP3    H233049   4.840   3.481   3.778
11036TIP3   OH233050   0.564   1.594   5.675
11036TIP3    H133051   0.630   1.658   5.700
11036TIP3    H233052   0.614   1.514   5.657
11037TIP3   OH233053   7.822   6.629   1.858
11037TIP3    H133054   7.885   6.652   1.789
11037TIP3    H233055   7.784   6.713   1.884
11038TIP3   OH233056   6.741   7.606   4.492
11038TIP3    H133057   6.757   7.514   4.512
11038TIP3    H233058   6.703   7.606   4.404
11039TIP3   OH233059   6.947   0.630   1.520
11039TIP3    H133060   7.037   0.598   1.514
11039TIP3    H233061   6.946   0.685   1.598
11040TIP3   OH233062   7.550   5.844   0.706
11040TIP3    H133063   7.528   5.829   0.798
11040TIP3    H233064   7.573   5.937   0.702
11041TIP3   OH233065   1.481   4.717   2.302
11041TIP3    H133066   1.514   4.713   2.392
11041TIP3    H233067   1.554   4.754   2.251
11042TIP3   OH233068   4.722   5.963   4.225
11042TIP3    H133069   4.690   5.917   4.148
11042TIP3    H233070   4.816   5.974   4.209
11043TIP3   OH233071   3.400   2.368   4.526
11043TIP3    H133072   3.475   2.399   4.577
11043TIP3    H233073   3.328   2.363   4.589
11044TIP3   OH233074   0.189   3.915   6.651
11044TIP3    H133075   0.223   4.004   6.640
11044TIP3    H233076   0.165   3.909   6.744
11045TIP3   OH233077   5.968   3.439   0.630
11045TIP3    H133078   5.954   3.479   0.715
11045TIP3    H233079   5.982   3.513   0.571
11046TIP3   OH233080   7.334   6.045   0.279
11046TIP3    H133081   7.280   5.971   0.253
11046TIP3    H233082   7.332   6.044   0.375
11047TIP3   OH233083   5.975   1.073   5.006
11047TIP3    H133084   5.937   1.149   5.048
11047TIP3    H233085   5.935   0.998   5.050
11048TIP3   OH233086   4.706   5.387   6.524
11048TIP3    H133087   4.694   5.444   6.600
11048TIP3    H233088   4.668   5.303   6.550
11049TIP3   OH233089   2.971   4.571   1.547
11049TIP3    H133090   3.016   4.620   1.616
11049TIP3    H233091   2.921   4.504   1.593
11050TIP3   OH233092   3.091   0.234   6.490
11050TIP3    H133093   3.055   0.315   6.453
11050TIP3    H233094   3.108   0.256   6.582
11051TIP3   OH233095   5.340   1.660   2.415
11051TIP3    H133096   5.379   1.619   2.492
11051TIP3    H233097   5.256   1.615   2.404
11052TIP3   OH233098   0.313   0.563   2.838
11052TIP3    H133099   0.371   0.637   2.821
11052TIP3    H233100   0.363   0.486   2.811
11053TIP3   OH233101   0.331   4.111   5.262
11053TIP3    H133102   0.390   4.134   5.191
11053TIP3    H233103   0.244   4.110   5.222
11054TIP3   OH233104   0.587   2.570   0.696
11054TIP3    H133105   0.492   2.576   0.690
11054TIP3    H233106   0.606   2.585   0.789
11055TIP3   OH233107   8.215   1.106   1.186
11055TIP3    H133108   8.285   1.043   1.173
11055TIP3    H233109   8.139   1.067   1.143
11056TIP3   OH233110   5.853   1.229   5.754
11056TIP3    H133111   5.822   1.292   5.689
11056TIP3    H233112   5.832   1.270   5.839
11057TIP3   OH233113   3.343   3.988   0.709
11057TIP3    H133114   3.407   4.058   0.726
11057TIP3    H233115   3.341   3.937   0.789
11058TIP3   OH233116   5.145   0.714   3.225
11058TIP3    H133117   5.171   0.759   3.305
11058TIP3    H233118   5.094   0.780   3.176
11059TIP3   OH233119   6.921   2.381   5.117
11059TIP3    H133120   6.844   2.415   5.070
11059TIP3    H233121   6.884   2.332   5.191
11060TIP3   OH233122   2.219   7.001   2.579
11060TIP3    H133123   2.232   7.086   2.537
11060TIP3    H233124   2.194   6.942   2.508
11061TIP3   OH233125   0.526   6.745   5.763
11061TIP3    H133126   0.578   6.787   5.695
11061TIP3    H233127   0.555   6.787   5.844
11062TIP3   OH233128   2.161   3.599   4.829
11062TIP3    H133129   2.100   3.635   4.764
11062TIP3    H233130   2.167   3.666   4.897
11063TIP3   OH233131   4.037   3.047   0.944
11063TIP3    H133132   4.025   2.973   1.003
11063TIP3    H233133   4.079   3.114   0.999
11064TIP3   OH233134   0.645   6.265   4.299
11064TIP3    H133135   0.685   6.291   4.383
11064TIP3    H233136   0.664   6.172   4.292
11065TIP3   OH233137   1.547   0.428   5.558
11065TIP3    H133138   1.524   0.503   5.612
11065TIP3    H233139   1.642   0.433   5.548
11066TIP3   OH233140   1.372   5.529   2.326
11066TIP3    H133141   1.318   5.500   2.252
11066TIP3    H233142   1.370   5.456   2.387
11067TIP3   OH233143   5.311   5.035   6.494
11067TIP3    H133144   5.223   4.998   6.502
11067TIP3    H233145   5.297   5.123   6.457
11068TIP3   OH233146   4.522   3.652   3.210
11068TIP3    H133147   4.446   3.703   3.182
11068TIP3    H233148   4.588   3.717   3.232
11069TIP3   OH233149   6.144   5.594   1.203
11069TIP3    H133150   6.236   5.596   1.175
11069TIP3    H233151   6.146   5.625   1.293
11070TIP3   OH233152   2.720   2.785   1.921
11070TIP3    H133153   2.752   2.706   1.964
11070TIP3    H233154   2.625   2.778   1.924
11071TIP3   OH233155   5.639   4.610   0.256
11071TIP3    H133156   5.607   4.693   0.221
11071TIP3    H233157   5.563   4.552   0.256
11072TIP3   OH233158   4.481   5.758   1.511
11072TIP3    H133159   4.477   5.835   1.568
11072TIP3    H233160   4.398   5.759   1.463
11073TIP3   OH233161   3.668   1.150   3.710
11073TIP3    H133162   3.578   1.117   3.706
11073TIP3    H233163   3.711   1.111   3.635
11074TIP3   OH233164   5.538   1.851   1.750
11074TIP3    H133165   5.552   1.757   1.757
11074TIP3    H233166   5.622   1.885   1.719
11075TIP3   OH233167   5.738   4.896   3.633
11075TIP3    H133168   5.649   4.933   3.629
11075TIP3    H233169   5.773   4.925   3.717
11076TIP3   OH233170   5.217   4.948   5.995
11076TIP3    H133171   5.180   5.035   6.009
11076TIP3    H233172   5.165   4.910   5.925
11077TIP3   OH233173   5.662   3.559   6.729
11077TIP3    H133174   5.703   3.621   6.668
11077TIP3    H233175   5.727   3.546   6.797
11078TIP3   OH233176   2.477   4.974   2.778
11078TIP3    H133177   2.492   4.950   2.686
11078TIP3    H233178   2.412   4.910   2.809
11079TIP3   OH233179   2.480   2.973   6.702
11079TIP3    H133180   2.534   2.928   6.637
11079TIP3    H233181   2.395   2.983   6.658
11080TIP3   OH233182   0.355   1.342   6.408
11080TIP3    H133183   0.327   1.343   6.316
11080TIP3    H233184   0.451   1.343   6.403
11081TIP3   OH233185   3.025   7.106   3.784
11081TIP3    H133186   3.059   7.171   3.846
11081TIP3    H233187   2.985   7.158   3.714
11082TIP3   OH233188   7.386   4.952   4.529
11082TIP3    H133189   7.390   4.870   4.479
11082TIP3    H233190   7.418   4.929   4.616
11083TIP3   OH233191   0.829   1.194   4.503
11083TIP3    H133192   0.832   1.132   4.430
11083TIP3    H233193   0.745   1.178   4.545
11084TIP3   OH233194   3.941   1.593   5.548
11084TIP3    H133195   3.906   1.596   5.637
11084TIP3    H233196   3.944   1.685   5.521
11085TIP3   OH233197   6.863   1.032   2.946
11085TIP3    H133198   6.783   1.066   2.985
11085TIP3    H233199   6.931   1.047   3.012
11086TIP3   OH233200   4.388   1.713   5.996
11086TIP3    H133201   4.421   1.706   5.906
11086TIP3    H233202   4.369   1.806   6.007
11087TIP3   OH233203   2.083   3.550   1.524
11087TIP3    H133204   2.054   3.641   1.531
11087TIP3    H233205   2.160   3.545   1.580
11088TIP3   OH233206   6.362   5.006   4.353
11088TIP3    H133207   6.288   4.978   4.406
11088TIP3    H233208   6.350   5.100   4.342
11089TIP3   OH233209   6.611   6.275   0.841
11089TIP3    H133210   6.631   6.259   0.748
11089TIP3    H233211   6.653   6.359   0.860
11090TIP3   OH233212   2.317   4.581   3.676
11090TIP3    H133213   2.292   4.571   3.584
11090TIP3    H233214   2.248   4.636   3.714
11091TIP3   OH233215   6.190   3.667   5.835
11091TIP3    H133216   6.162   3.728   5.903
11091TIP3    H233217   6.191   3.720   5.755
11092TIP3   OH233218   5.766   6.196   2.691
11092TIP3    H133219   5.771   6.199   2.787
11092TIP3    H233220   5.811   6.276   2.663
11093TIP3   OH233221   5.471   0.051   5.866
11093TIP3    H133222   5.377   0.061   5.883
11093TIP3    H233223   5.513   0.081   5.946
11094TIP3   OH233224   0.270   3.929   1.031
11094TIP3    H133225   0.193   3.974   1.065
11094TIP3    H233226   0.283   3.965   0.944
11095TIP3   OH233227   4.308   7.045   2.466
11095TIP3    H133228   4.327   6.981   2.397
11095TIP3    H233229   4.390   7.053   2.515
11096TIP3   OH233230   0.061   0.788   2.425
11096TIP3    H133231   0.031   0.853   2.361
11096TIP3    H233232   0.156   0.781   2.410
11097TIP3   OH233233   5.925   0.554   0.686
11097TIP3    H133234   5.929   0.536   0.592
11097TIP3    H233235   5.991   0.496   0.724
11098TIP3   OH233236   1.243   1.265   0.273
11098TIP3    H133237   1.228   1.354   0.305
11098TIP3    H233238   1.160   1.241   0.230
11099TIP3   OH233239   4.904   2.207   0.347
11099TIP3    H133240   4.832   2.171   0.295
11099TIP3    H233241   4.893   2.302   0.341
11100TIP3   OH233242   1.490   2.996   0.770
11100TIP3    H133243   1.510   2.903   0.772
11100TIP3    H233244   1.472   3.019   0.862
11101TIP3   OH233245   1.987   4.593   5.789
11101TIP3    H133246   2.006   4.508   5.751
11101TIP3    H233247   2.065   4.615   5.839
11102TIP3   OH233248   0.137   1.508   3.792
11102TIP3    H133249   0.123   1.598   3.762
11102TIP3    H233250   0.211   1.513   3.852
11103TIP3   OH233251   6.000   5.574   0.773
11103TIP3    H133252   6.009   5.509   0.842
11103TIP3    H233253   5.908   5.599   0.775
11104TIP3   OH233254   2.383   3.252   6.302
11104TIP3    H133255   2.390   3.226   6.210
11104TIP3    H233256   2.472   3.244   6.336
11105TIP3   OH233257   1.845   0.255   4.272
11105TIP3    H133258   1.767   0.256   4.328
11105TIP3    H233259   1.817   0.299   4.192
11106TIP3   OH233260   5.205   5.295   4.133
11106TIP3    H133261   5.166   5.222   4.182
11106TIP3    H233262   5.169   5.373   4.174
11107TIP3   OH233263   3.508   2.331   1.330
11107TIP3    H133264   3.599   2.322   1.359
11107TIP3    H233265   3.456   2.310   1.408
11108TIP3   OH233266   0.742   4.608   0.241
11108TIP3    H133267   0.789   4.691   0.241
11108TIP3    H233268   0.686   4.612   0.163
11109TIP3   OH233269   5.574   7.697   2.854
11109TIP3    H133270   5.633   7.681   2.929
11109TIP3    H233271   5.487   7.681   2.889
11110TIP3   OH233272   2.986   4.344   0.664
11110TIP3    H133273   2.950   4.274   0.719
11110TIP3    H233274   3.067   4.308   0.628
11111TIP3   OH233275   7.074   0.354   1.022
11111TIP3    H133276   7.001   0.308   1.063
11111TIP3    H233277   7.073   0.325   0.931
11112TIP3   OH233278   2.771   3.560   4.418
11112TIP3    H133279   2.733   3.571   4.505
11112TIP3    H233280   2.706   3.507   4.371
11113TIP3   OH233281   5.172   0.025   2.710
11113TIP3    H133282   5.120  -0.042   2.754
11113TIP3    H233283   5.262   0.010   2.739
11114TIP3   OH233284   0.262   2.442   2.954
11114TIP3    H133285   0.199   2.410   3.019
11114TIP3    H233286   0.290   2.364   2.907
11115TIP3   OH233287   4.621   7.666   0.233
11115TIP3    H133288   4.587   7.602   0.296
11115TIP3    H233289   4.545   7.690   0.180
11116TIP3   OH233290   7.864   4.946   4.491
11116TIP3    H133291   7.785   4.903   4.524
11116TIP3    H233292   7.833   5.002   4.420
11117TIP3   OH233293   3.238   7.619   3.949
11117TIP3    H133294   3.164   7.564   3.922
11117TIP3    H233295   3.200   7.705   3.963
11118TIP3   OH233296   2.026   5.983   2.581
11118TIP3    H133297   1.961   5.968   2.513
11118TIP3    H233298   2.039   6.078   2.581
11119TIP3   OH233299   4.075   5.867   6.237
11119TIP3    H133300   4.103   5.904   6.153
11119TIP3    H233301   4.146   5.888   6.298
11120TIP3   OH233302   6.306   1.120   2.241
11120TIP3    H133303   6.300   1.063   2.318
11120TIP3    H233304   6.399   1.138   2.232
11121TIP3   OH233305   4.145   1.151   2.320
11121TIP3    H133306   4.198   1.101   2.257
11121TIP3    H233307   4.055   1.139   2.290
11122TIP3   OH233308   6.761   5.211   0.274
11122TIP3    H133309   6.848   5.245   0.297
11122TIP3    H233310   6.758   5.218   0.179
11123TIP3   OH233311   4.283   0.417   2.430
11123TIP3    H133312   4.249   0.369   2.506
11123TIP3    H233313   4.345   0.480   2.467
11124TIP3   OH233314   6.758   5.624   4.493
11124TIP3    H133315   6.686   5.588   4.441
11124TIP3    H233316   6.738   5.599   4.583
11125TIP3   OH233317   4.020   4.534   1.248
11125TIP3    H133318   3.928   4.551   1.270
11125TIP3    H233319   4.025   4.439   1.236
11126TIP3   OH233320   1.788   1.192   3.115
11126TIP3    H133321   1.758   1.168   3.203
11126TIP3    H233322   1.815   1.109   3.075
11127TIP3   OH233323   1.662   4.567   3.925
11127TIP3    H133324   1.730   4.544   3.861
11127TIP3    H233325   1.581   4.535   3.886
11128TIP3   OH233326   0.515   5.556   1.981
11128TIP3    H133327   0.521   5.474   1.933
11128TIP3    H233328   0.432   5.550   2.029
11129TIP3   OH233329   5.948   4.223   3.085
11129TIP3    H133330   6.010   4.274   3.032
11129TIP3    H233331   5.869   4.276   3.087
11130TIP3   OH233332   7.288   5.597   3.811
11130TIP3    H133333   7.294   5.547   3.893
11130TIP3    H233334   7.273   5.531   3.744
11131TIP3   OH233335   4.129   1.320   4.196
11131TIP3    H133336   4.101   1.230   4.178
11131TIP3    H233337   4.051   1.362   4.232
11132TIP3   OH233338   1.725   6.429   2.927
11132TIP3    H133339   1.696   6.517   2.906
11132TIP3    H233340   1.820   6.436   2.939
11133TIP3   OH233341   1.537   6.731   0.274
11133TIP3    H133342   1.519   6.825   0.274
11133TIP3    H233343   1.631   6.724   0.290
11134TIP3   OH233344   7.127   2.011   4.355
11134TIP3    H133345   7.189   2.061   4.300
11134TIP3    H233346   7.046   2.061   4.350
11135TIP3   OH233347   8.197   1.762   4.223
11135TIP3    H133348   8.197   1.850   4.261
11135TIP3    H233349   8.155   1.773   4.138
11136TIP3   OH233350   5.939   0.205   4.261
11136TIP3    H133351   5.866   0.188   4.201
11136TIP3    H233352   6.017   0.200   4.207
11137TIP3   OH233353   4.721   2.321   6.596
11137TIP3    H133354   4.698   2.375   6.672
11137TIP3    H233355   4.753   2.239   6.633
11138TIP3   OH233356   6.375   0.850   0.321
11138TIP3    H133357   6.448   0.791   0.299
11138TIP3    H233358   6.415   0.937   0.326
11139TIP3   OH233359   4.606   5.616   1.961
11139TIP3    H133360   4.682   5.624   2.017
11139TIP3    H233361   4.531   5.617   2.021
11140TIP3   OH233362   5.272   5.658   4.293
11140TIP3    H133363   5.269   5.613   4.378
11140TIP3    H233364   5.212   5.609   4.238
11141TIP3   OH233365   4.369   7.436   4.533
11141TIP3    H133366   4.409   7.397   4.611
11141TIP3    H233367   4.442   7.450   4.473
11142TIP3   OH233368   6.533   5.213   2.506
11142TIP3    H133369   6.494   5.186   2.423
11142TIP3    H233370   6.619   5.171   2.507
11143TIP3   OH233371   2.364   0.982   4.583
11143TIP3    H133372   2.344   0.938   4.500
11143TIP3    H233373   2.283   1.025   4.608
11144TIP3   OH233374   5.328   3.521   0.302
11144TIP3    H133375   5.256   3.564   0.348
11144TIP3    H233376   5.405   3.572   0.326
11145TIP3   OH233377   0.977   6.481   4.636
11145TIP3    H133378   0.911   6.524   4.691
11145TIP3    H233379   1.028   6.554   4.599
11146TIP3   OH233380   2.655   4.688   1.307
11146TIP3    H133381   2.665   4.605   1.261
11146TIP3    H233382   2.720   4.746   1.265
11147TIP3   OH233383   1.201   0.646   5.392
11147TIP3    H133384   1.274   0.653   5.331
11147TIP3    H233385   1.183   0.553   5.398
11148TIP3   OH233386   2.027   4.551   5.029
11148TIP3    H133387   1.958   4.487   5.011
11148TIP3    H233388   2.108   4.501   5.025
11149TIP3   OH233389   5.065   7.714   0.015
11149TIP3    H133390   4.975   7.683   0.027
11149TIP3    H233391   5.106   7.647  -0.039
11150TIP3   OH233392   5.452   2.351   5.841
11150TIP3    H133393   5.387   2.355   5.772
11150TIP3    H233394   5.504   2.430   5.831
11151TIP3   OH233395   1.686   1.523   3.268
11151TIP3    H133396   1.689   1.530   3.363
11151TIP3    H233397   1.632   1.446   3.251
11152TIP3   OH233398   6.773   0.636   1.168
11152TIP3    H133399   6.720   0.689   1.228
11152TIP3    H233400   6.799   0.560   1.221
11153TIP3   OH233401   5.400   6.909   5.191
11153TIP3    H133402   5.466   6.904   5.260
11153TIP3    H233403   5.320   6.935   5.236
11154TIP3   OH233404   5.039   2.172   0.845
11154TIP3    H133405   5.013   2.081   0.826
11154TIP3    H233406   4.971   2.225   0.805
11155TIP3   OH233407   1.230   1.189   6.029
11155TIP3    H133408   1.168   1.188   5.957
11155TIP3    H233409   1.186   1.141   6.100
11156TIP3   OH233410   6.826   4.368   5.147
11156TIP3    H133411   6.907   4.417   5.135
11156TIP3    H233412   6.792   4.356   5.058
11157TIP3   OH233413   6.365   5.147   3.159
11157TIP3    H133414   6.441   5.091   3.144
11157TIP3    H233415   6.290   5.086   3.161
11158TIP3   OH233416   4.578   3.273   3.899
11158TIP3    H133417   4.649   3.289   3.961
11158TIP3    H233418   4.561   3.179   3.906
11159TIP3   OH233419   0.971   4.836   5.534
11159TIP3    H133420   0.983   4.820   5.440
11159TIP3    H233421   1.053   4.805   5.574
11160TIP3   OH233422   7.286   5.952   4.211
11160TIP3    H133423   7.277   5.903   4.292
11160TIP3    H233424   7.199   5.951   4.172
11161TIP3   OH233425   1.705   1.946   5.688
11161TIP3    H133426   1.746   1.866   5.656
11161TIP3    H233427   1.675   1.924   5.776
11162TIP3   OH233428   6.904   1.256   5.682
11162TIP3    H133429   6.873   1.347   5.685
11162TIP3    H233430   6.985   1.257   5.733
11163TIP3   OH233431   6.321   6.823   1.882
11163TIP3    H133432   6.356   6.886   1.945
11163TIP3    H233433   6.251   6.869   1.837
11164TIP3   OH233434   3.543   4.257   4.348
11164TIP3    H133435   3.493   4.291   4.274
11164TIP3    H233436   3.635   4.268   4.321
11165TIP3   OH233437   3.938   2.380   4.134
11165TIP3    H133438   3.916   2.331   4.054
11165TIP3    H233439   3.895   2.465   4.122
11166TIP3   OH233440   3.591   2.000   1.292
11166TIP3    H133441   3.556   2.065   1.353
11166TIP3    H233442   3.523   1.933   1.286
11167TIP3   OH233443   0.204   3.836   0.772
11167TIP3    H133444   0.223   3.811   0.681
11167TIP3    H233445   0.139   3.773   0.801
11168TIP3   OH233446   0.773   2.521   2.387
11168TIP3    H133447   0.844   2.582   2.409
11168TIP3    H233448   0.816   2.437   2.375
11169TIP3   OH233449   4.257   7.686   4.533
11169TIP3    H133450   4.193   7.692   4.462
11169TIP3    H233451   4.288   7.595   4.530
11170TIP3   OH233452   1.078   4.464   6.752
11170TIP3    H133453   1.086   4.555   6.723
11170TIP3    H233454   1.150   4.419   6.707
11171TIP3   OH233455   2.847   6.375   5.256
11171TIP3    H133456   2.809   6.443   5.200
11171TIP3    H233457   2.838   6.294   5.205
11172TIP3   OH233458   1.080   6.564   5.411
11172TIP3    H133459   0.992   6.579   5.374
11172TIP3    H233460   1.124   6.648   5.401
11173TIP3   OH233461   2.064   4.547   3.920
11173TIP3    H133462   2.117   4.611   3.967
11173TIP3    H233463   2.126   4.482   3.889
11174TIP3   OH233464   5.202   7.705   3.465
11174TIP3    H133465   5.175   7.696   3.557
11174TIP3    H233466   5.288   7.748   3.470
11175TIP3   OH233467   2.329   0.763   2.363
11175TIP3    H133468   2.288   0.815   2.432
11175TIP3    H233469   2.423   0.783   2.370
11176TIP3   OH233470   1.155   4.708   6.113
11176TIP3    H133471   1.195   4.675   6.033
11176TIP3    H233472   1.095   4.776   6.084
11177TIP3   OH233473   1.878   4.835   3.847
11177TIP3    H133474   1.813   4.883   3.798
11177TIP3    H233475   1.898   4.758   3.793
11178TIP3   OH233476   0.495   4.711   5.992
11178TIP3    H133477   0.495   4.749   6.080
11178TIP3    H233478   0.404   4.685   5.977
11179TIP3   OH233479   4.963   2.881   3.106
11179TIP3    H133480   4.874   2.849   3.088
11179TIP3    H233481   4.981   2.942   3.035
11180TIP3   OH233482   8.228   3.655   6.142
11180TIP3    H133483   8.209   3.604   6.063
11180TIP3    H233484   8.252   3.590   6.208
11181TIP3   OH233485   0.136   1.198   2.401
11181TIP3    H133486   0.231   1.201   2.408
11181TIP3    H233487   0.110   1.289   2.384
11182TIP3   OH233488   1.284   6.022   0.731
11182TIP3    H133489   1.298   6.116   0.718
11182TIP3    H233490   1.198   6.017   0.773
11183TIP3   OH233491   7.758   2.697   3.129
11183TIP3    H133492   7.662   2.703   3.129
11183TIP3    H233493   7.784   2.735   3.046
11184TIP3   OH233494   1.374   2.045   6.366
11184TIP3    H133495   1.398   2.035   6.458
11184TIP3    H233496   1.339   2.134   6.360
11185TIP3   OH233497   3.820   4.117   6.765
11185TIP3    H133498   3.891   4.110   6.829
11185TIP3    H233499   3.827   4.037   6.712
11186TIP3   OH233500   2.067   0.400   5.863
11186TIP3    H133501   2.072   0.305   5.858
11186TIP3    H233502   2.083   0.421   5.955
11187TIP3   OH233503   2.201   1.342   2.263
11187TIP3    H133504   2.244   1.262   2.232
11187TIP3    H233505   2.171   1.385   2.183
11188TIP3   OH233506   4.132   6.627   4.340
11188TIP3    H133507   4.068   6.686   4.379
11188TIP3    H233508   4.122   6.545   4.388
11189TIP3   OH233509   6.399   7.201   3.615
11189TIP3    H133510   6.464   7.243   3.559
11189TIP3    H233511   6.439   7.199   3.702
11190TIP3   OH233512   5.881   4.598   1.476
11190TIP3    H133513   5.844   4.628   1.559
11190TIP3    H233514   5.808   4.600   1.415
11191TIP3   OH233515   6.151   1.424   5.666
11191TIP3    H133516   6.233   1.443   5.712
11191TIP3    H233517   6.151   1.330   5.653
11192TIP3   OH233518   4.094   3.929   6.672
11192TIP3    H133519   4.120   3.849   6.718
11192TIP3    H233520   4.019   3.902   6.618
11193TIP3   OH233521   8.276   0.173   6.734
11193TIP3    H133522   8.307   0.082   6.734
11193TIP3    H233523   8.278   0.199   6.642
11194TIP3   OH233524   1.407   7.102   6.746
11194TIP3    H133525   1.370   7.022   6.707
11194TIP3    H233526   1.366   7.173   6.697
11195TIP3   OH233527   6.340   6.738   1.136
11195TIP3    H133528   6.425   6.726   1.179
11195TIP3    H233529   6.345   6.825   1.097
11196TIP3   OH233530   3.691   2.765   2.219
11196TIP3    H133531   3.729   2.851   2.201
11196TIP3    H233532   3.699   2.718   2.136
11197TIP3   OH233533   0.912   7.485   6.201
11197TIP3    H133534   0.893   7.391   6.211
11197TIP3    H233535   0.857   7.528   6.266
11198TIP3   OH233536   6.948   2.662   4.812
11198TIP3    H133537   6.904   2.747   4.806
11198TIP3    H233538   7.035   2.677   4.776
11199TIP3   OH233539   3.170   5.335   4.542
11199TIP3    H133540   3.221   5.302   4.616
11199TIP3    H233541   3.226   5.401   4.502
11200TIP3   OH233542   7.781   5.203   5.234
11200TIP3    H133543   7.729   5.186   5.313
11200TIP3    H233544   7.826   5.286   5.253
11201TIP3   OH233545   3.375   1.481   1.541
11201TIP3    H133546   3.424   1.554   1.579
11201TIP3    H233547   3.390   1.408   1.602
11202TIP3   OH233548   2.955   1.351   0.876
11202TIP3    H133549   3.027   1.290   0.890
11202TIP3    H233550   2.985   1.408   0.805
11203TIP3   OH233551   8.003   3.899   5.125
11203TIP3    H133552   8.068   3.969   5.117
11203TIP3    H233553   8.048   3.821   5.092
11204TIP3   OH233554   6.729   6.717   1.951
11204TIP3    H133555   6.713   6.733   1.858
11204TIP3    H233556   6.642   6.715   1.990
11205TIP3   OH233557   3.476   2.908   3.756
11205TIP3    H133558   3.546   2.962   3.720
11205TIP3    H233559   3.501   2.894   3.848
11206TIP3   OH233560   4.550   0.440   0.428
11206TIP3    H133561   4.476   0.401   0.381
11206TIP3    H233562   4.593   0.366   0.472
11207TIP3   OH233563   7.543   4.373   3.438
11207TIP3    H133564   7.578   4.433   3.372
11207TIP3    H233565   7.552   4.286   3.399
11208TIP3   OH233566   0.058   1.060   6.496
11208TIP3    H133567   0.042   1.045   6.403
11208TIP3    H233568  -0.027   1.084   6.532
11209TIP3   OH233569   0.194   3.208   5.448
11209TIP3    H133570   0.205   3.135   5.510
11209TIP3    H233571   0.100   3.215   5.435
11210TIP3   OH233572   7.374   5.555   5.423
11210TIP3    H133573   7.326   5.610   5.360
11210TIP3    H233574   7.372   5.468   5.385
11211TIP3   OH233575   7.489   4.778   5.939
11211TIP3    H133576   7.570   4.785   5.888
11211TIP3    H233577   7.419   4.785   5.874
11212TIP3   OH233578   1.163   4.228   5.490
11212TIP3    H133579   1.257   4.216   5.497
11212TIP3    H233580   1.126   4.161   5.547
11213TIP3   OH233581   7.073   0.321   0.743
11213TIP3    H133582   7.122   0.356   0.668
11213TIP3    H233583   6.986   0.359   0.734
11214TIP3   OH233584   7.676   7.164   5.235
11214TIP3    H133585   7.607   7.143   5.298
11214TIP3    H233586   7.724   7.237   5.274
11215TIP3   OH233587   1.994   3.981   0.446
11215TIP3    H133588   2.005   3.959   0.353
11215TIP3    H233589   2.082   3.973   0.483
11216TIP3   OH233590   4.413   3.099   4.189
11216TIP3    H133591   4.502   3.064   4.192
11216TIP3    H233592   4.358   3.022   4.176
11217TIP3   OH233593   3.473   0.826   2.765
11217TIP3    H133594   3.419   0.748   2.752
11217TIP3    H233595   3.448   0.857   2.852
11218TIP3   OH233596   6.994   3.572   3.928
11218TIP3    H133597   6.978   3.527   4.011
11218TIP3    H233598   7.079   3.539   3.900
11219TIP3   OH233599   5.904   0.803   1.615
11219TIP3    H133600   5.911   0.820   1.709
11219TIP3    H233601   5.962   0.867   1.574
11220TIP3   OH233602   1.948   3.580   2.625
11220TIP3    H133603   1.854   3.597   2.615
11220TIP3    H233604   1.989   3.665   2.608
11221TIP3   OH233605   3.896   6.690   0.968
11221TIP3    H133606   3.832   6.753   1.001
11221TIP3    H233607   3.971   6.699   1.027
11222TIP3   OH233608   3.178   3.735   4.269
11222TIP3    H133609   3.232   3.657   4.282
11222TIP3    H233610   3.240   3.801   4.239
11223TIP3   OH233611   7.207   3.002   2.074
11223TIP3    H133612   7.128   3.015   2.022
11223TIP3    H233613   7.248   3.089   2.078
11224TIP3   OH233614   3.461   4.038   1.395
11224TIP3    H133615   3.454   3.950   1.359
11224TIP3    H233616   3.461   4.026   1.490
11225TIP3   OH233617   0.240   6.801   2.766
11225TIP3    H133618   0.154   6.833   2.739
11225TIP3    H233619   0.264   6.737   2.699
11226TIP3   OH233620   8.291   4.560   4.804
11226TIP3    H133621   8.224   4.544   4.738
11226TIP3    H233622   8.328   4.473   4.823
11227TIP3   OH233623   1.529   0.500   3.500
11227TIP3    H133624   1.508   0.416   3.460
11227TIP3    H233625   1.489   0.496   3.587
11228TIP3   OH233626   2.380   0.668   2.117
11228TIP3    H133627   2.354   0.720   2.193
11228TIP3    H233628   2.455   0.617   2.147
11229TIP3   OH233629   5.309   0.065   1.942
11229TIP3    H133630   5.332   0.091   2.031
11229TIP3    H233631   5.382   0.011   1.913
11230TIP3   OH233632   5.866   0.181   2.732
11230TIP3    H133633   5.946   0.130   2.743
11230TIP3    H233634   5.892   0.255   2.677
11231TIP3   OH233635   2.631   4.522   5.202
11231TIP3    H133636   2.599   4.433   5.185
11231TIP3    H233637   2.554   4.577   5.191
11232TIP3   OH233638   4.374   6.415   4.087
11232TIP3    H133639   4.401   6.420   4.179
11232TIP3    H233640   4.391   6.502   4.052
11233TIP3   OH233641   6.495   6.480   3.694
11233TIP3    H133642   6.437   6.546   3.732
11233TIP3    H233643   6.543   6.443   3.768
11234TIP3   OH233644   5.951   3.967   5.800
11234TIP3    H133645   5.946   4.053   5.759
11234TIP3    H233646   5.924   3.906   5.732
11235TIP3   OH233647   0.753   1.863   0.406
11235TIP3    H133648   0.803   1.909   0.338
11235TIP3    H233649   0.686   1.926   0.433
11236TIP3   OH233650   4.898   4.732   2.523
11236TIP3    H133651   4.920   4.750   2.432
11236TIP3    H233652   4.836   4.800   2.547
11237TIP3   OH233653   6.430   5.218   0.555
11237TIP3    H133654   6.415   5.308   0.585
11237TIP3    H233655   6.354   5.169   0.587
11238TIP3   OH233656   7.620   4.214   5.997
11238TIP3    H133657   7.593   4.157   5.925
11238TIP3    H233658   7.623   4.302   5.958
11239TIP3   OH233659   0.334   2.763   0.997
11239TIP3    H133660   0.391   2.840   1.007
11239TIP3    H233661   0.280   2.763   1.076
11240TIP3   OH233662   6.764   6.702   2.667
11240TIP3    H133663   6.694   6.663   2.721
11240TIP3    H233664   6.782   6.636   2.601
11241TIP3   OH233665   0.694   7.400   5.921
11241TIP3    H133666   0.763   7.451   5.879
11241TIP3    H233667   0.672   7.450   6.000
11242TIP3   OH233668   4.148   1.851   5.764
11242TIP3    H133669   4.099   1.777   5.800
11242TIP3    H233670   4.240   1.824   5.769
11243TIP3   OH233671   6.318   2.717   1.449
11243TIP3    H133672   6.351   2.703   1.537
11243TIP3    H233673   6.363   2.651   1.396
11244TIP3   OH233674   5.832   1.824   4.739
11244TIP3    H133675   5.790   1.910   4.748
11244TIP3    H233676   5.920   1.837   4.775
11245TIP3   OH233677   4.833   6.774   5.128
11245TIP3    H133678   4.800   6.713   5.194
11245TIP3    H233679   4.925   6.750   5.118
11246TIP3   OH233680   3.575   1.622   1.046
11246TIP3    H133681   3.530   1.542   1.017
11246TIP3    H233682   3.530   1.693   1.000
11247TIP3   OH233683   4.032   7.543   0.029
11247TIP3    H133684   4.066   7.534  -0.060
11247TIP3    H233685   4.021   7.453   0.060
11248TIP3   OH233686   2.717   6.910   4.270
11248TIP3    H133687   2.717   6.815   4.266
11248TIP3    H233688   2.783   6.937   4.206
11249TIP3   OH233689   7.056   4.890   1.020
11249TIP3    H133690   7.099   4.957   0.967
11249TIP3    H233691   7.066   4.810   0.970
11250TIP3   OH233692   7.504   6.788   0.154
11250TIP3    H133693   7.522   6.799   0.247
11250TIP3    H233694   7.588   6.768   0.114
11251TIP3   OH233695   3.842   5.582   3.057
11251TIP3    H133696   3.836   5.542   3.144
11251TIP3    H233697   3.789   5.662   3.064
11252TIP3   OH233698   1.161   7.715   0.428
11252TIP3    H133699   1.184   7.658   0.502
11252TIP3    H233700   1.096   7.665   0.379
11253TIP3   OH233701   2.215   1.933   1.536
11253TIP3    H133702   2.172   1.936   1.621
11253TIP3    H233703   2.146   1.958   1.474
11254TIP3   OH233704   5.049   1.100   2.727
11254TIP3    H133705   5.095   1.125   2.807
11254TIP3    H233706   4.957   1.089   2.755
11255TIP3   OH233707   1.888   6.442   0.290
11255TIP3    H133708   1.936   6.491   0.223
11255TIP3    H233709   1.948   6.371   0.315
11256TIP3   OH233710   3.532   6.594   0.480
11256TIP3    H133711   3.581   6.661   0.433
11256TIP3    H233712   3.578   6.585   0.563
11257TIP3   OH233713   6.386   6.793   5.157
11257TIP3    H133714   6.296   6.787   5.124
11257TIP3    H233715   6.436   6.733   5.102
11258TIP3   OH233716   6.322   7.073   5.407
11258TIP3    H133717   6.260   7.125   5.356
11258TIP3    H233718   6.394   7.133   5.427
11259TIP3   OH233719   8.161   7.566   0.361
11259TIP3    H133720   8.076   7.528   0.381
11259TIP3    H233721   8.182   7.619   0.438
11260TIP3   OH233722   2.912   5.664   3.877
11260TIP3    H133723   2.886   5.754   3.858
11260TIP3    H233724   2.867   5.642   3.958
11261TIP3   OH233725   0.290   3.907   0.269
11261TIP3    H133726   0.205   3.863   0.271
11261TIP3    H233727   0.300   3.943   0.357
11262TIP3   OH233728   1.863   4.971   2.466
11262TIP3    H133729   1.800   4.899   2.471
11262TIP3    H233730   1.924   4.945   2.397
11263TIP3   OH233731   0.638   0.066   4.656
11263TIP3    H133732   0.700   0.012   4.608
11263TIP3    H233733   0.653   0.045   4.748
11264TIP3   OH233734   3.590   7.566   4.596
11264TIP3    H133735   3.657   7.511   4.637
11264TIP3    H233736   3.513   7.557   4.653
11265TIP3   OH233737   7.822   2.155   4.480
11265TIP3    H133738   7.798   2.076   4.432
11265TIP3    H233739   7.918   2.151   4.485
11266TIP3   OH233740   4.406   7.725   6.162
11266TIP3    H133741   4.453   7.769   6.233
11266TIP3    H233742   4.314   7.731   6.187
11267TIP3   OH233743   2.547   5.977   0.526
11267TIP3    H133744   2.570   6.068   0.505
11267TIP3    H233745   2.481   5.985   0.596
11268TIP3   OH233746   3.132   2.944   0.201
11268TIP3    H133747   3.184   3.014   0.161
11268TIP3    H233748   3.192   2.904   0.265
11269TIP3   OH233749   5.456   2.295   6.240
11269TIP3    H133750   5.517   2.273   6.170
11269TIP3    H233751   5.493   2.374   6.280
11270TIP3   OH233752   0.771   6.605   4.201
11270TIP3    H133753   0.818   6.524   4.220
11270TIP3    H233754   0.753   6.643   4.288
11271TIP3   OH233755   4.253   4.462   6.034
11271TIP3    H133756   4.195   4.527   6.074
11271TIP3    H233757   4.340   4.503   6.039
11272TIP3   OH233758   7.758   4.123   5.210
11272TIP3    H133759   7.764   4.038   5.167
11272TIP3    H233760   7.829   4.123   5.274
11273TIP3   OH233761   4.545   7.434   5.399
11273TIP3    H133762   4.513   7.383   5.324
11273TIP3    H233763   4.493   7.403   5.473
11274TIP3   OH233764   2.401   7.375   1.592
11274TIP3    H133765   2.373   7.291   1.555
11274TIP3    H233766   2.474   7.352   1.650
11275TIP3   OH233767   2.415   5.354   4.702
11275TIP3    H133768   2.380   5.380   4.788
11275TIP3    H233769   2.508   5.341   4.718
11276TIP3   OH233770   5.127   7.315   5.747
11276TIP3    H133771   5.183   7.254   5.698
11276TIP3    H233772   5.163   7.314   5.836
11277TIP3   OH233773   2.337   3.526   6.298
11277TIP3    H133774   2.304   3.503   6.385
11277TIP3    H233775   2.356   3.442   6.257
11278TIP3   OH233776   5.856   1.183   5.404
11278TIP3    H133777   5.904   1.149   5.328
11278TIP3    H233778   5.875   1.121   5.474
11279TIP3   OH233779   0.853   5.779   4.325
11279TIP3    H133780   0.890   5.772   4.413
11279TIP3    H233781   0.927   5.761   4.267
11280TIP3   OH233782   4.744   0.451   4.185
11280TIP3    H133783   4.776   0.469   4.097
11280TIP3    H233784   4.659   0.408   4.172
11281TIP3   OH233785   7.144   7.047   4.771
11281TIP3    H133786   7.191   7.023   4.691
11281TIP3    H233787   7.055   7.016   4.756
11282TIP3   OH233788   0.195   1.672   1.359
11282TIP3    H133789   0.198   1.608   1.288
11282TIP3    H233790   0.270   1.649   1.415
11283TIP3   OH233791   7.161   6.762   4.833
11283TIP3    H133792   7.203   6.831   4.884
11283TIP3    H233793   7.072   6.794   4.817
11284TIP3   OH233794   8.237   1.161   2.588
11284TIP3    H133795   8.199   1.075   2.571
11284TIP3    H233796   8.318   1.163   2.538
11285TIP3   OH233797   5.592   1.594   1.803
11285TIP3    H133798   5.683   1.603   1.832
11285TIP3    H233799   5.594   1.522   1.740
11286TIP3   OH233800   6.798   0.186   5.487
11286TIP3    H133801   6.870   0.204   5.426
11286TIP3    H233802   6.720   0.178   5.431
11287TIP3   OH233803   1.139   1.042   3.420
11287TIP3    H133804   1.064   1.083   3.379
11287TIP3    H233805   1.107   0.957   3.452
11288TIP3   OH233806   6.160   7.092   5.628
11288TIP3    H133807   6.115   7.175   5.612
11288TIP3    H233808   6.216   7.079   5.551
11289TIP3   OH233809   0.498   1.060   4.275
11289TIP3    H133810   0.534   0.975   4.252
11289TIP3    H233811   0.549   1.122   4.224
11290TIP3   OH233812   8.058   6.567   5.006
11290TIP3    H133813   8.038   6.492   4.950
11290TIP3    H233814   8.044   6.643   4.949
11291TIP3   OH233815   2.809   3.978   3.221
11291TIP3    H133816   2.833   3.927   3.298
11291TIP3    H233817   2.725   3.943   3.193
11292TIP3   OH233818   7.203   4.153   6.655
11292TIP3    H133819   7.189   4.241   6.621
11292TIP3    H233820   7.256   4.109   6.589
11293TIP3   OH233821   7.402   1.757   1.841
11293TIP3    H133822   7.385   1.792   1.928
11293TIP3    H233823   7.401   1.834   1.784
11294TIP3   OH233824   2.006   7.176   5.960
11294TIP3    H133825   2.074   7.194   6.025
11294TIP3    H233826   1.925   7.172   6.010
11295TIP3   OH233827   5.421   5.395   2.120
11295TIP3    H133828   5.419   5.484   2.087
11295TIP3    H233829   5.512   5.367   2.109
11296TIP3   OH233830   3.262   6.104   3.028
11296TIP3    H133831   3.217   6.122   3.110
11296TIP3    H233832   3.205   6.143   2.961
11297TIP3   OH233833   3.914   1.235   0.273
11297TIP3    H133834   3.851   1.296   0.311
11297TIP3    H233835   3.887   1.227   0.182
11298TIP3   OH233836   0.480   3.010   1.033
11298TIP3    H133837   0.490   3.083   1.095
11298TIP3    H233838   0.501   3.048   0.948
11299TIP3   OH233839   0.279   2.019   3.089
11299TIP3    H133840   0.230   1.938   3.078
11299TIP3    H233841   0.361   1.992   3.131
11300TIP3   OH233842   0.717   2.222   1.610
11300TIP3    H133843   0.756   2.143   1.573
11300TIP3    H233844   0.630   2.227   1.570
11301TIP3   OH233845   0.462   0.587   6.603
11301TIP3    H133846   0.392   0.650   6.615
11301TIP3    H233847   0.542   0.640   6.606
11302TIP3   OH233848   5.007   0.174   6.379
11302TIP3    H133849   5.102   0.168   6.375
11302TIP3    H233850   4.978   0.084   6.395
11303TIP3   OH233851   4.271   4.154   3.944
11303TIP3    H133852   4.365   4.160   3.925
11303TIP3    H233853   4.243   4.244   3.955
11304TIP3   OH233854   4.359   5.822   0.918
11304TIP3    H133855   4.399   5.892   0.867
11304TIP3    H233856   4.385   5.742   0.873
11305TIP3   OH233857   5.046   4.405   6.030
11305TIP3    H133858   4.963   4.362   6.054
11305TIP3    H233859   5.112   4.358   6.081
11306TIP3   OH233860   4.149   5.780   2.053
11306TIP3    H133861   4.059   5.788   2.023
11306TIP3    H233862   4.144   5.716   2.125
11307TIP3   OH233863   6.274   7.127   1.374
11307TIP3    H133864   6.209   7.147   1.441
11307TIP3    H233865   6.238   7.053   1.326
11308TIP3   OH233866   2.913   5.813   1.702
11308TIP3    H133867   2.989   5.827   1.646
11308TIP3    H233868   2.845   5.780   1.644
11309TIP3   OH233869   2.712   3.687   2.334
11309TIP3    H133870   2.710   3.705   2.240
11309TIP3    H233871   2.634   3.730   2.369
11310TIP3   OH233872   6.578   2.509   3.004
11310TIP3    H133873   6.582   2.519   2.909
11310TIP3    H233874   6.485   2.502   3.023
11311TIP3   OH233875   4.613   3.565   0.847
11311TIP3    H133876   4.543   3.501   0.834
11311TIP3    H233877   4.694   3.514   0.842
11312TIP3   OH233878   7.257   2.728   4.117
11312TIP3    H133879   7.233   2.709   4.208
11312TIP3    H233880   7.353   2.724   4.116
11313TIP3   OH233881   4.259   4.391   2.920
11313TIP3    H133882   4.263   4.365   3.012
11313TIP3    H233883   4.170   4.423   2.908
11314TIP3   OH233884   1.651   7.551   6.435
11314TIP3    H133885   1.625   7.569   6.525
11314TIP3    H233886   1.717   7.481   6.443
11315TIP3   OH233887   5.693   2.282   3.930
11315TIP3    H133888   5.701   2.231   4.011
11315TIP3    H233889   5.653   2.364   3.957
11316TIP3   OH233890   3.322   2.332   1.874
11316TIP3    H133891   3.254   2.399   1.880
11316TIP3    H233892   3.374   2.342   1.953
11317TIP3   OH233893   4.295   5.255   6.065
11317TIP3    H133894   4.312   5.224   6.154
11317TIP3    H233895   4.375   5.235   6.017
11318TIP3   OH233896   7.977   7.295   3.247
11318TIP3    H133897   7.893   7.292   3.294
11318TIP3    H233898   7.983   7.384   3.214
11319TIP3   OH233899   7.444   3.445   3.157
11319TIP3    H133900   7.455   3.446   3.062
11319TIP3    H233901   7.383   3.373   3.174
11320TIP3   OH233902   7.595   2.145   0.486
11320TIP3    H133903   7.621   2.190   0.406
11320TIP3    H233904   7.505   2.173   0.503
11321TIP3   OH233905   7.147   2.564   3.902
11321TIP3    H133906   7.239   2.539   3.890
11321TIP3    H233907   7.146   2.617   3.981
11322TIP3   OH233908   5.580   0.092   5.390
11322TIP3    H133909   5.648   0.138   5.342
11322TIP3    H233910   5.583   0.130   5.478
11323TIP3   OH233911   8.168   3.011   4.379
11323TIP3    H133912   8.197   3.005   4.288
11323TIP3    H233913   8.137   3.101   4.389
11324TIP3   OH233914   3.682   1.778   0.160
11324TIP3    H133915   3.626   1.717   0.208
11324TIP3    H233916   3.746   1.807   0.225
11325TIP3   OH233917   5.939   5.452   5.510
11325TIP3    H133918   6.031   5.476   5.495
11325TIP3    H233919   5.933   5.443   5.606
11326TIP3   OH233920   7.954   3.236   3.664
11326TIP3    H133921   7.949   3.154   3.615
11326TIP3    H233922   7.865   3.273   3.660
11327TIP3   OH233923   1.875   4.034   4.562
11327TIP3    H133924   1.932   4.066   4.493
11327TIP3    H233925   1.793   4.012   4.518
11328TIP3   OH233926   8.100   0.900   2.984
11328TIP3    H133927   8.190   0.932   2.981
11328TIP3    H233928   8.064   0.920   2.898
11329TIP3   OH233929   7.019   4.531   0.700
11329TIP3    H133930   6.950   4.574   0.651
11329TIP3    H233931   7.085   4.509   0.635
11330TIP3   OH233932   5.561   2.538   3.971
11330TIP3    H133933   5.551   2.572   3.882
11330TIP3    H233934   5.494   2.584   4.023
11331TIP3   OH233935   3.227   1.229   1.916
11331TIP3    H133936   3.184   1.165   1.860
11331TIP3    H233937   3.213   1.196   2.005
11332TIP3   OH233938   0.032   4.631   4.198
11332TIP3    H133939  -0.015   4.549   4.211
11332TIP3    H233940   0.123   4.605   4.181
11333TIP3   OH233941   4.554   3.008   3.810
11333TIP3    H133942   4.471   2.985   3.768
11333TIP3    H233943   4.614   3.025   3.737
11334TIP3   OH233944   5.267   1.576   4.103
11334TIP3    H133945   5.363   1.568   4.102
11334TIP3    H233946   5.241   1.565   4.012
11335TIP3   OH233947   3.598   7.629   0.927
11335TIP3    H133948   3.545   7.708   0.939
11335TIP3    H233949   3.685   7.662   0.907
11336TIP3   OH233950   0.414   6.055   2.492
11336TIP3    H133951   0.491   6.104   2.518
11336TIP3    H233952   0.440   6.010   2.411
11337TIP3   OH233953   5.455   6.414   0.626
11337TIP3    H133954   5.486   6.381   0.711
11337TIP3    H233955   5.525   6.391   0.565
11338TIP3   OH233956   1.018   1.463   4.301
11338TIP3    H133957   1.048   1.553   4.294
11338TIP3    H233958   0.928   1.470   4.333
11339TIP3   OH233959   7.464   7.312   4.756
11339TIP3    H133960   7.502   7.290   4.842
11339TIP3    H233961   7.539   7.342   4.705
11340TIP3   OH233962   5.126   7.394   4.316
11340TIP3    H133963   5.196   7.458   4.304
11340TIP3    H233964   5.103   7.366   4.227
11341TIP3   OH233965   5.399   6.050   2.644
11341TIP3    H133966   5.493   6.057   2.660
11341TIP3    H233967   5.387   6.080   2.554
11342TIP3   OH233968   7.685   7.200   0.890
11342TIP3    H133969   7.735   7.171   0.967
11342TIP3    H233970   7.606   7.147   0.892
11343TIP3   OH233971   4.428   3.626   5.525
11343TIP3    H133972   4.455   3.684   5.596
11343TIP3    H233973   4.345   3.663   5.494
11344TIP3   OH233974   1.082   1.048   3.918
11344TIP3    H133975   1.024   1.124   3.930
11344TIP3    H233976   1.075   0.999   4.000
11345TIP3   OH233977   7.025   5.418   1.904
11345TIP3    H133978   7.108   5.374   1.882
11345TIP3    H233979   7.001   5.464   1.823
11346TIP3   OH233980   4.098   3.728   5.745
11346TIP3    H133981   4.004   3.746   5.737
11346TIP3    H233982   4.113   3.655   5.685
11347TIP3   OH233983   4.843   1.612   2.566
11347TIP3    H133984   4.817   1.561   2.490
11347TIP3    H233985   4.911   1.560   2.609
11348TIP3   OH233986   1.609   5.195   1.001
11348TIP3    H133987   1.622   5.134   0.929
11348TIP3    H233988   1.655   5.156   1.075
11349TIP3   OH233989   4.450   5.568   0.772
11349TIP3    H133990   4.428   5.484   0.814
11349TIP3    H233991   4.421   5.557   0.681
11350TIP3   OH233992   8.177   5.168   6.398
11350TIP3    H133993   8.110   5.126   6.451
11350TIP3    H233994   8.193   5.107   6.326
11351TIP3   OH233995   2.056   6.693   6.560
11351TIP3    H133996   2.117   6.712   6.631
11351TIP3    H233997   2.105   6.637   6.501
11352TIP3   OH233998   6.474   4.362   5.379
11352TIP3    H133999   6.395   4.403   5.342
11352TIP3    H234000   6.455   4.268   5.377
11353TIP3   OH234001   0.459   0.923   6.314
11353TIP3    H134002   0.453   0.908   6.408
11353TIP3    H234003   0.405   1.001   6.298
11354TIP3   OH234004   4.585   6.501   6.676
11354TIP3    H134005   4.552   6.415   6.650
11354TIP3    H234006   4.679   6.496   6.661
11355TIP3   OH234007   3.003   3.228   0.935
11355TIP3    H134008   3.049   3.192   0.859
11355TIP3    H234009   2.910   3.210   0.919
11356TIP3   OH234010   7.472   3.780   1.615
11356TIP3    H134011   7.377   3.793   1.619
11356TIP3    H234012   7.508   3.855   1.662
11357TIP3   OH234013   6.776   1.573   4.053
11357TIP3    H134014   6.813   1.516   4.120
11357TIP3    H234015   6.808   1.660   4.075
11358TIP3   OH234016   7.407   3.934   0.028
11358TIP3    H134017   7.417   4.028   0.012
11358TIP3    H234018   7.328   3.926   0.082
11359TIP3   OH234019   1.963   1.622   1.096
11359TIP3    H134020   1.942   1.529   1.104
11359TIP3    H234021   1.969   1.653   1.186
11360TIP3   OH234022   6.760   6.815   4.517
11360TIP3    H134023   6.738   6.722   4.512
11360TIP3    H234024   6.835   6.825   4.459
11361TIP3   OH234025   3.435   6.924   1.741
11361TIP3    H134026   3.376   6.931   1.815
11361TIP3    H234027   3.494   6.999   1.750
11362TIP3   OH234028   2.589   2.077   3.331
11362TIP3    H134029   2.564   2.043   3.417
11362TIP3    H234030   2.510   2.067   3.277
11363TIP3   OH234031   8.254   3.285   2.446
11363TIP3    H134032   8.230   3.250   2.360
11363TIP3    H234033   8.346   3.260   2.457
11364TIP3   OH234034   6.637   3.491   3.283
11364TIP3    H134035   6.597   3.578   3.284
11364TIP3    H234036   6.631   3.461   3.374
11365TIP3   OH234037   2.721   5.755   1.298
11365TIP3    H134038   2.789   5.707   1.252
11365TIP3    H234039   2.735   5.734   1.391
11366TIP3   OH234040   5.191   3.688   3.771
11366TIP3    H134041   5.172   3.751   3.701
11366TIP3    H234042   5.136   3.717   3.844
11367TIP3   OH234043   3.142   3.527   3.542
11367TIP3    H134044   3.065   3.473   3.523
11367TIP3    H234045   3.132   3.605   3.488
11368TIP3   OH234046   7.941   3.894   2.801
11368TIP3    H134047   7.938   3.823   2.865
11368TIP3    H234048   7.884   3.962   2.838
11369TIP3   OH234049   1.993   5.481   4.394
11369TIP3    H134050   1.991   5.417   4.324
11369TIP3    H234051   2.067   5.455   4.449
11370TIP3   OH234052   7.523   3.388   1.478
11370TIP3    H134053   7.557   3.305   1.510
11370TIP3    H234054   7.567   3.455   1.531
11371TIP3   OH234055   1.300   2.031   2.520
11371TIP3    H134056   1.296   1.935   2.520
11371TIP3    H234057   1.385   2.052   2.558
11372TIP3   OH234058   7.274   1.747   3.179
11372TIP3    H134059   7.294   1.795   3.098
11372TIP3    H234060   7.232   1.666   3.149
11373TIP3   OH234061   1.205   3.072   2.593
11373TIP3    H134062   1.174   3.161   2.612
11373TIP3    H234063   1.291   3.068   2.635
11374TIP3   OH234064   1.600   4.406   2.124
11374TIP3    H134065   1.546   4.335   2.159
11374TIP3    H234066   1.575   4.412   2.032
11375TIP3   OH234067   6.761   3.993   6.006
11375TIP3    H134068   6.794   4.005   5.917
11375TIP3    H234069   6.805   4.061   6.057
11376TIP3   OH234070   0.451   4.026   5.501
11376TIP3    H134071   0.530   3.983   5.469
11376TIP3    H234072   0.408   4.058   5.422
11377TIP3   OH234073   4.485   0.512   3.248
11377TIP3    H134074   4.462   0.543   3.161
11377TIP3    H234075   4.496   0.417   3.238
11378TIP3   OH234076   6.123   1.988   3.168
11378TIP3    H134077   6.184   1.966   3.238
11378TIP3    H234078   6.052   1.924   3.177
11379TIP3   OH234079   1.786   0.127   0.417
11379TIP3    H134080   1.740   0.110   0.499
11379TIP3    H234081   1.795   0.223   0.414
11380TIP3   OH234082   0.221   0.803   0.592
11380TIP3    H134083   0.202   0.745   0.519
11380TIP3    H234084   0.236   0.889   0.551
11381TIP3   OH234085   3.625   4.308   3.993
11381TIP3    H134086   3.545   4.359   4.001
11381TIP3    H234087   3.652   4.319   3.902
11382TIP3   OH234088   6.265   5.744   2.904
11382TIP3    H134089   6.354   5.778   2.896
11382TIP3    H234090   6.262   5.706   2.992
11383TIP3   OH234091   0.800   5.104   6.312
11383TIP3    H134092   0.793   5.113   6.217
11383TIP3    H234093   0.891   5.078   6.327
11384TIP3   OH234094   8.105   5.161   3.295
11384TIP3    H134095   8.126   5.178   3.387
11384TIP3    H234096   8.010   5.148   3.294
11385TIP3   OH234097   7.562   4.282   0.444
11385TIP3    H134098   7.481   4.333   0.449
11385TIP3    H234099   7.550   4.223   0.370
11386TIP3   OH234100   4.693   3.473   5.722
11386TIP3    H134101   4.780   3.509   5.701
11386TIP3    H234102   4.684   3.397   5.666
11387TIP3   OH234103   3.099   3.919   4.006
11387TIP3    H134104   3.091   3.971   4.086
11387TIP3    H234105   3.028   3.855   4.012
11388TIP3   OH234106   4.644   0.204   4.506
11388TIP3    H134107   4.698   0.173   4.579
11388TIP3    H234108   4.615   0.123   4.463
11389TIP3   OH234109   7.448   7.792   2.682
11389TIP3    H134110   7.478   7.703   2.703
11389TIP3    H234111   7.379   7.778   2.616
11390TIP3   OH234112   2.712   6.532   5.017
11390TIP3    H134113   2.748   6.621   5.020
11390TIP3    H234114   2.761   6.490   4.946
11391TIP3   OH234115   3.763   2.624   3.269
11391TIP3    H134116   3.749   2.646   3.177
11391TIP3    H234117   3.676   2.625   3.308
11392TIP3   OH234118   7.606   6.665   2.875
11392TIP3    H134119   7.528   6.704   2.914
11392TIP3    H234120   7.615   6.580   2.920
11393TIP3   OH234121   5.343   5.630   6.279
11393TIP3    H134122   5.404   5.703   6.277
11393TIP3    H234123   5.395   5.554   6.253
11394TIP3   OH234124   4.608   5.954   2.516
11394TIP3    H134125   4.699   5.973   2.492
11394TIP3    H234126   4.584   6.025   2.575
11395TIP3   OH234127   2.945   1.362   3.224
11395TIP3    H134128   3.033   1.397   3.237
11395TIP3    H234129   2.953   1.269   3.249
11396TIP3   OH234130   6.190   0.645   0.203
11396TIP3    H134131   6.216   0.666   0.113
11396TIP3    H234132   6.233   0.712   0.256
11397TIP3   OH234133   5.362   2.029   0.410
11397TIP3    H134134   5.317   2.000   0.489
11397TIP3    H234135   5.291   2.045   0.347
11398TIP3   OH234136   6.557   2.003   4.191
11398TIP3    H134137   6.485   1.963   4.142
11398TIP3    H234138   6.576   2.084   4.144
11399TIP3   OH234139   4.354   4.586   3.324
11399TIP3    H134140   4.262   4.583   3.296
11399TIP3    H234141   4.359   4.523   3.396
11400TIP3   OH234142   5.729   4.774   2.434
11400TIP3    H134143   5.740   4.866   2.458
11400TIP3    H234144   5.669   4.776   2.360
11401TIP3   OH234145   4.365   6.254   0.385
11401TIP3    H134146   4.438   6.234   0.443
11401TIP3    H234147   4.362   6.181   0.323
11402TIP3   OH234148   7.038   4.185   1.362
11402TIP3    H134149   6.963   4.132   1.388
11402TIP3    H234150   7.054   4.242   1.438
11403TIP3   OH234151   2.284   5.464   5.349
11403TIP3    H134152   2.331   5.546   5.329
11403TIP3    H234153   2.197   5.492   5.376
11404TIP3   OH234154   2.748   7.032   4.539
11404TIP3    H134155   2.739   7.061   4.448
11404TIP3    H234156   2.778   7.110   4.586
11405TIP3   OH234157   3.491   1.813   3.612
11405TIP3    H134158   3.485   1.891   3.668
11405TIP3    H234159   3.461   1.843   3.526
11406TIP3   OH234160   7.290   6.916   0.056
11406TIP3    H134161   7.267   6.827   0.030
11406TIP3    H234162   7.364   6.906   0.117
11407TIP3   OH234163   3.157   3.550   6.127
11407TIP3    H134164   3.181   3.642   6.120
11407TIP3    H234165   3.100   3.545   6.204
11408TIP3   OH234166   0.470   2.803   4.986
11408TIP3    H134167   0.379   2.789   5.014
11408TIP3    H234168   0.469   2.888   4.943
11409TIP3   OH234169   1.475   2.519   1.887
11409TIP3    H134170   1.382   2.514   1.865
11409TIP3    H234171   1.514   2.443   1.844
11410TIP3   OH234172   3.166   4.734   3.598
11410TIP3    H134173   3.157   4.682   3.518
11410TIP3    H234174   3.102   4.698   3.659
11411TIP3   OH234175   2.404   0.689   4.726
11411TIP3    H134176   2.477   0.741   4.692
11411TIP3    H234177   2.363   0.651   4.649
11412TIP3   OH234178   0.832   1.081   1.919
11412TIP3    H134179   0.816   1.118   2.006
11412TIP3    H234180   0.745   1.051   1.890
11413TIP3   OH234181   6.127   0.164   4.035
11413TIP3    H134182   6.187   0.143   4.107
11413TIP3    H234183   6.177   0.224   3.979
11414TIP3   OH234184   3.058   4.434   3.952
11414TIP3    H134185   3.022   4.393   4.031
11414TIP3    H234186   3.042   4.527   3.965
11415TIP3   OH234187   1.812   0.295   3.174
11415TIP3    H134188   1.778   0.244   3.101
11415TIP3    H234189   1.854   0.371   3.134
11416TIP3   OH234190   4.314   4.720   4.049
11416TIP3    H134191   4.276   4.657   4.110
11416TIP3    H234192   4.244   4.738   3.987
11417TIP3   OH234193   2.027   5.872   6.630
11417TIP3    H134194   2.081   5.890   6.707
11417TIP3    H234195   1.939   5.857   6.665
11418TIP3   OH234196   7.243   2.208   3.502
11418TIP3    H134197   7.184   2.163   3.441
11418TIP3    H234198   7.261   2.292   3.461
11419TIP3   OH234199   7.629   0.193   0.751
11419TIP3    H134200   7.559   0.251   0.719
11419TIP3    H234201   7.668   0.157   0.671
11420TIP3   OH234202   0.186   0.510   0.401
11420TIP3    H134203   0.144   0.509   0.487
11420TIP3    H234204   0.122   0.469   0.343
11421TIP3   OH234205   2.275   7.570   5.602
11421TIP3    H134206   2.239   7.549   5.689
11421TIP3    H234207   2.335   7.643   5.619
11422TIP3   OH234208   0.325   3.605   5.689
11422TIP3    H134209   0.281   3.625   5.607
11422TIP3    H234210   0.409   3.567   5.663
11423TIP3   OH234211   8.278   0.145   6.453
11423TIP3    H134212   8.206   0.089   6.483
11423TIP3    H234213   8.240   0.233   6.450
11424TIP3   OH234214   0.851   1.153   6.396
11424TIP3    H134215   0.912   1.169   6.324
11424TIP3    H234216   0.770   1.197   6.369
11425TIP3   OH234217   5.044   4.903   6.581
11425TIP3    H134218   4.982   4.858   6.637
11425TIP3    H234219   5.060   4.842   6.509
11426TIP3   OH234220   0.812   0.397   1.959
11426TIP3    H134221   0.880   0.376   1.895
11426TIP3    H234222   0.733   0.354   1.926
11427TIP3   OH234223   0.729   1.776   0.747
11427TIP3    H134224   0.800   1.776   0.684
11427TIP3    H234225   0.727   1.687   0.782
11428TIP3   OH234226   2.382   4.476   6.152
11428TIP3    H134227   2.307   4.461   6.208
11428TIP3    H234228   2.378   4.570   6.132
11429TIP3   OH234229   4.682   1.948   1.444
11429TIP3    H134230   4.755   1.905   1.488
11429TIP3    H234231   4.667   2.028   1.494
11430TIP3   OH234232   0.559   1.065   1.836
11430TIP3    H134233   0.500   1.025   1.899
11430TIP3    H234234   0.561   1.004   1.762
11431TIP3   OH234235   6.908   3.417   6.081
11431TIP3    H134236   6.858   3.456   6.153
11431TIP3    H234237   6.873   3.460   6.002
11432TIP3   OH234238   6.925   1.328   3.374
11432TIP3    H134239   6.958   1.416   3.359
11432TIP3    H234240   7.003   1.276   3.392
11433TIP3   OH234241   1.035   6.287   1.284
11433TIP3    H134242   0.946   6.256   1.301
11433TIP3    H234243   1.079   6.281   1.369
11434TIP3   OH234244   0.778   6.167   5.745
11434TIP3    H134245   0.709   6.171   5.679
11434TIP3    H234246   0.732   6.145   5.826
11435TIP3   OH234247   6.583   4.387   4.645
11435TIP3    H134248   6.629   4.422   4.722
11435TIP3    H234249   6.502   4.350   4.681
11436TIP3   OH234250   5.013   2.315   3.461
11436TIP3    H134251   4.996   2.402   3.498
11436TIP3    H234252   5.066   2.332   3.383
11437TIP3   OH234253   7.687   5.308   1.694
11437TIP3    H134254   7.704   5.365   1.769
11437TIP3    H234255   7.769   5.261   1.679
11438TIP3   OH234256   3.572   7.811   2.115
11438TIP3    H134257   3.586   7.837   2.207
11438TIP3    H234258   3.513   7.737   2.120
11439TIP3   OH234259   0.660   2.367   1.041
11439TIP3    H134260   0.687   2.313   0.966
11439TIP3    H234261   0.580   2.411   1.011
11440TIP3   OH234262   1.595   0.207   4.432
11440TIP3    H134263   1.638   0.130   4.468
11440TIP3    H234264   1.564   0.179   4.346
11441TIP3   OH234265   3.725   0.616   2.640
11441TIP3    H134266   3.687   0.702   2.658
11441TIP3    H234267   3.654   0.566   2.600
11442TIP3   OH234268   0.272   3.990   6.017
11442TIP3    H134269   0.297   3.903   6.046
11442TIP3    H234270   0.243   3.979   5.926
11443TIP3   OH234271   4.982   5.926   2.196
11443TIP3    H134272   5.078   5.933   2.194
11443TIP3    H234273   4.959   5.896   2.109
11444TIP3   OH234274   3.394   1.162   1.282
11444TIP3    H134275   3.467   1.115   1.242
11444TIP3    H234276   3.411   1.254   1.263
11445TIP3   OH234277   8.089   2.947   3.590
11445TIP3    H134278   8.022   2.979   3.530
11445TIP3    H234279   8.071   2.853   3.599
11446TIP3   OH234280   0.832   0.589   0.362
11446TIP3    H134281   0.776   0.648   0.413
11446TIP3    H234282   0.810   0.502   0.393
11447TIP3   OH234283   4.967   2.023   2.898
11447TIP3    H134284   4.964   1.927   2.902
11447TIP3    H234285   5.018   2.041   2.819
11448TIP3   OH234286   7.923   2.888   3.872
11448TIP3    H134287   7.912   2.950   3.944
11448TIP3    H234288   7.865   2.920   3.803
11449TIP3   OH234289   1.060   6.400   1.594
11449TIP3    H134290   1.066   6.306   1.579
11449TIP3    H234291   1.147   6.434   1.571
11450TIP3   OH234292   7.195   0.249   4.737
11450TIP3    H134293   7.178   0.176   4.796
11450TIP3    H234294   7.280   0.230   4.698
11451TIP3   OH234295   5.367   5.577   5.828
11451TIP3    H134296   5.375   5.583   5.732
11451TIP3    H234297   5.357   5.668   5.857
11452TIP3   OH234298   7.480   0.428   4.629
11452TIP3    H134299   7.390   0.451   4.607
11452TIP3    H234300   7.472   0.354   4.689
11453TIP3   OH234301   2.802   4.154   5.577
11453TIP3    H134302   2.837   4.141   5.666
11453TIP3    H234303   2.728   4.213   5.589
11454TIP3   OH234304   6.142   7.428   1.178
11454TIP3    H134305   6.143   7.363   1.108
11454TIP3    H234306   6.066   7.483   1.159
11455TIP3   OH234307   2.881   2.894   5.255
11455TIP3    H134308   2.840   2.830   5.314
11455TIP3    H234309   2.810   2.953   5.232
11456TIP3   OH234310   4.172   7.297   4.154
11456TIP3    H134311   4.266   7.292   4.138
11456TIP3    H234312   4.164   7.316   4.247
11457TIP3   OH234313   0.602   3.252   6.380
11457TIP3    H134314   0.581   3.303   6.458
11457TIP3    H234315   0.631   3.167   6.413
11458TIP3   OH234316   2.933   4.234   3.214
11458TIP3    H134317   2.949   4.281   3.296
11458TIP3    H234318   2.895   4.150   3.242
11459TIP3   OH234319   4.165   0.504   3.740
11459TIP3    H134320   4.260   0.512   3.745
11459TIP3    H234321   4.132   0.559   3.810
11460TIP3   OH234322   1.452   6.975   2.256
11460TIP3    H134323   1.362   6.949   2.272
11460TIP3    H234324   1.476   6.931   2.174
11461TIP3   OH234325   2.534   1.531   1.236
11461TIP3    H134326   2.554   1.441   1.208
11461TIP3    H234327   2.558   1.532   1.329
11462TIP3   OH234328   0.843   3.226   3.969
11462TIP3    H134329   0.869   3.135   3.982
11462TIP3    H234330   0.855   3.267   4.055
11463TIP3   OH234331   5.814   2.220   1.505
11463TIP3    H134332   5.760   2.283   1.457
11463TIP3    H234333   5.883   2.195   1.443
11464TIP3   OH234334   4.063   2.657   1.309
11464TIP3    H134335   4.021   2.701   1.235
11464TIP3    H234336   4.100   2.577   1.272
11465TIP3   OH234337   1.230   3.413   1.732
11465TIP3    H134338   1.199   3.503   1.726
11465TIP3    H234339   1.227   3.393   1.826
11466TIP3   OH234340   6.035   2.115   1.357
11466TIP3    H134341   6.043   2.087   1.266
11466TIP3    H234342   6.101   2.185   1.366
11467TIP3   OH234343   7.775   5.749   4.257
11467TIP3    H134344   7.707   5.814   4.236
11467TIP3    H234345   7.773   5.688   4.183
11468TIP3   OH234346   6.441   0.186   3.949
11468TIP3    H134347   6.428   0.224   3.862
11468TIP3    H234348   6.530   0.214   3.974
11469TIP3   OH234349   0.166   2.020   6.637
11469TIP3    H134350   0.253   2.013   6.676
11469TIP3    H234351   0.108   2.043   6.710
11470TIP3   OH234352   3.359   1.706   0.911
11470TIP3    H134353   3.349   1.757   0.831
11470TIP3    H234354   3.367   1.616   0.882
11471TIP3   OH234355   1.973   6.503   5.140
11471TIP3    H134356   2.057   6.537   5.110
11471TIP3    H234357   1.966   6.533   5.231
11472TIP3   OH234358   6.918   7.085   5.941
11472TIP3    H134359   6.997   7.081   5.994
11472TIP3    H234360   6.846   7.092   6.004
11473TIP3   OH234361   6.826   0.403   6.426
11473TIP3    H134362   6.743   0.449   6.438
11473TIP3    H234363   6.891   0.472   6.412
11474TIP3   OH234364   4.186   5.286   2.484
11474TIP3    H134365   4.149   5.283   2.572
11474TIP3    H234366   4.123   5.337   2.433
11475TIP3   OH234367   0.448   7.161   1.528
11475TIP3    H134368   0.429   7.234   1.469
11475TIP3    H234369   0.434   7.197   1.615
11476TIP3   OH234370   0.716   2.775   3.593
11476TIP3    H134371   0.768   2.695   3.590
11476TIP3    H234372   0.625   2.745   3.586
11477TIP3   OH234373   6.519   0.344   1.074
11477TIP3    H134374   6.489   0.262   1.113
11477TIP3    H234375   6.520   0.406   1.146
11478TIP3   OH234376   8.075   2.927   2.352
11478TIP3    H134377   8.062   2.844   2.396
11478TIP3    H234378   7.993   2.974   2.364
11479TIP3   OH234379   6.423   4.924   1.367
11479TIP3    H134380   6.342   4.915   1.419
11479TIP3    H234381   6.493   4.925   1.433
11480TIP3   OH234382   1.676   6.392   4.809
11480TIP3    H134383   1.723   6.471   4.836
11480TIP3    H234384   1.612   6.376   4.879
11481TIP3   OH234385   1.653   4.478   3.404
11481TIP3    H134386   1.607   4.518   3.478
11481TIP3    H234387   1.619   4.523   3.327
11482TIP3   OH234388   5.907   4.802   5.027
11482TIP3    H134389   5.980   4.856   5.058
11482TIP3    H234390   5.861   4.776   5.107
11483TIP3   OH234391   3.490   0.934   5.599
11483TIP3    H134392   3.522   0.929   5.509
11483TIP3    H234393   3.570   0.934   5.652
11484TIP3   OH234394   0.018   7.753   1.915
11484TIP3    H134395  -0.061   7.773   1.964
11484TIP3    H234396   0.011   7.806   1.835
11485TIP3   OH234397   6.938   2.951   3.968
11485TIP3    H134398   7.029   2.980   3.974
11485TIP3    H234399   6.912   2.934   4.058
11486TIP3   OH234400   1.319   2.738   0.177
11486TIP3    H134401   1.281   2.785   0.103
11486TIP3    H234402   1.399   2.788   0.198
11487TIP3   OH234403   6.120   4.962   4.475
11487TIP3    H134404   6.106   4.954   4.569
11487TIP3    H234405   6.057   5.029   4.447
11488TIP3   OH234406   7.358   5.395   3.165
11488TIP3    H134407   7.266   5.381   3.146
11488TIP3    H234408   7.359   5.440   3.250
11489TIP3   OH234409   8.188   7.328   2.993
11489TIP3    H134410   8.108   7.275   2.987
11489TIP3    H234411   8.259   7.265   2.982
11490TIP3   OH234412   3.480   6.838   2.962
11490TIP3    H134413   3.396   6.799   2.937
11490TIP3    H234414   3.458   6.926   2.991
11491TIP3   OH234415   0.007   1.730   4.913
11491TIP3    H134416  -0.041   1.664   4.864
11491TIP3    H234417  -0.034   1.813   4.887
11492TIP3   OH234418   4.368   7.201   3.253
11492TIP3    H134419   4.406   7.238   3.173
11492TIP3    H234420   4.397   7.260   3.322
11493TIP3   OH234421   2.728   3.293   4.921
11493TIP3    H134422   2.699   3.213   4.878
11493TIP3    H234423   2.649   3.348   4.923
11494TIP3   OH234424   7.204   2.430   5.743
11494TIP3    H134425   7.165   2.465   5.824
11494TIP3    H234426   7.266   2.364   5.772
11495TIP3   OH234427   5.156   6.926   3.903
11495TIP3    H134428   5.110   6.889   3.827
11495TIP3    H234429   5.157   6.855   3.967
11496TIP3   OH234430   8.235   2.966   3.261
11496TIP3    H134431   8.330   2.961   3.250
11496TIP3    H234432   8.204   2.876   3.255
11497TIP3   OH234433   4.463   1.959   1.761
11497TIP3    H134434   4.522   1.999   1.824
11497TIP3    H234435   4.482   2.004   1.678
11498TIP3   OH234436   3.847   3.915   6.535
11498TIP3    H134437   3.868   3.836   6.484
11498TIP3    H234438   3.757   3.902   6.563
11499TIP3   OH234439   3.626   3.113   1.519
11499TIP3    H134440   3.682   3.185   1.548
11499TIP3    H234441   3.642   3.042   1.580
11500TIP3   OH234442   8.077   3.923   4.586
11500TIP3    H134443   7.991   3.909   4.627
11500TIP3    H234444   8.057   3.970   4.505
11501TIP3   OH234445   6.877   0.177   1.900
11501TIP3    H134446   6.788   0.142   1.889
11501TIP3    H234447   6.893   0.227   1.820
11502TIP3   OH234448   6.866   2.035   6.636
11502TIP3    H134449   6.896   2.066   6.551
11502TIP3    H234450   6.804   2.102   6.666
11503TIP3   OH234451   5.606   6.775   3.447
11503TIP3    H134452   5.533   6.831   3.474
11503TIP3    H234453   5.608   6.783   3.352
11504TIP3   OH234454   1.495   5.608   2.677
11504TIP3    H134455   1.417   5.570   2.716
11504TIP3    H234456   1.558   5.536   2.674
11505TIP3   OH234457   2.865   5.105   3.657
11505TIP3    H134458   2.795   5.161   3.690
11505TIP3    H234459   2.917   5.084   3.734
11506TIP3   OH234460   1.095   6.051   5.951
11506TIP3    H134461   1.191   6.052   5.954
11506TIP3    H234462   1.074   6.095   5.869
11507TIP3   OH234463   4.561   5.557   3.997
11507TIP3    H134464   4.488   5.569   3.936
11507TIP3    H234465   4.523   5.573   4.083
11508TIP3   OH234466   2.927   0.214   3.478
11508TIP3    H134467   2.900   0.163   3.402
11508TIP3    H234468   2.852   0.210   3.537
11509TIP3   OH234469   3.860   1.383   3.962
11509TIP3    H134470   3.879   1.417   4.049
11509TIP3    H234471   3.766   1.366   3.963
11510TIP3   OH234472   2.900   6.090   5.986
11510TIP3    H134473   2.868   6.084   6.075
11510TIP3    H234474   2.886   6.181   5.960
11511TIP3   OH234475   0.451   5.363   6.201
11511TIP3    H134476   0.523   5.412   6.162
11511TIP3    H234477   0.477   5.352   6.293
11512TIP3   OH234478   0.380   7.499   4.728
11512TIP3    H134479   0.465   7.486   4.771
11512TIP3    H234480   0.396   7.474   4.637
11513TIP3   OH234481   5.312   1.202   3.726
11513TIP3    H134482   5.318   1.254   3.646
11513TIP3    H234483   5.371   1.246   3.788
11514TIP3   OH234484   5.406   2.595   1.175
11514TIP3    H134485   5.455   2.637   1.245
11514TIP3    H234486   5.389   2.506   1.208
11515TIP3   OH234487   2.379   2.441   2.263
11515TIP3    H134488   2.376   2.366   2.323
11515TIP3    H234489   2.431   2.411   2.189
11516TIP3   OH234490   6.786   2.020   3.478
11516TIP3    H134491   6.693   2.001   3.488
11516TIP3    H234492   6.827   1.936   3.460
11517TIP3   OH234493   3.841   5.077   1.309
11517TIP3    H134494   3.881   5.055   1.225
11517TIP3    H234495   3.915   5.092   1.367
11518TIP3   OH234496   0.618   2.864   2.244
11518TIP3    H134497   0.524   2.880   2.249
11518TIP3    H234498   0.625   2.769   2.235
11519TIP3   OH234499   7.004   2.091   3.689
11519TIP3    H134500   7.058   2.150   3.638
11519TIP3    H234501   6.934   2.064   3.629
11520TIP3   OH234502   6.775   0.743   2.355
11520TIP3    H134503   6.742   0.656   2.377
11520TIP3    H234504   6.866   0.741   2.386
11521TIP3   OH234505   0.004   0.120   3.607
11521TIP3    H134506  -0.027   0.059   3.674
11521TIP3    H234507   0.016   0.066   3.529
11522TIP3   OH234508   6.980   6.071   0.067
11522TIP3    H134509   7.016   5.989   0.100
11522TIP3    H234510   7.028   6.139   0.114
11523TIP3   OH234511   3.842   6.175   3.791
11523TIP3    H134512   3.876   6.255   3.831
11523TIP3    H234513   3.787   6.136   3.858
11524TIP3   OH234514   5.297   6.689   5.992
11524TIP3    H134515   5.261   6.618   5.939
11524TIP3    H234516   5.223   6.748   6.007
11525TIP3   OH234517   5.225   5.381   5.266
11525TIP3    H134518   5.253   5.293   5.292
11525TIP3    H234519   5.144   5.395   5.315
11526TIP3   OH234520   4.646   4.037   5.514
11526TIP3    H134521   4.567   4.083   5.542
11526TIP3    H234522   4.692   4.016   5.595
11527TIP3   OH234523   2.462   6.866   4.366
11527TIP3    H134524   2.483   6.800   4.433
11527TIP3    H234525   2.547   6.902   4.341
11528TIP3   OH234526   0.150   7.627   5.444
11528TIP3    H134527   0.205   7.565   5.396
11528TIP3    H234528   0.079   7.573   5.479
11529TIP3   OH234529   0.640   6.195   0.912
11529TIP3    H134530   0.566   6.243   0.875
11529TIP3    H234531   0.700   6.264   0.943
11530TIP3   OH234532   3.615   5.248   0.557
11530TIP3    H134533   3.587   5.159   0.537
11530TIP3    H234534   3.534   5.297   0.567
11531TIP3   OH234535   5.039   0.540   5.081
11531TIP3    H134536   5.024   0.628   5.115
11531TIP3    H234537   5.084   0.494   5.153
11532TIP3   OH234538   0.832   5.752   3.461
11532TIP3    H134539   0.853   5.738   3.368
11532TIP3    H234540   0.903   5.708   3.508
11533TIP3   OH234541   0.114   4.543   1.757
11533TIP3    H134542   0.105   4.507   1.669
11533TIP3    H234543   0.130   4.637   1.743
11534TIP3   OH234544   7.626   1.635   4.190
11534TIP3    H134545   7.558   1.678   4.138
11534TIP3    H234546   7.706   1.684   4.170
11535TIP3   OH234547   4.287   5.128   6.317
11535TIP3    H134548   4.206   5.084   6.341
11535TIP3    H234549   4.288   5.208   6.369
11536TIP3   OH234550   4.106   4.922   2.727
11536TIP3    H134551   4.038   4.907   2.662
11536TIP3    H234552   4.090   5.010   2.759
11537TIP3   OH234553   2.307   2.635   6.591
11537TIP3    H134554   2.299   2.596   6.505
11537TIP3    H234555   2.328   2.727   6.575
11538TIP3   OH234556   4.966   2.518   5.669
11538TIP3    H134557   5.058   2.491   5.672
11538TIP3    H234558   4.940   2.527   5.760
11539TIP3   OH234559   5.342   4.284   2.622
11539TIP3    H134560   5.322   4.305   2.531
11539TIP3    H234561   5.261   4.301   2.670
11540TIP3   OH234562   1.342   1.539   4.451
11540TIP3    H134563   1.378   1.476   4.389
11540TIP3    H234564   1.412   1.552   4.516
11541TIP3   OH234565   4.370   0.102   4.322
11541TIP3    H134566   4.342   0.069   4.236
11541TIP3    H234567   4.372   0.024   4.377
11542TIP3   OH234568   6.565   5.148   5.386
11542TIP3    H134569   6.637   5.206   5.408
11542TIP3    H234570   6.562   5.085   5.459
11543TIP3   OH234571   4.706   6.156   0.287
11543TIP3    H134572   4.683   6.183   0.376
11543TIP3    H234573   4.713   6.238   0.239
11544TIP3   OH234574   6.817   3.001   1.428
11544TIP3    H134575   6.747   2.960   1.480
11544TIP3    H234576   6.895   2.994   1.483
11545TIP3   OH234577   1.865   3.121   1.749
11545TIP3    H134578   1.813   3.133   1.829
11545TIP3    H234579   1.945   3.078   1.779
11546TIP3   OH234580   0.633   5.583   3.203
11546TIP3    H134581   0.566   5.606   3.138
11546TIP3    H234582   0.716   5.594   3.157
11547TIP3   OH234583   5.768   0.600   0.986
11547TIP3    H134584   5.829   0.529   0.964
11547TIP3    H234585   5.800   0.633   1.070
11548TIP3   OH234586   4.876   7.524   4.378
11548TIP3    H134587   4.903   7.610   4.411
11548TIP3    H234588   4.955   7.470   4.382
11549TIP3   OH234589   4.491   0.981   4.646
11549TIP3    H134590   4.510   1.038   4.571
11549TIP3    H234591   4.512   0.893   4.615
11550TIP3   OH234592   2.285   3.842   1.084
11550TIP3    H134593   2.371   3.881   1.102
11550TIP3    H234594   2.304   3.774   1.019
11551TIP3   OH234595   1.467   0.425   3.016
11551TIP3    H134596   1.553   0.437   2.976
11551TIP3    H234597   1.429   0.351   2.969
11552TIP3   OH234598   1.129   5.183   4.109
11552TIP3    H134599   1.180   5.229   4.175
11552TIP3    H234600   1.055   5.147   4.158
11553TIP3   OH234601   1.085   6.279   6.158
11553TIP3    H134602   1.011   6.335   6.133
11553TIP3    H234603   1.084   6.208   6.094
11554TIP3   OH234604   3.631   3.641   2.972
11554TIP3    H134605   3.688   3.660   2.898
11554TIP3    H234606   3.648   3.711   3.035
11555TIP3   OH234607   4.873   2.138   4.337
11555TIP3    H134608   4.825   2.209   4.296
11555TIP3    H234609   4.818   2.061   4.326
11556TIP3   OH234610   5.760   4.894   5.579
11556TIP3    H134611   5.751   4.814   5.632
11556TIP3    H234612   5.678   4.940   5.592
11557TIP3   OH234613   3.000   3.651   6.550
11557TIP3    H134614   2.964   3.600   6.622
11557TIP3    H234615   3.094   3.658   6.570
11558TIP3   OH234616   4.284   4.998   4.056
11558TIP3    H134617   4.193   4.968   4.065
11558TIP3    H234618   4.335   4.917   4.048
11559TIP3   OH234619   6.325   1.906   3.872
11559TIP3    H134620   6.283   1.847   3.934
11559TIP3    H234621   6.417   1.910   3.901
11560TIP3   OH234622   1.334   1.710   6.765
11560TIP3    H134623   1.300   1.721   6.854
11560TIP3    H234624   1.319   1.618   6.744
11561TIP3   OH234625   3.662   7.508   3.839
11561TIP3    H134626   3.622   7.425   3.813
11561TIP3    H234627   3.752   7.502   3.806
11562TIP3   OH234628   8.130   5.141   3.609
11562TIP3    H134629   8.045   5.172   3.641
11562TIP3    H234630   8.114   5.050   3.584
11563TIP3   OH234631   5.613   4.298   4.382
11563TIP3    H134632   5.605   4.378   4.434
11563TIP3    H234633   5.570   4.231   4.435
11564TIP3   OH234634   4.626   0.356   2.636
11564TIP3    H134635   4.680   0.337   2.559
11564TIP3    H234636   4.655   0.442   2.665
11565TIP3   OH234637   4.166   4.480   5.560
11565TIP3    H134638   4.233   4.448   5.621
11565TIP3    H234639   4.128   4.556   5.604
11566TIP3   OH234640   5.559   0.154   1.379
11566TIP3    H134641   5.537   0.069   1.340
11566TIP3    H234642   5.652   0.147   1.401
11567TIP3   OH234643   2.312   1.228   0.902
11567TIP3    H134644   2.331   1.285   0.827
11567TIP3    H234645   2.308   1.288   0.977
11568TIP3   OH234646   2.602   1.758   6.443
11568TIP3    H134647   2.673   1.818   6.466
11568TIP3    H234648   2.592   1.701   6.519
11569TIP3   OH234649   6.022   1.717   0.681
11569TIP3    H134650   6.066   1.681   0.758
11569TIP3    H234651   6.081   1.696   0.608
11570TIP3   OH234652   6.530   4.577   6.494
11570TIP3    H134653   6.464   4.512   6.517
11570TIP3    H234654   6.573   4.541   6.416
11571TIP3   OH234655   7.127   7.590   6.320
11571TIP3    H134656   7.063   7.578   6.391
11571TIP3    H234657   7.076   7.624   6.247
11572TIP3   OH234658   1.217   3.619   2.899
11572TIP3    H134659   1.157   3.663   2.959
11572TIP3    H234660   1.216   3.527   2.926
11573TIP3   OH234661   0.150   7.461   6.437
11573TIP3    H134662   0.133   7.456   6.343
11573TIP3    H234663   0.065   7.481   6.476
11574TIP3   OH234664   3.574   3.249   2.326
11574TIP3    H134665   3.509   3.311   2.292
11574TIP3    H234666   3.645   3.305   2.359
11575TIP3   OH234667   1.621   0.420   0.627
11575TIP3    H134668   1.621   0.439   0.721
11575TIP3    H234669   1.538   0.375   0.611
11576TIP3   OH234670   8.093   6.572   2.933
11576TIP3    H134671   8.068   6.651   2.884
11576TIP3    H234672   8.149   6.523   2.873
11577TIP3   OH234673   3.868   7.258   2.553
11577TIP3    H134674   3.830   7.346   2.557
11577TIP3    H234675   3.801   7.205   2.510
11578TIP3   OH234676   1.148   0.483   1.073
11578TIP3    H134677   1.215   0.473   1.005
11578TIP3    H234678   1.078   0.534   1.032
11579TIP3   OH234679   3.098   0.851   3.074
11579TIP3    H134680   3.160   0.888   3.137
11579TIP3    H234681   3.124   0.760   3.065
11580TIP3   OH234682   6.262   6.747   0.448
11580TIP3    H134683   6.279   6.654   0.431
11580TIP3    H234684   6.244   6.752   0.542
11581TIP3   OH234685   1.595   5.207   2.675
11581TIP3    H134686   1.628   5.118   2.669
11581TIP3    H234687   1.644   5.245   2.749
11582TIP3   OH234688   6.126   7.423   2.661
11582TIP3    H134689   6.148   7.473   2.739
11582TIP3    H234690   6.209   7.383   2.634
11583TIP3   OH234691   6.646   6.343   4.978
11583TIP3    H134692   6.560   6.384   4.965
11583TIP3    H234693   6.708   6.408   4.946
11584TIP3   OH234694   4.391   4.787   4.851
11584TIP3    H134695   4.326   4.856   4.864
11584TIP3    H234696   4.379   4.728   4.925
11585TIP3   OH234697   7.224   0.566   1.470
11585TIP3    H134698   7.258   0.617   1.544
11585TIP3    H234699   7.258   0.612   1.392
11586TIP3   OH234700   4.221   2.696   3.558
11586TIP3    H134701   4.271   2.665   3.483
11586TIP3    H234702   4.155   2.754   3.521
11587TIP3   OH234703   2.544   0.569   3.446
11587TIP3    H134704   2.488   0.522   3.508
11587TIP3    H234705   2.490   0.642   3.417
11588TIP3   OH234706   1.520   3.618   0.139
11588TIP3    H134707   1.470   3.541   0.112
11588TIP3    H234708   1.455   3.687   0.149
11589TIP3   OH234709   8.000   4.904   4.849
11589TIP3    H134710   8.035   4.819   4.875
11589TIP3    H234711   7.962   4.939   4.929
11590TIP3   OH234712   3.655   6.493   6.552
11590TIP3    H134713   3.696   6.577   6.570
11590TIP3    H234714   3.717   6.428   6.585
11591TIP3   OH234715   8.125   2.348   5.275
11591TIP3    H134716   8.157   2.402   5.202
11591TIP3    H234717   8.031   2.339   5.259
11592TIP3   OH234718   1.342   7.450   0.744
11592TIP3    H134719   1.368   7.398   0.820
11592TIP3    H234720   1.269   7.503   0.776
11593TIP3   OH234721   7.113   1.492   1.143
11593TIP3    H134722   7.028   1.496   1.099
11593TIP3    H234723   7.149   1.406   1.119
11594TIP3   OH234724   2.359   3.465   4.350
11594TIP3    H134725   2.271   3.503   4.344
11594TIP3    H234726   2.369   3.441   4.442
11595TIP3   OH234727   0.717   2.046   6.262
11595TIP3    H134728   0.661   1.976   6.297
11595TIP3    H234729   0.783   2.060   6.331
11596TIP3   OH234730   1.017   1.160   5.039
11596TIP3    H134731   1.023   1.145   5.133
11596TIP3    H234732   0.989   1.251   5.031
11597TIP3   OH234733   3.891   6.244   0.306
11597TIP3    H134734   3.841   6.318   0.270
11597TIP3    H234735   3.920   6.195   0.230
11598TIP3   OH234736   3.115   6.589   1.079
11598TIP3    H134737   3.116   6.535   1.158
11598TIP3    H234738   3.205   6.587   1.048
11599TIP3   OH234739   1.433   7.356   2.595
11599TIP3    H134740   1.525   7.377   2.610
11599TIP3    H234741   1.418   7.383   2.504
11600TIP3   OH234742   2.654   6.237   0.825
11600TIP3    H134743   2.698   6.226   0.909
11600TIP3    H234744   2.711   6.297   0.776
11601TIP3   OH234745   4.771   5.399   0.362
11601TIP3    H134746   4.727   5.400   0.447
11601TIP3    H234747   4.818   5.316   0.361
11602TIP3   OH234748   3.360   0.497   2.104
11602TIP3    H134749   3.405   0.522   2.023
11602TIP3    H234750   3.310   0.575   2.128
11603TIP3   OH234751   3.664   0.219   3.548
11603TIP3    H134752   3.633   0.307   3.566
11603TIP3    H234753   3.591   0.162   3.572
11604TIP3   OH234754   6.846   1.044   5.163
11604TIP3    H134755   6.867   1.103   5.235
11604TIP3    H234756   6.930   1.005   5.139
11605TIP3   OH234757   5.055   1.675   2.105
11605TIP3    H134758   4.998   1.603   2.132
11605TIP3    H234759   5.126   1.632   2.057
11606TIP3   OH234760   2.876   6.680   2.298
11606TIP3    H134761   2.781   6.667   2.294
11606TIP3    H234762   2.910   6.629   2.224
11607TIP3   OH234763   2.229   0.669   1.138
11607TIP3    H134764   2.137   0.651   1.159
11607TIP3    H234765   2.249   0.749   1.188
11608TIP3   OH234766   6.537   5.189   1.045
11608TIP3    H134767   6.447   5.161   1.065
11608TIP3    H234768   6.527   5.248   0.969
11609TIP3   OH234769   1.191   7.244   5.047
11609TIP3    H134770   1.129   7.196   5.102
11609TIP3    H234771   1.237   7.176   4.998
11610TIP3   OH234772   6.021   6.327   6.049
11610TIP3    H134773   6.084   6.270   6.005
11610TIP3    H234774   6.059   6.343   6.135
11611TIP3   OH234775   4.792   7.393   1.589
11611TIP3    H134776   4.749   7.444   1.520
11611TIP3    H234777   4.789   7.303   1.557
11612TIP3   OH234778   0.076   4.534   5.268
11612TIP3    H134779   0.123   4.605   5.223
11612TIP3    H234780   0.144   4.484   5.311
11613TIP3   OH234781   5.887   6.334   2.179
11613TIP3    H134782   5.861   6.376   2.097
11613TIP3    H234783   5.812   6.347   2.237
11614TIP3   OH234784   6.043   6.346   3.315
11614TIP3    H134785   6.013   6.431   3.283
11614TIP3    H234786   6.058   6.294   3.237
11615TIP3   OH234787   3.463   5.851   0.239
11615TIP3    H134788   3.423   5.938   0.232
11615TIP3    H234789   3.451   5.826   0.331
11616TIP3   OH234790   2.873   1.966   5.931
11616TIP3    H134791   2.928   1.893   5.960
11616TIP3    H234792   2.922   2.044   5.955
11617TIP3   OH234793   2.833   5.641   6.092
11617TIP3    H134794   2.836   5.721   6.144
11617TIP3    H234795   2.743   5.636   6.060
11618TIP3   OH234796   5.238   7.773   0.875
11618TIP3    H134797   5.156   7.820   0.889
11618TIP3    H234798   5.215   7.700   0.817
11619TIP3   OH234799   5.324   0.373   0.566
11619TIP3    H134800   5.374   0.293   0.546
11619TIP3    H234801   5.354   0.437   0.502
11620TIP3   OH234802   3.580   6.781   6.654
11620TIP3    H134803   3.638   6.857   6.650
11620TIP3    H234804   3.524   6.790   6.576
11621TIP3   OH234805   7.566   1.764   5.065
11621TIP3    H134806   7.642   1.794   5.114
11621TIP3    H234807   7.581   1.670   5.054
11622TIP3   OH234808   0.212   5.422   0.703
11622TIP3    H134809   0.212   5.330   0.677
11622TIP3    H234810   0.216   5.420   0.798
11623TIP3   OH234811   0.233   0.462   6.352
11623TIP3    H134812   0.214   0.402   6.424
11623TIP3    H234813   0.148   0.489   6.319
11624TIP3   OH234814   6.273   3.982   3.019
11624TIP3    H134815   6.230   3.938   2.946
11624TIP3    H234816   6.255   4.075   3.005
11625TIP3   OH234817   4.437   7.751   4.232
11625TIP3    H134818   4.522   7.787   4.206
11625TIP3    H234819   4.418   7.794   4.316
11626TIP3   OH234820   0.069   6.816   4.985
11626TIP3    H134821   0.009   6.825   4.912
11626TIP3    H234822   0.117   6.898   4.988
11627TIP3   OH234823   1.728   1.284   5.599
11627TIP3    H134824   1.666   1.287   5.526
11627TIP3    H234825   1.730   1.192   5.625
11628TIP3   OH234826   0.225   0.385   5.217
11628TIP3    H134827   0.240   0.445   5.291
11628TIP3    H234828   0.142   0.414   5.180
11629TIP3   OH234829   0.959   3.052   2.431
11629TIP3    H134830   0.945   3.137   2.474
11629TIP3    H234831   1.053   3.038   2.436
11630TIP3   OH234832   1.938   6.320   6.158
11630TIP3    H134833   2.015   6.337   6.212
11630TIP3    H234834   1.867   6.309   6.222
11631TIP3   OH234835   4.755   3.191   4.943
11631TIP3    H134836   4.696   3.133   4.895
11631TIP3    H234837   4.718   3.278   4.932
11632TIP3   OH234838   7.982   4.366   3.539
11632TIP3    H134839   7.976   4.329   3.451
11632TIP3    H234840   7.903   4.421   3.547
11633TIP3   OH234841   2.557   4.212   0.945
11633TIP3    H134842   2.568   4.207   0.850
11633TIP3    H234843   2.621   4.276   0.974
11634TIP3   OH234844   5.587   0.432   2.125
11634TIP3    H134845   5.618   0.408   2.213
11634TIP3    H234846   5.667   0.442   2.073
11635TIP3   OH234847   1.887   6.444   1.798
11635TIP3    H134848   1.963   6.405   1.841
11635TIP3    H234849   1.919   6.470   1.712
11636TIP3   OH234850   2.362   1.479   5.177
11636TIP3    H134851   2.375   1.462   5.270
11636TIP3    H234852   2.267   1.475   5.165
11637TIP3   OH234853   1.998   5.948   4.676
11637TIP3    H134854   2.056   5.980   4.607
11637TIP3    H234855   1.942   6.023   4.697
11638TIP3   OH234856   4.294   0.554   0.727
11638TIP3    H134857   4.326   0.577   0.640
11638TIP3    H234858   4.222   0.615   0.743
11639TIP3   OH234859   3.518   7.580   3.512
11639TIP3    H134860   3.485   7.574   3.422
11639TIP3    H234861   3.596   7.524   3.512
11640TIP3   OH234862   1.267   4.142   0.627
11640TIP3    H134863   1.304   4.203   0.564
11640TIP3    H234864   1.307   4.166   0.711
11641TIP3   OH234865   5.620   5.147   1.507
11641TIP3    H134866   5.530   5.159   1.536
11641TIP3    H234867   5.656   5.236   1.502
11642TIP3   OH234868   5.529   0.248   6.322
11642TIP3    H134869   5.526   0.210   6.410
11642TIP3    H234870   5.527   0.342   6.337
11643TIP3   OH234871   8.214   7.667   6.484
11643TIP3    H134872   8.212   7.754   6.524
11643TIP3    H234873   8.154   7.615   6.537
11644TIP3   OH234874   8.082   7.575   1.908
11644TIP3    H134875   8.119   7.550   1.992
11644TIP3    H234876   8.157   7.603   1.855
11645TIP3   OH234877   4.403   5.393   3.659
11645TIP3    H134878   4.409   5.463   3.724
11645TIP3    H234879   4.321   5.410   3.612
11646TIP3   OH234880   4.536   7.625   2.681
11646TIP3    H134881   4.548   7.542   2.634
11646TIP3    H234882   4.443   7.626   2.703
11647TIP3   OH234883   6.891   1.069   6.660
11647TIP3    H134884   6.930   1.123   6.591
11647TIP3    H234885   6.876   0.984   6.619
11648TIP3   OH234886   3.749   2.630   3.683
11648TIP3    H134887   3.711   2.570   3.620
11648TIP3    H234888   3.726   2.593   3.769
11649TIP3   OH234889   1.683   4.081   6.614
11649TIP3    H134890   1.613   4.140   6.643
11649TIP3    H234891   1.637   4.006   6.576
11650TIP3   OH234892   4.531   0.245   4.136
11650TIP3    H134893   4.473   0.221   4.208
11650TIP3    H234894   4.601   0.179   4.139
11651TIP3   OH234895   1.952   2.527   2.852
11651TIP3    H134896   1.945   2.438   2.885
11651TIP3    H234897   2.042   2.554   2.874
11652TIP3   OH234898   0.469   5.485   3.475
11652TIP3    H134899   0.374   5.490   3.485
11652TIP3    H234900   0.491   5.558   3.418
11653TIP3   OH234901   2.258   4.658   1.542
11653TIP3    H134902   2.237   4.576   1.588
11653TIP3    H234903   2.354   4.659   1.539
11654TIP3   OH234904   5.745   6.830   4.462
11654TIP3    H134905   5.784   6.918   4.468
11654TIP3    H234906   5.731   6.818   4.368
11655TIP3   OH234907   4.820   0.297   3.197
11655TIP3    H134908   4.886   0.348   3.244
11655TIP3    H234909   4.737   0.339   3.219
11656TIP3   OH234910   0.212   5.317   0.982
11656TIP3    H134911   0.236   5.224   0.976
11656TIP3    H234912   0.283   5.356   1.032
11657TIP3   OH234913   2.447   6.691   4.607
11657TIP3    H134914   2.360   6.717   4.579
11657TIP3    H234915   2.444   6.697   4.703
11658TIP3   OH234916   4.940   0.072   3.145
11658TIP3    H134917   5.027   0.087   3.109
11658TIP3    H234918   4.896   0.157   3.137
11659TIP3   OH234919   0.435   0.175   2.049
11659TIP3    H134920   0.436   0.158   2.144
11659TIP3    H234921   0.356   0.131   2.018
11660TIP3   OH234922   1.003   5.247   4.552
11660TIP3    H134923   0.919   5.216   4.586
11660TIP3    H234924   1.015   5.333   4.593
11661TIP3   OH234925   1.541   7.147   1.673
11661TIP3    H134926   1.575   7.235   1.655
11661TIP3    H234927   1.540   7.142   1.769
11662TIP3   OH234928   2.786   2.452   0.319
11662TIP3    H134929   2.871   2.422   0.350
11662TIP3    H234930   2.756   2.382   0.261
11663TIP3   OH234931   1.511   1.935   2.271
11663TIP3    H134932   1.497   2.027   2.294
11663TIP3    H234933   1.454   1.887   2.332
11664TIP3   OH234934   1.317   0.288   5.553
11664TIP3    H134935   1.397   0.326   5.517
11664TIP3    H234936   1.275   0.360   5.600
11665TIP3   OH234937   6.678   5.567   0.011
11665TIP3    H134938   6.639   5.652  -0.012
11665TIP3    H234939   6.683   5.519  -0.071
11666TIP3   OH234940   0.267   6.772   1.359
11666TIP3    H134941   0.340   6.819   1.400
11666TIP3    H234942   0.199   6.837   1.347
11667TIP3   OH234943   5.418   2.544   4.992
11667TIP3    H134944   5.491   2.592   5.032
11667TIP3    H234945   5.342   2.567   5.045
11668TIP3   OH234946   3.341   7.727   5.669
11668TIP3    H134947   3.335   7.761   5.758
11668TIP3    H234948   3.344   7.632   5.680
11669TIP3   OH234949   7.398   7.076   4.611
11669TIP3    H134950   7.422   7.160   4.652
11669TIP3    H234951   7.345   7.101   4.535
11670TIP3   OH234952   2.630   4.100   1.624
11670TIP3    H134953   2.674   4.171   1.577
11670TIP3    H234954   2.572   4.061   1.559
11671TIP3   OH234955   2.688   5.732   2.505
11671TIP3    H134956   2.659   5.790   2.434
11671TIP3    H234957   2.664   5.778   2.585
11672TIP3   OH234958   1.152   2.254   4.421
11672TIP3    H134959   1.209   2.202   4.365
11672TIP3    H234960   1.204   2.272   4.499
11673TIP3   OH234961   2.162   7.013   1.164
11673TIP3    H134962   2.209   6.930   1.166
11673TIP3    H234963   2.215   7.072   1.218
11674TIP3   OH234964   1.826   1.513   5.087
11674TIP3    H134965   1.913   1.473   5.078
11674TIP3    H234966   1.838   1.603   5.058
11675TIP3   OH234967   0.507   7.046   0.292
11675TIP3    H134968   0.559   7.028   0.370
11675TIP3    H234969   0.419   7.065   0.325
11676TIP3   OH234970   7.879   0.687   5.497
11676TIP3    H134971   7.886   0.735   5.414
11676TIP3    H234972   7.801   0.724   5.539
11677TIP3   OH234973   2.634   3.737   2.707
11677TIP3    H134974   2.662   3.656   2.663
11677TIP3    H234975   2.709   3.796   2.697
11678TIP3   OH234976   1.103   0.642   0.427
11678TIP3    H134977   1.016   0.644   0.387
11678TIP3    H234978   1.093   0.695   0.507
11679TIP3   OH234979   4.619   5.154   5.285
11679TIP3    H134980   4.669   5.094   5.339
11679TIP3    H234981   4.549   5.100   5.247
11680TIP3   OH234982   1.518   3.565   6.077
11680TIP3    H134983   1.595   3.548   6.023
11680TIP3    H234984   1.485   3.649   6.046
11681TIP3   OH234985   2.861   6.982   2.695
11681TIP3    H134986   2.930   6.928   2.657
11681TIP3    H234987   2.807   7.009   2.621
11682TIP3   OH234988   0.673   0.769   6.614
11682TIP3    H134989   0.696   0.817   6.694
11682TIP3    H234990   0.737   0.799   6.549
11683TIP3   OH234991   7.544   5.752   4.745
11683TIP3    H134992   7.566   5.791   4.660
11683TIP3    H234993   7.568   5.659   4.735
11684TIP3   OH234994   0.760   2.330   6.237
11684TIP3    H134995   0.750   2.236   6.224
11684TIP3    H234996   0.738   2.345   6.329
11685TIP3   OH234997   3.743   3.132   5.854
11685TIP3    H134998   3.665   3.077   5.844
11685TIP3    H234999   3.816   3.074   5.830
11686TIP3   OH235000   7.783   4.194   0.965
11686TIP3    H135001   7.776   4.174   0.872
11686TIP3    H235002   7.694   4.219   0.991
11687TIP3   OH235003   0.191   5.594   5.431
11687TIP3    H135004   0.240   5.547   5.363
11687TIP3    H235005   0.142   5.526   5.477
11688TIP3   OH235006   5.384   5.176   0.041
11688TIP3    H135007   5.477   5.164   0.019
11688TIP3    H235008   5.375   5.135   0.127
11689TIP3   OH235009   0.429   3.753   3.148
11689TIP3    H135010   0.492   3.824   3.134
11689TIP3    H235011   0.351   3.781   3.102
11690TIP3   OH235012   3.891   6.817   3.275
11690TIP3    H135013   3.852   6.864   3.202
11690TIP3    H235014   3.985   6.819   3.257
11691TIP3   OH235015   5.752   2.191   3.431
11691TIP3    H135016   5.810   2.124   3.466
11691TIP3    H235017   5.675   2.143   3.400
11692TIP3   OH235018   2.832   4.145   3.899
11692TIP3    H135019   2.804   4.057   3.874
11692TIP3    H235020   2.754   4.199   3.892
11693TIP3   OH235021   4.565   1.813   1.220
11693TIP3    H135022   4.524   1.743   1.270
11693TIP3    H235023   4.609   1.867   1.285
11694TIP3   OH235024   0.475   5.534   0.617
11694TIP3    H135025   0.510   5.581   0.692
11694TIP3    H235026   0.390   5.501   0.646
11695TIP3   OH235027   5.076   7.153   2.584
11695TIP3    H135028   5.022   7.211   2.636
11695TIP3    H235029   5.045   7.065   2.606
11696TIP3   OH235030   2.873   6.441   3.591
11696TIP3    H135031   2.923   6.361   3.609
11696TIP3    H235032   2.917   6.509   3.642
11697TIP3   OH235033   0.602   6.505   1.766
11697TIP3    H135034   0.543   6.552   1.707
11697TIP3    H235035   0.672   6.473   1.708
11698TIP3   OH235036   0.084   5.405   3.314
11698TIP3    H135037   0.144   5.335   3.288
11698TIP3    H235038   0.051   5.378   3.400
11699TIP3   OH235039   1.240   7.533   2.732
11699TIP3    H135040   1.299   7.464   2.701
11699TIP3    H235041   1.266   7.548   2.823
11700TIP3   OH235042   4.732   3.285   1.708
11700TIP3    H135043   4.777   3.226   1.769
11700TIP3    H235044   4.746   3.246   1.622
11701TIP3   OH235045   3.088   4.541   4.826
11701TIP3    H135046   3.105   4.456   4.866
11701TIP3    H235047   3.169   4.591   4.839
11702TIP3   OH235048   0.666   3.918   3.072
11702TIP3    H135049   0.686   3.832   3.035
11702TIP3    H235050   0.617   3.963   3.004
11703TIP3   OH235051   6.767   7.158   3.532
11703TIP3    H135052   6.714   7.133   3.608
11703TIP3    H235053   6.765   7.253   3.531
11704TIP3   OH235054   5.689   2.768   3.430
11704TIP3    H135055   5.779   2.738   3.416
11704TIP3    H235056   5.636   2.689   3.419
11705TIP3   OH235057   4.829   2.503   5.962
11705TIP3    H135058   4.906   2.548   5.997
11705TIP3    H235059   4.786   2.569   5.907
11706TIP3   OH235060   2.153   3.205   3.290
11706TIP3    H135061   2.168   3.264   3.216
11706TIP3    H235062   2.206   3.128   3.271
11707TIP3   OH235063   7.332   4.983   5.739
11707TIP3    H135064   7.332   4.957   5.831
11707TIP3    H235065   7.245   5.019   5.723
11708TIP3   OH235066   1.243   3.627   0.318
11708TIP3    H135067   1.200   3.711   0.335
11708TIP3    H235068   1.293   3.609   0.397
11709TIP3   OH235069   4.743   5.507   5.584
11709TIP3    H135070   4.663   5.467   5.619
11709TIP3    H235071   4.782   5.552   5.659
11710TIP3   OH235072   7.335   7.179   4.023
11710TIP3    H135073   7.389   7.230   4.083
11710TIP3    H235074   7.394   7.153   3.953
11711TIP3   OH235075   1.741   3.953   5.423
11711TIP3    H135076   1.770   3.891   5.490
11711TIP3    H235077   1.688   3.900   5.363
11712TIP3   OH235078   6.385   0.934   4.591
11712TIP3    H135079   6.409   0.968   4.505
11712TIP3    H235080   6.397   1.008   4.650
11713TIP3   OH235081   1.191   0.175   1.144
11713TIP3    H135082   1.188   0.265   1.111
11713TIP3    H235083   1.126   0.173   1.214
11714TIP3   OH235084   5.551   2.101   5.249
11714TIP3    H135085   5.560   2.192   5.279
11714TIP3    H235086   5.550   2.107   5.154
11715TIP3   OH235087   3.455   4.680   3.182
11715TIP3    H135088   3.364   4.674   3.153
11715TIP3    H235089   3.504   4.702   3.103
11716TIP3   OH235090   0.652   2.895   5.664
11716TIP3    H135091   0.681   2.805   5.646
11716TIP3    H235092   0.678   2.911   5.755
11717TIP3   OH235093   0.923   6.514   2.962
11717TIP3    H135094   0.901   6.537   2.872
11717TIP3    H235095   0.848   6.543   3.014
11718TIP3   OH235096   7.895   1.042   5.457
11718TIP3    H135097   7.987   1.048   5.433
11718TIP3    H235098   7.895   0.992   5.539
11719TIP3   OH235099   1.734   0.757   2.750
11719TIP3    H135100   1.644   0.756   2.784
11719TIP3    H235101   1.730   0.706   2.670
11720TIP3   OH235102   6.811   4.864   5.440
11720TIP3    H135103   6.731   4.816   5.417
11720TIP3    H235104   6.788   4.913   5.518
11721TIP3   OH235105   0.166   5.242   2.473
11721TIP3    H135106   0.231   5.175   2.495
11721TIP3    H235107   0.091   5.192   2.441
11722TIP3   OH235108   5.469   4.928   5.036
11722TIP3    H135109   5.491   4.984   4.961
11722TIP3    H235110   5.521   4.963   5.108
11723TIP3   OH235111   2.145   0.453   0.500
11723TIP3    H135112   2.110   0.515   0.437
11723TIP3    H235113   2.240   0.462   0.493
11724TIP3   OH235114   5.435   6.962   3.139
11724TIP3    H135115   5.471   6.984   3.225
11724TIP3    H235116   5.490   7.009   3.076
11725TIP3   OH235117   1.445   5.252   4.826
11725TIP3    H135118   1.414   5.333   4.866
11725TIP3    H235119   1.457   5.192   4.899
11726TIP3   OH235120   7.646   6.462   0.072
11726TIP3    H135121   7.641   6.505  -0.014
11726TIP3    H235122   7.696   6.382   0.055
11727TIP3   OH235123   7.835   4.614   5.575
11727TIP3    H135124   7.842   4.606   5.480
11727TIP3    H235125   7.883   4.538   5.610
11728TIP3   OH235126   3.005   7.383   1.949
11728TIP3    H135127   2.922   7.430   1.949
11728TIP3    H235128   3.054   7.420   1.875
11729TIP3   OH235129   0.061   1.111   2.009
11729TIP3    H135130   0.042   1.047   1.940
11729TIP3    H235131  -0.014   1.170   2.009
11730TIP3   OH235132   8.218   1.346   6.206
11730TIP3    H135133   8.172   1.419   6.164
11730TIP3    H235134   8.227   1.280   6.137
11731TIP3   OH235135   0.774   2.378   1.821
11731TIP3    H135136   0.728   2.457   1.792
11731TIP3    H235137   0.742   2.309   1.762
11732TIP3   OH235138   6.408   4.635   0.062
11732TIP3    H135139   6.331   4.578   0.054
11732TIP3    H235140   6.377   4.710   0.112
11733TIP3   OH235141   2.784   2.244   3.388
11733TIP3    H135142   2.869   2.200   3.379
11733TIP3    H235143   2.720   2.178   3.360
11734TIP3   OH235144   7.662   7.705   1.797
11734TIP3    H135145   7.632   7.626   1.842
11734TIP3    H235146   7.757   7.698   1.795
11735TIP3   OH235147   7.556   3.215   4.205
11735TIP3    H135148   7.464   3.241   4.206
11735TIP3    H235149   7.602   3.283   4.253
11736TIP3   OH235150   4.958   3.170   2.744
11736TIP3    H135151   5.024   3.201   2.682
11736TIP3    H235152   4.895   3.241   2.749
11737TIP3   OH235153   2.682   6.737   0.108
11737TIP3    H135154   2.702   6.648   0.137
11737TIP3    H235155   2.653   6.782   0.188
11738TIP3   OH235156   4.056   7.059   5.913
11738TIP3    H135157   4.107   7.132   5.948
11738TIP3    H235158   3.985   7.046   5.976
11739TIP3   OH235159   4.107   0.615   1.076
11739TIP3    H135160   4.142   0.652   1.157
11739TIP3    H235161   4.061   0.536   1.104
11740TIP3   OH235162   6.991   5.429   3.619
11740TIP3    H135163   7.086   5.428   3.634
11740TIP3    H235164   6.975   5.512   3.574
11741TIP3   OH235165   5.657   2.155   4.962
11741TIP3    H135166   5.734   2.158   4.905
11741TIP3    H235167   5.598   2.221   4.926
11742TIP3   OH235168   7.782   1.725   6.267
11742TIP3    H135169   7.727   1.777   6.208
11742TIP3    H235170   7.729   1.715   6.347
11743TIP3   OH235171   0.375   5.191   5.322
11743TIP3    H135172   0.366   5.286   5.323
11743TIP3    H235173   0.470   5.176   5.323
11744TIP3   OH235174   0.267   6.378   5.571
11744TIP3    H135175   0.266   6.436   5.496
11744TIP3    H235176   0.321   6.423   5.636
11745TIP3   OH235177   2.024   0.628   4.647
11745TIP3    H135178   2.085   0.594   4.712
11745TIP3    H235179   1.946   0.573   4.657
11746TIP3   OH235180   7.082   4.127   3.709
11746TIP3    H135181   7.086   4.220   3.729
11746TIP3    H235182   6.991   4.112   3.683
11747TIP3   OH235183   7.434   2.934   6.252
11747TIP3    H135184   7.371   2.956   6.321
11747TIP3    H235185   7.507   2.892   6.298
11748TIP3   OH235186   5.970   2.763   4.995
11748TIP3    H135187   5.998   2.778   5.086
11748TIP3    H235188   6.041   2.802   4.943
11749TIP3   OH235189   2.747   4.962   6.134
11749TIP3    H135190   2.836   4.983   6.163
11749TIP3    H235191   2.702   4.931   6.212
11750TIP3   OH235192   0.087   2.612   3.171
11750TIP3    H135193   0.178   2.639   3.186
11750TIP3    H235194   0.087   2.581   3.080
11751TIP3   OH235195   3.088   0.571   0.812
11751TIP3    H135196   3.139   0.623   0.749
11751TIP3    H235197   3.080   0.485   0.771
11752TIP3   OH235198   5.563   3.202   5.994
11752TIP3    H135199   5.561   3.162   6.081
11752TIP3    H235200   5.580   3.130   5.934
11753TIP3   OH235201   3.663   5.918   5.196
11753TIP3    H135202   3.661   5.989   5.260
11753TIP3    H235203   3.631   5.958   5.115
11754TIP3   OH235204   2.626   6.599   2.218
11754TIP3    H135205   2.562   6.645   2.273
11754TIP3    H235206   2.576   6.567   2.144
11755TIP3   OH235207   2.303   7.812   4.467
11755TIP3    H135208   2.229   7.806   4.527
11755TIP3    H235209   2.281   7.752   4.396
11756TIP3   OH235210   2.565   5.390   5.908
11756TIP3    H135211   2.624   5.339   5.964
11756TIP3    H235212   2.551   5.334   5.832
11757TIP3   OH235213   6.279   6.896   4.504
11757TIP3    H135214   6.198   6.917   4.550
11757TIP3    H235215   6.304   6.809   4.536
11758TIP3   OH235216   4.862   7.366   1.253
11758TIP3    H135217   4.878   7.455   1.221
11758TIP3    H235218   4.767   7.362   1.266
11759TIP3   OH235219   5.007   6.745   4.454
11759TIP3    H135220   4.985   6.807   4.523
11759TIP3    H235221   5.077   6.691   4.491
11760TIP3   OH235222   6.127   1.143   0.288
11760TIP3    H135223   6.045   1.152   0.336
11760TIP3    H235224   6.188   1.107   0.352
11761TIP3   OH235225   4.067   3.870   0.467
11761TIP3    H135226   4.093   3.921   0.390
11761TIP3    H235227   4.137   3.886   0.530
11762TIP3   OH235228   6.074   4.895   0.877
11762TIP3    H135229   6.061   4.983   0.914
11762TIP3    H235230   5.996   4.880   0.824
11763TIP3   OH235231   1.381   5.629   3.095
11763TIP3    H135232   1.386   5.651   3.187
11763TIP3    H235233   1.435   5.695   3.051
11764TIP3   OH235234   5.912   5.666   1.465
11764TIP3    H135235   5.979   5.608   1.429
11764TIP3    H235236   5.871   5.616   1.536
11765TIP3   OH235237   7.647   0.894   4.175
11765TIP3    H135238   7.686   0.954   4.238
11765TIP3    H235239   7.555   0.922   4.170
11766TIP3   OH235240   2.897   4.028   6.228
11766TIP3    H135241   2.895   4.099   6.164
11766TIP3    H235242   2.858   4.066   6.307
11767TIP3   OH235243   7.404   5.721   2.649
11767TIP3    H135244   7.464   5.669   2.595
11767TIP3    H235245   7.389   5.801   2.599
11768TIP3   OH235246   4.541   4.441   5.106
11768TIP3    H135247   4.597   4.373   5.068
11768TIP3    H235248   4.503   4.400   5.184
11769TIP3   OH235249   1.143   6.395   2.603
11769TIP3    H135250   1.142   6.397   2.699
11769TIP3    H235251   1.201   6.467   2.579
11770TIP3   OH235252   2.829   3.899   5.846
11770TIP3    H135253   2.909   3.848   5.859
11770TIP3    H235254   2.772   3.872   5.918
11771TIP3   OH235255   0.779   3.226   4.316
11771TIP3    H135256   0.834   3.166   4.365
11771TIP3    H235257   0.811   3.313   4.339
11772TIP3   OH235258   2.571   4.607   4.738
11772TIP3    H135259   2.505   4.594   4.805
11772TIP3    H235260   2.654   4.586   4.781
11773TIP3   OH235261   5.365   5.607   5.248
11773TIP3    H135262   5.298   5.674   5.266
11773TIP3    H235263   5.319   5.524   5.261
11774TIP3   OH235264   0.540   1.086   5.180
11774TIP3    H135265   0.607   1.035   5.136
11774TIP3    H235266   0.584   1.165   5.209
11775TIP3   OH235267   2.413   3.434   3.497
11775TIP3    H135268   2.433   3.353   3.451
11775TIP3    H235269   2.321   3.451   3.477
11776TIP3   OH235270   7.862   2.666   4.887
11776TIP3    H135271   7.917   2.611   4.830
11776TIP3    H235272   7.844   2.744   4.835
11777TIP3   OH235273   2.001   1.387   2.487
11777TIP3    H135274   1.982   1.463   2.432
11777TIP3    H235275   2.071   1.341   2.441
11778TIP3   OH235276   5.834   2.708   6.369
11778TIP3    H135277   5.766   2.660   6.322
11778TIP3    H235278   5.807   2.703   6.461
11779TIP3   OH235279   4.998   5.250   1.029
11779TIP3    H135280   4.980   5.278   1.119
11779TIP3    H235281   4.963   5.320   0.974
11780TIP3   OH235282   3.600   1.939   0.953
11780TIP3    H135283   3.620   2.027   0.984
11780TIP3    H235284   3.564   1.894   1.029
11781TIP3   OH235285   0.442   5.969   5.420
11781TIP3    H135286   0.538   5.977   5.416
11781TIP3    H235287   0.414   6.042   5.475
11782TIP3   OH235288   6.568   4.374   4.263
11782TIP3    H135289   6.534   4.461   4.243
11782TIP3    H235290   6.577   4.332   4.177
11783TIP3   OH235291   5.195   1.526   6.303
11783TIP3    H135292   5.145   1.600   6.337
11783TIP3    H235293   5.179   1.528   6.208
11784TIP3   OH235294   1.867   3.235   3.279
11784TIP3    H135295   1.936   3.169   3.277
11784TIP3    H235296   1.898   3.305   3.223
11785TIP3   OH235297   0.173   6.474   0.485
11785TIP3    H135298   0.154   6.444   0.397
11785TIP3    H235299   0.259   6.516   0.478
11786TIP3   OH235300   7.948   6.873   4.421
11786TIP3    H135301   7.899   6.873   4.503
11786TIP3    H235302   7.986   6.785   4.416
11787TIP3   OH235303   0.315   5.253   1.735
11787TIP3    H135304   0.384   5.276   1.797
11787TIP3    H235305   0.322   5.158   1.726
11788TIP3   OH235306   7.426   6.011   2.508
11788TIP3    H135307   7.351   5.986   2.454
11788TIP3    H235308   7.461   6.089   2.466
11789TIP3   OH235309   0.049   4.834   5.718
11789TIP3    H135310   0.031   4.880   5.800
11789TIP3    H235311  -0.028   4.849   5.664
11790TIP3   OH235312   5.607   4.350   0.057
11790TIP3    H135313   5.634   4.360  -0.034
11790TIP3    H235314   5.555   4.428   0.075
11791TIP3   OH235315   5.039   1.533   6.726
11791TIP3    H135316   5.118   1.551   6.776
11791TIP3    H235317   4.994   1.465   6.776
11792TIP3   OH235318   3.738   5.708   3.451
11792TIP3    H135319   3.714   5.774   3.516
11792TIP3    H235320   3.692   5.734   3.372
11793TIP3   OH235321   5.026   0.413   6.222
11793TIP3    H135322   5.024   0.321   6.249
11793TIP3    H235323   5.117   0.429   6.198
11794TIP3   OH235324   4.434   1.406   2.350
11794TIP3    H135325   4.490   1.457   2.291
11794TIP3    H235326   4.362   1.466   2.373
11795TIP3   OH235327   6.395   4.858   0.285
11795TIP3    H135328   6.391   4.940   0.236
11795TIP3    H235329   6.380   4.883   0.376
11796TIP3   OH235330   4.280   2.161   6.427
11796TIP3    H135331   4.240   2.188   6.344
11796TIP3    H235332   4.374   2.163   6.410
11797TIP3   OH235333   6.086   7.652   1.885
11797TIP3    H135334   6.108   7.571   1.930
11797TIP3    H235335   5.990   7.651   1.879
11798TIP3   OH235336   1.149   5.344   5.288
11798TIP3    H135337   1.139   5.432   5.324
11798TIP3    H235338   1.072   5.331   5.233
11799TIP3   OH235339   8.165   4.726   4.974
11799TIP3    H135340   8.233   4.692   4.915
11799TIP3    H235341   8.207   4.797   5.021
11800TIP3   OH235342   2.013   4.416   3.428
11800TIP3    H135343   1.973   4.333   3.454
11800TIP3    H235344   1.939   4.471   3.403
11801TIP3   OH235345   3.918   3.927   5.999
11801TIP3    H135346   4.006   3.896   6.023
11801TIP3    H235347   3.919   4.020   6.021
11802TIP3   OH235348   6.463   0.745   2.493
11802TIP3    H135349   6.442   0.673   2.432
11802TIP3    H235350   6.481   0.701   2.576
11803TIP3   OH235351   5.645   2.943   5.582
11803TIP3    H135352   5.583   2.889   5.632
11803TIP3    H235353   5.674   3.010   5.644
11804TIP3   OH235354   1.174   2.464   2.543
11804TIP3    H135355   1.193   2.480   2.451
11804TIP3    H235356   1.112   2.533   2.567
11805TIP3   OH235357   6.443   3.819   1.458
11805TIP3    H135358   6.395   3.764   1.519
11805TIP3    H235359   6.423   3.783   1.372
11806TIP3   OH235360   8.290   5.909   0.524
11806TIP3    H135361   8.353   5.838   0.510
11806TIP3    H235362   8.206   5.871   0.500
11807TIP3   OH235363   6.143   0.777   6.073
11807TIP3    H135364   6.140   0.733   6.158
11807TIP3    H235365   6.198   0.721   6.018
11808TIP3   OH235366   3.602   0.834   5.115
11808TIP3    H135367   3.527   0.888   5.141
11808TIP3    H235368   3.574   0.792   5.034
11809TIP3   OH235369   4.060   1.744   1.424
11809TIP3    H135370   4.071   1.709   1.336
11809TIP3    H235371   3.980   1.797   1.419
11810TIP3   OH235372   3.521   6.627   4.114
11810TIP3    H135373   3.557   6.540   4.133
11810TIP3    H235374   3.536   6.638   4.020
11811TIP3   OH235375   7.798   5.808   3.571
11811TIP3    H135376   7.772   5.726   3.613
11811TIP3    H235377   7.719   5.835   3.523
11812TIP3   OH235378   3.303   7.488   4.177
11812TIP3    H135379   3.287   7.536   4.095
11812TIP3    H235380   3.378   7.533   4.217
11813TIP3   OH235381   4.058   4.743   3.117
11813TIP3    H135382   4.107   4.825   3.109
11813TIP3    H235383   4.074   4.698   3.035
11814TIP3   OH235384   2.331   7.219   1.302
11814TIP3    H135385   2.410   7.168   1.317
11814TIP3    H235386   2.270   7.189   1.369
11815TIP3   OH235387   1.791   4.329   1.839
11815TIP3    H135388   1.836   4.294   1.916
11815TIP3    H235389   1.825   4.277   1.766
11816TIP3   OH235390   4.904   3.094   4.268
11816TIP3    H135391   4.951   3.115   4.186
11816TIP3    H235392   4.960   3.029   4.311
11817TIP3   OH235393   3.097   4.376   4.584
11817TIP3    H135394   3.093   4.282   4.605
11817TIP3    H235395   3.055   4.419   4.658
11818TIP3   OH235396   1.347   2.403   3.324
11818TIP3    H135397   1.301   2.332   3.369
11818TIP3    H235398   1.351   2.375   3.232
11819TIP3   OH235399   4.415   4.465   6.481
11819TIP3    H135400   4.401   4.464   6.576
11819TIP3    H235401   4.330   4.442   6.444
11820TIP3   OH235402   2.868   1.142   2.340
11820TIP3    H135403   2.835   1.229   2.319
11820TIP3    H235404   2.821   1.117   2.420
11821TIP3   OH235405   6.130   3.773   4.189
11821TIP3    H135406   6.200   3.838   4.181
11821TIP3    H235407   6.050   3.825   4.195
11822TIP3   OH235408   0.901   1.116   5.594
11822TIP3    H135409   0.874   1.024   5.604
11822TIP3    H235410   0.972   1.126   5.657
11823TIP3   OH235411   5.976   1.234   2.758
11823TIP3    H135412   6.062   1.210   2.725
11823TIP3    H235413   5.921   1.242   2.680
11824TIP3   OH235414   4.301   6.243   4.625
11824TIP3    H135415   4.374   6.233   4.685
11824TIP3    H235416   4.293   6.338   4.613
11825TIP3   OH235417   8.019   4.419   4.786
11825TIP3    H135418   7.968   4.341   4.764
11825TIP3    H235419   7.969   4.461   4.856
11826TIP3   OH235420   3.239   7.575   1.458
11826TIP3    H135421   3.331   7.602   1.454
11826TIP3    H235422   3.223   7.536   1.372
11827TIP3   OH235423   6.823   0.973   5.524
11827TIP3    H135424   6.852   1.055   5.484
11827TIP3    H235425   6.794   0.998   5.612
11828TIP3   OH235426   6.678   2.745   0.213
11828TIP3    H135427   6.716   2.828   0.184
11828TIP3    H235428   6.737   2.713   0.281
11829TIP3   OH235429   1.435   6.617   5.824
11829TIP3    H135430   1.444   6.643   5.916
11829TIP3    H235431   1.349   6.651   5.798
11830TIP3   OH235432   5.621   4.309   1.057
11830TIP3    H135433   5.540   4.318   1.006
11830TIP3    H235434   5.651   4.398   1.071
11831TIP3   OH235435   7.157   4.868   3.690
11831TIP3    H135436   7.091   4.919   3.737
11831TIP3    H235437   7.156   4.782   3.731
11832TIP3   OH235438   4.814   7.589   0.040
11832TIP3    H135439   4.771   7.613   0.122
11832TIP3    H235440   4.747   7.602  -0.027
11833TIP3   OH235441   6.304   6.412   0.025
11833TIP3    H135442   6.293   6.507   0.021
11833TIP3    H235443   6.397   6.398   0.008
11834TIP3   OH235444   3.424   2.990   2.787
11834TIP3    H135445   3.411   3.037   2.704
11834TIP3    H235446   3.445   3.059   2.850
11835TIP3   OH235447   1.454   3.362   3.752
11835TIP3    H135448   1.387   3.392   3.815
11835TIP3    H235449   1.514   3.310   3.805
11836TIP3   OH235450   1.732   7.592   2.026
11836TIP3    H135451   1.721   7.531   2.099
11836TIP3    H235452   1.798   7.551   1.970
11837TIP3   OH235453   0.276   1.988   2.156
11837TIP3    H135454   0.291   2.022   2.068
11837TIP3    H235455   0.185   1.956   2.154
11838TIP3   OH235456   6.187   6.405   0.613
11838TIP3    H135457   6.217   6.403   0.704
11838TIP3    H235458   6.157   6.316   0.595
11839TIP3   OH235459   0.748   0.582   5.737
11839TIP3    H135460   0.720   0.665   5.776
11839TIP3    H235461   0.678   0.559   5.675
11840TIP3   OH235462   2.794   1.820   3.206
11840TIP3    H135463   2.843   1.742   3.180
11840TIP3    H235464   2.737   1.838   3.132
11841TIP3   OH235465   4.082   2.803   0.500
11841TIP3    H135466   4.142   2.775   0.569
11841TIP3    H235467   4.022   2.729   0.489
11842TIP3   OH235468   6.259   1.230   2.615
11842TIP3    H135469   6.247   1.285   2.537
11842TIP3    H235470   6.281   1.144   2.581
11843TIP3   OH235471   6.769   3.357   4.304
11843TIP3    H135472   6.768   3.440   4.256
11843TIP3    H235473   6.763   3.290   4.237
11844TIP3   OH235474   3.302   1.541   4.394
11844TIP3    H135475   3.341   1.491   4.466
11844TIP3    H235476   3.370   1.602   4.367
11845TIP3   OH235477   4.785   6.637   4.755
11845TIP3    H135478   4.871   6.605   4.728
11845TIP3    H235479   4.773   6.717   4.704
11846TIP3   OH235480   8.117   6.749   0.295
11846TIP3    H135481   8.168   6.830   0.296
11846TIP3    H235482   8.108   6.726   0.387
11847TIP3   OH235483   7.318   7.338   2.779
11847TIP3    H135484   7.246   7.313   2.721
11847TIP3    H235485   7.371   7.258   2.787
11848TIP3   OH235486   6.630   3.811   2.258
11848TIP3    H135487   6.719   3.782   2.276
11848TIP3    H235488   6.617   3.793   2.165
11849TIP3   OH235489   6.096   4.589   1.831
11849TIP3    H135490   6.041   4.629   1.764
11849TIP3    H235491   6.164   4.653   1.849
11850TIP3   OH235492   7.473   0.363   4.262
11850TIP3    H135493   7.470   0.392   4.171
11850TIP3    H235494   7.565   0.340   4.276
11851TIP3   OH235495   6.568   1.229   1.068
11851TIP3    H135496   6.537   1.269   0.987
11851TIP3    H235497   6.572   1.135   1.049
11852TIP3   OH235498   3.378   0.639   3.164
11852TIP3    H135499   3.319   0.616   3.236
11852TIP3    H235500   3.462   0.658   3.206
11853TIP3   OH235501   2.012   2.756   4.574
11853TIP3    H135502   2.065   2.821   4.620
11853TIP3    H235503   2.076   2.701   4.529
11854TIP3   OH235504   0.035   2.956   3.849
11854TIP3    H135505   0.082   2.997   3.776
11854TIP3    H235506   0.015   2.867   3.818
11855TIP3   OH235507   5.699   5.466   1.081
11855TIP3    H135508   5.725   5.498   1.167
11855TIP3    H235509   5.665   5.378   1.098
11856TIP3   OH235510   5.726   4.370   0.660
11856TIP3    H135511   5.755   4.417   0.582
11856TIP3    H235512   5.807   4.337   0.700
11857TIP3   OH235513   2.362   1.344   4.916
11857TIP3    H135514   2.372   1.384   5.003
11857TIP3    H235515   2.298   1.274   4.929
11858TIP3   OH235516   2.218   3.929   3.175
11858TIP3    H135517   2.255   3.925   3.263
11858TIP3    H235518   2.248   3.849   3.132
11859TIP3   OH235519   3.279   1.388   0.745
11859TIP3    H135520   3.304   1.296   0.731
11859TIP3    H235521   3.332   1.437   0.682
11860TIP3   OH235522   4.700   1.142   0.663
11860TIP3    H135523   4.726   1.096   0.743
11860TIP3    H235524   4.661   1.224   0.693
11861TIP3   OH235525   1.952   7.235   2.024
11861TIP3    H135526   1.890   7.225   2.096
11861TIP3    H235527   1.999   7.316   2.043
11862TIP3   OH235528   4.426   6.417   3.800
11862TIP3    H135529   4.364   6.464   3.855
11862TIP3    H235530   4.507   6.414   3.851
11863TIP3   OH235531   7.151   6.281   5.436
11863TIP3    H135532   7.198   6.313   5.358
11863TIP3    H235533   7.213   6.293   5.507
11864TIP3   OH235534   1.797   6.310   5.218
11864TIP3    H135535   1.842   6.378   5.168
11864TIP3    H235536   1.781   6.349   5.304
11865TIP3   OH235537   7.739   6.381   1.611
11865TIP3    H135538   7.752   6.312   1.675
11865TIP3    H235539   7.810   6.443   1.628
11866TIP3   OH235540   1.382   3.073   4.172
11866TIP3    H135541   1.365   3.167   4.175
11866TIP3    H235542   1.478   3.067   4.175
11867TIP3   OH235543   6.536   4.008   3.589
11867TIP3    H135544   6.453   3.964   3.575
11867TIP3    H235545   6.532   4.086   3.534
11868TIP3   OH235546   2.835   2.655   0.135
11868TIP3    H135547   2.811   2.590   0.201
11868TIP3    H235548   2.927   2.674   0.152
11869TIP3   OH235549   4.843   6.790   0.422
11869TIP3    H135550   4.855   6.877   0.462
11869TIP3    H235551   4.754   6.791   0.388
11870TIP3   OH235552   4.984   6.005   3.631
11870TIP3    H135553   5.052   5.956   3.678
11870TIP3    H235554   4.972   6.085   3.683
11871TIP3   OH235555   2.884   7.527   1.312
11871TIP3    H135556   2.826   7.600   1.292
11871TIP3    H235557   2.855   7.456   1.254
11872TIP3   OH235558   2.473   5.991   4.176
11872TIP3    H135559   2.436   5.914   4.218
11872TIP3    H235560   2.404   6.022   4.118
11873TIP3   OH235561   4.598   5.274   2.813
11873TIP3    H135562   4.513   5.230   2.808
11873TIP3    H235563   4.577   5.367   2.820
11874TIP3   OH235564   4.840   4.182   3.912
11874TIP3    H135565   4.933   4.173   3.934
11874TIP3    H235566   4.815   4.267   3.947
11875TIP3   OH235567   5.248   0.824   3.469
11875TIP3    H135568   5.281   0.908   3.436
11875TIP3    H235569   5.198   0.847   3.547
11876TIP3   OH235570   1.918   6.425   0.855
11876TIP3    H135571   1.947   6.485   0.924
11876TIP3    H235572   1.845   6.470   0.813
11877TIP3   OH235573   4.425   4.820   0.825
11877TIP3    H135574   4.350   4.787   0.776
11877TIP3    H235575   4.501   4.780   0.782
11878TIP3   OH235576   5.348   6.591   3.263
11878TIP3    H135577   5.403   6.669   3.263
11878TIP3    H235578   5.409   6.519   3.279
11879TIP3   OH235579   0.372   3.425   5.393
11879TIP3    H135580   0.308   3.363   5.428
11879TIP3    H235581   0.329   3.463   5.316
11880TIP3   OH235582   3.570   5.975   3.854
11880TIP3    H135583   3.569   5.947   3.946
11880TIP3    H235584   3.510   6.050   3.851
11881TIP3   OH235585   7.842   1.376   6.722
11881TIP3    H135586   7.866   1.343   6.635
11881TIP3    H235587   7.809   1.464   6.706
11882TIP3   OH235588   0.536   1.200   5.482
11882TIP3    H135589   0.490   1.277   5.451
11882TIP3    H235590   0.509   1.130   5.422
11883TIP3   OH235591   6.513   0.642   6.119
11883TIP3    H135592   6.542   0.733   6.117
11883TIP3    H235593   6.471   0.628   6.034
11884TIP3   OH235594   2.145   3.430   3.473
11884TIP3    H135595   2.114   3.341   3.454
11884TIP3    H235596   2.102   3.485   3.408
11885TIP3   OH235597   3.890   2.529   4.391
11885TIP3    H135598   3.825   2.468   4.358
11885TIP3    H235599   3.941   2.477   4.454
11886TIP3   OH235600   2.315   7.232   6.009
11886TIP3    H135601   2.308   7.326   6.025
11886TIP3    H235602   2.400   7.208   6.047
11887TIP3   OH235603   8.069   3.130   3.126
11887TIP3    H135604   8.143   3.096   3.177
11887TIP3    H235605   7.998   3.068   3.142
11888TIP3   OH235606   1.802   2.397   2.037
11888TIP3    H135607   1.890   2.404   2.073
11888TIP3    H235608   1.816   2.377   1.944
11889TIP3   OH235609   5.312   6.200   1.186
11889TIP3    H135610   5.268   6.239   1.261
11889TIP3    H235611   5.240   6.171   1.129
11890TIP3   OH235612   2.984   5.986   1.339
11890TIP3    H135613   2.942   5.906   1.308
11890TIP3    H235614   3.077   5.973   1.320
11891TIP3   OH235615   4.688   6.766   2.806
11891TIP3    H135616   4.740   6.736   2.881
11891TIP3    H235617   4.662   6.855   2.830
11892TIP3   OH235618   7.753   5.541   4.039
11892TIP3    H135619   7.769   5.529   3.945
11892TIP3    H235620   7.675   5.597   4.042
11893TIP3   OH235621   5.005   2.883   4.437
11893TIP3    H135622   4.998   2.881   4.532
11893TIP3    H235623   5.044   2.799   4.414
11894TIP3   OH235624   6.272   0.802   3.925
11894TIP3    H135625   6.221   0.742   3.978
11894TIP3    H235626   6.233   0.888   3.942
11895TIP3   OH235627   4.559   0.907   5.008
11895TIP3    H135628   4.464   0.895   4.995
11895TIP3    H235629   4.575   0.998   4.983
11896TIP3   OH235630   1.502   1.264   2.930
11896TIP3    H135631   1.580   1.210   2.946
11896TIP3    H235632   1.537   1.344   2.890
11897TIP3   OH235633   7.313   4.695   4.443
11897TIP3    H135634   7.341   4.665   4.356
11897TIP3    H235635   7.220   4.674   4.447
11898TIP3   OH235636   1.576   5.718   3.314
11898TIP3    H135637   1.664   5.726   3.351
11898TIP3    H235638   1.564   5.798   3.262
11899TIP3   OH235639   8.231   0.195   4.556
11899TIP3    H135640   8.280   0.276   4.573
11899TIP3    H235641   8.143   0.225   4.531
11900TIP3   OH235642   3.068   0.370   0.424
11900TIP3    H135643   3.043   0.459   0.399
11900TIP3    H235644   2.999   0.342   0.484
11901TIP3   OH235645   7.665   4.533   5.261
11901TIP3    H135646   7.606   4.576   5.323
11901TIP3    H235647   7.749   4.576   5.274
11902TIP3   OH235648   0.133   2.136   5.030
11902TIP3    H135649   0.180   2.063   5.072
11902TIP3    H235650   0.118   2.199   5.100
11903TIP3   OH235651   8.208   2.546   5.079
11903TIP3    H135652   8.157   2.593   5.145
11903TIP3    H235653   8.159   2.558   4.998
11904TIP3   OH235654   2.951   7.200   4.286
11904TIP3    H135655   2.951   7.116   4.242
11904TIP3    H235656   3.044   7.223   4.295
11905TIP3   OH235657   4.200   5.856   5.469
11905TIP3    H135658   4.223   5.863   5.562
11905TIP3    H235659   4.250   5.925   5.426
11906TIP3   OH235660   0.049   2.949   2.272
11906TIP3    H135661  -0.008   2.910   2.337
11906TIP3    H235662   0.023   2.909   2.189
11907TIP3   OH235663   0.821   0.704   2.870
11907TIP3    H135664   0.844   0.791   2.901
11907TIP3    H235665   0.846   0.646   2.942
11908TIP3   OH235666   0.210   2.779   0.420
11908TIP3    H135667   0.176   2.711   0.362
11908TIP3    H235668   0.284   2.816   0.372
11909TIP3   OH235669   0.881   6.495   3.285
11909TIP3    H135670   0.864   6.428   3.352
11909TIP3    H235671   0.809   6.487   3.223
11910TIP3   OH235672   6.067   2.002   6.238
11910TIP3    H135673   5.998   1.997   6.304
11910TIP3    H235674   6.143   2.037   6.285
11911TIP3   OH235675   2.696   5.654   5.637
11911TIP3    H135676   2.762   5.684   5.574
11911TIP3    H235677   2.696   5.721   5.705
11912TIP3   OH235678   4.183   6.609   3.909
11912TIP3    H135679   4.133   6.631   3.988
11912TIP3    H235680   4.117   6.594   3.842
11913TIP3   OH235681   7.135   5.305   1.094
11913TIP3    H135682   7.132   5.369   1.022
11913TIP3    H235683   7.043   5.291   1.117
11914TIP3   OH235684   4.471   1.680   2.935
11914TIP3    H135685   4.436   1.699   2.848
11914TIP3    H235686   4.456   1.761   2.985
11915TIP3   OH235687   2.280   1.083   4.986
11915TIP3    H135688   2.209   1.092   5.050
11915TIP3    H235689   2.284   0.989   4.968
11916TIP3   OH235690   2.757   5.641   3.334
11916TIP3    H135691   2.820   5.709   3.356
11916TIP3    H235692   2.790   5.603   3.253
11917TIP3   OH235693   5.856   6.928   6.068
11917TIP3    H135694   5.766   6.924   6.099
11917TIP3    H235695   5.866   7.017   6.033
11918TIP3   OH235696   2.922   2.159   4.686
11918TIP3    H135697   2.840   2.184   4.729
11918TIP3    H235698   2.934   2.067   4.709
11919TIP3   OH235699   1.875   4.754   1.996
11919TIP3    H135700   1.790   4.709   1.989
11919TIP3    H235701   1.908   4.758   1.906
11920TIP3   OH235702   3.411   5.104   0.225
11920TIP3    H135703   3.446   5.047   0.293
11920TIP3    H235704   3.465   5.183   0.231
11921TIP3   OH235705   1.168   5.679   5.582
11921TIP3    H135706   1.086   5.675   5.533
11921TIP3    H235707   1.212   5.596   5.563
11922TIP3   OH235708   5.715   2.238   0.354
11922TIP3    H135709   5.706   2.165   0.415
11922TIP3    H235710   5.663   2.212   0.278
11923TIP3   OH235711   8.148   2.731   4.167
11923TIP3    H135712   8.153   2.819   4.130
11923TIP3    H235713   8.225   2.686   4.132
11924TIP3   OH235714   8.001   4.800   1.953
11924TIP3    H135715   8.086   4.813   1.994
11924TIP3    H235716   7.962   4.727   2.001
11925TIP3   OH235717   0.692   3.631   0.009
11925TIP3    H135718   0.617   3.665   0.058
11925TIP3    H235719   0.653   3.582  -0.063
11926TIP3   OH235720   0.807   1.246   2.478
11926TIP3    H135721   0.782   1.191   2.552
11926TIP3    H235722   0.800   1.336   2.512
11927TIP3   OH235723   2.865   2.344   6.300
11927TIP3    H135724   2.954   2.326   6.270
11927TIP3    H235725   2.873   2.427   6.348
11928TIP3   OH235726   3.395   5.667   0.030
11928TIP3    H135727   3.427   5.709   0.110
11928TIP3    H235728   3.358   5.584   0.059
11929TIP3   OH235729   2.329   6.361   5.004
11929TIP3    H135730   2.337   6.438   5.060
11929TIP3    H235731   2.242   6.369   4.965
11930TIP3   OH235732   5.973   0.429   1.868
11930TIP3    H135733   5.921   0.485   1.810
11930TIP3    H235734   5.973   0.344   1.825
11931TIP3   OH235735   2.581   6.312   2.828
11931TIP3    H135736   2.641   6.319   2.903
11931TIP3    H235737   2.500   6.279   2.865
11932TIP3   OH235738   0.795   4.067   6.308
11932TIP3    H135739   0.767   4.157   6.295
11932TIP3    H235740   0.828   4.065   6.398
11933TIP3   OH235741   1.390   5.633   4.754
11933TIP3    H135742   1.405   5.560   4.695
11933TIP3    H235743   1.395   5.711   4.699
11934TIP3   OH235744   5.465   6.180   2.403
11934TIP3    H135745   5.521   6.197   2.326
11934TIP3    H235746   5.419   6.263   2.417
11935TIP3   OH235747   0.351   2.030   1.518
11935TIP3    H135748   0.311   2.053   1.602
11935TIP3    H235749   0.354   1.934   1.518
11936TIP3   OH235750   7.553   4.220   2.934
11936TIP3    H135751   7.505   4.265   2.864
11936TIP3    H235752   7.486   4.167   2.978
11937TIP3   OH235753   4.092   0.420   1.765
11937TIP3    H135754   3.997   0.419   1.774
11937TIP3    H235755   4.124   0.366   1.837
11938TIP3   OH235756   1.896   0.657   5.345
11938TIP3    H135757   1.812   0.610   5.348
11938TIP3    H235758   1.912   0.669   5.251
11939TIP3   OH235759   1.999   5.495   3.272
11939TIP3    H135760   2.020   5.510   3.179
11939TIP3    H235761   2.080   5.463   3.310
11940TIP3   OH235762   0.321   1.284   0.497
11940TIP3    H135763   0.414   1.301   0.490
11940TIP3    H235764   0.302   1.290   0.591
11941TIP3   OH235765   1.983   6.762   4.958
11941TIP3    H135766   2.035   6.843   4.960
11941TIP3    H235767   2.041   6.696   4.995
11942TIP3   OH235768   5.413   6.843   2.019
11942TIP3    H135769   5.405   6.789   1.940
11942TIP3    H235770   5.403   6.781   2.091
11943TIP3   OH235771   6.665   4.068   1.903
11943TIP3    H135772   6.727   4.092   1.972
11943TIP3    H235773   6.699   3.987   1.867
11944TIP3   OH235774   0.357   6.246   1.206
11944TIP3    H135775   0.308   6.325   1.229
11944TIP3    H235776   0.443   6.259   1.246
11945TIP3   OH235777   2.885   7.511   6.734
11945TIP3    H135778   2.899   7.524   6.828
11945TIP3    H235779   2.813   7.570   6.711
11946TIP3   OH235780   5.507   4.088   1.222
11946TIP3    H135781   5.435   4.085   1.160
11946TIP3    H235782   5.562   4.160   1.192
11947TIP3   OH235783   1.017   0.158   5.081
11947TIP3    H135784   1.107   0.189   5.074
11947TIP3    H235785   0.991   0.137   4.991
11948TIP3   OH235786   2.793   5.669   0.903
11948TIP3    H135787   2.701   5.695   0.901
11948TIP3    H235788   2.838   5.745   0.940
11949TIP3   OH235789   6.035   3.802   2.883
11949TIP3    H135790   5.965   3.836   2.827
11949TIP3    H235791   6.013   3.833   2.971
11950TIP3   OH235792   3.877   0.236   5.993
11950TIP3    H135793   3.935   0.311   5.978
11950TIP3    H235794   3.912   0.166   5.939
11951TIP3   OH235795   7.750   4.280   2.091
11951TIP3    H135796   7.755   4.311   2.181
11951TIP3    H235797   7.840   4.255   2.069
11952TIP3   OH235798   3.363   0.756   0.395
11952TIP3    H135799   3.344   0.684   0.455
11952TIP3    H235800   3.412   0.819   0.447
11953TIP3   OH235801   5.269   4.605   4.790
11953TIP3    H135802   5.341   4.623   4.850
11953TIP3    H235803   5.242   4.516   4.811
11954TIP3   OH235804   2.866   0.248   5.824
11954TIP3    H135805   2.962   0.240   5.822
11954TIP3    H235806   2.850   0.342   5.819
11955TIP3   OH235807   7.781   5.377   0.620
11955TIP3    H135808   7.762   5.471   0.616
11955TIP3    H235809   7.792   5.359   0.714
11956TIP3   OH235810   1.223   0.427   6.189
11956TIP3    H135811   1.137   0.408   6.226
11956TIP3    H235812   1.204   0.479   6.111
11957TIP3   OH235813   4.534   1.680   4.332
11957TIP3    H135814   4.556   1.621   4.404
11957TIP3    H235815   4.472   1.631   4.278
11958TIP3   OH235816   1.117   7.703   3.813
11958TIP3    H135817   1.185   7.705   3.746
11958TIP3    H235818   1.135   7.778   3.869
11959TIP3   OH235819   6.970   3.738   6.082
11959TIP3    H135820   7.023   3.684   6.140
11959TIP3    H235821   6.887   3.749   6.128
11960TIP3   OH235822   2.971   4.652   3.755
11960TIP3    H135823   2.935   4.730   3.798
11960TIP3    H235824   2.898   4.615   3.707
11961TIP3   OH235825   4.468   3.679   6.454
11961TIP3    H135826   4.492   3.707   6.366
11961TIP3    H235827   4.524   3.603   6.471
11962TIP3   OH235828   6.891   1.927   3.872
11962TIP3    H135829   6.936   1.991   3.817
11962TIP3    H235830   6.938   1.845   3.856
11963TIP3   OH235831   1.401   5.808   6.188
11963TIP3    H135832   1.484   5.807   6.139
11963TIP3    H235833   1.337   5.771   6.127
11964TIP3   OH235834   6.371   3.637   0.224
11964TIP3    H135835   6.309   3.638   0.150
11964TIP3    H235836   6.328   3.582   0.290
11965TIP3   OH235837   6.886   6.813   2.376
11965TIP3    H135838   6.878   6.727   2.417
11965TIP3    H235839   6.797   6.833   2.347
11966TIP3   OH235840   2.409   5.670   6.699
11966TIP3    H135841   2.389   5.754   6.658
11966TIP3    H235842   2.494   5.684   6.742
11967TIP3   OH235843   3.128   6.043   5.468
11967TIP3    H135844   3.081   5.969   5.430
11967TIP3    H235845   3.075   6.068   5.544
11968TIP3   OH235846   2.483   0.750   3.799
11968TIP3    H135847   2.516   0.685   3.861
11968TIP3    H235848   2.398   0.715   3.772
11969TIP3   OH235849   3.435   6.511   6.701
11969TIP3    H135850   3.419   6.605   6.688
11969TIP3    H235851   3.511   6.493   6.646
11970TIP3   OH235852   7.028   5.532   4.412
11970TIP3    H135853   7.042   5.488   4.496
11970TIP3    H235854   6.939   5.567   4.418
11971TIP3   OH235855   5.450   6.479   1.408
11971TIP3    H135856   5.385   6.549   1.402
11971TIP3    H235857   5.427   6.431   1.488
11972TIP3   OH235858   3.543   2.836   6.191
11972TIP3    H135859   3.613   2.899   6.172
11972TIP3    H235860   3.552   2.818   6.285
11973TIP3   OH235861   2.898   6.934   5.148
11973TIP3    H135862   2.861   7.017   5.178
11973TIP3    H235863   2.860   6.921   5.061
11974TIP3   OH235864   6.034   7.067   5.879
11974TIP3    H135865   6.099   7.066   5.809
11974TIP3    H235866   5.950   7.068   5.835
11975TIP3   OH235867   2.418   0.461   0.432
11975TIP3    H135868   2.458   0.538   0.473
11975TIP3    H235869   2.484   0.429   0.371
11976TIP3   OH235870   2.664   4.322   3.415
11976TIP3    H135871   2.620   4.239   3.434
11976TIP3    H235872   2.605   4.365   3.352
11977TIP3   OH235873   2.199   6.374   6.279
11977TIP3    H135874   2.163   6.463   6.283
11977TIP3    H235875   2.290   6.386   6.251
11978TIP3   OH235876   8.117   3.749   3.726
11978TIP3    H135877   8.047   3.686   3.711
11978TIP3    H235878   8.118   3.804   3.647
11979TIP3   OH235879   1.513   1.239   2.089
11979TIP3    H135880   1.435   1.203   2.046
11979TIP3    H235881   1.485   1.322   2.125
11980TIP3   OH235882   6.715   3.983   6.352
11980TIP3    H135883   6.661   3.932   6.291
11980TIP3    H235884   6.766   4.041   6.295
11981TIP3   OH235885   1.715   5.828   5.509
11981TIP3    H135886   1.808   5.849   5.521
11981TIP3    H235887   1.671   5.913   5.503
11982TIP3   OH235888   5.340   4.693   0.851
11982TIP3    H135889   5.372   4.622   0.906
11982TIP3    H235890   5.352   4.661   0.762
11983TIP3   OH235891   1.831   7.333   5.044
11983TIP3    H135892   1.775   7.271   5.092
11983TIP3    H235893   1.799   7.328   4.954
11984TIP3   OH235894   5.876   2.192   2.042
11984TIP3    H135895   5.908   2.266   1.990
11984TIP3    H235896   5.792   2.170   2.001
11985TIP3   OH235897   3.454   5.748   2.126
11985TIP3    H135898   3.403   5.826   2.147
11985TIP3    H235899   3.395   5.675   2.145
11986TIP3   OH235900   1.257   2.907   5.321
11986TIP3    H135901   1.209   2.859   5.388
11986TIP3    H235902   1.249   2.999   5.346
11987TIP3   OH235903   6.308   3.616   0.819
11987TIP3    H135904   6.303   3.544   0.882
11987TIP3    H235905   6.309   3.695   0.872
11988TIP3   OH235906   1.119   0.849   6.220
11988TIP3    H135907   1.204   0.820   6.187
11988TIP3    H235908   1.056   0.796   6.171
11989TIP3   OH235909   0.129   0.896   4.917
11989TIP3    H135910   0.163   0.937   4.997
11989TIP3    H235911   0.064   0.958   4.884
11990TIP3   OH235912   7.050   1.350   0.774
11990TIP3    H135913   7.020   1.436   0.803
11990TIP3    H235914   7.046   1.354   0.678
11991TIP3   OH235915   2.998   3.568   2.939
11991TIP3    H135916   3.073   3.509   2.933
11991TIP3    H235917   3.033   3.646   2.981
11992TIP3   OH235918   4.717   2.544   3.508
11992TIP3    H135919   4.716   2.459   3.552
11992TIP3    H235920   4.642   2.541   3.449
11993TIP3   OH235921   8.171   3.863   0.079
11993TIP3    H135922   8.195   3.839  -0.011
11993TIP3    H235923   8.086   3.821   0.093
11994TIP3   OH235924   7.353   2.389   0.844
11994TIP3    H135925   7.331   2.477   0.875
11994TIP3    H235926   7.439   2.371   0.883
11995TIP3   OH235927   5.123   0.882   3.710
11995TIP3    H135928   5.121   0.974   3.734
11995TIP3    H235929   5.100   0.836   3.791
11996TIP3   OH235930   7.079   4.031   6.113
11996TIP3    H135931   7.088   3.956   6.055
11996TIP3    H235932   7.130   4.100   6.071
11997TIP3   OH235933   5.650   5.630   6.078
11997TIP3    H135934   5.559   5.660   6.079
11997TIP3    H235935   5.662   5.591   5.992
11998TIP3   OH235936   2.931   5.237   5.526
11998TIP3    H135937   2.855   5.224   5.582
11998TIP3    H235938   2.993   5.286   5.580
11999TIP3   OH235939   5.357   6.130   4.033
11999TIP3    H135940   5.424   6.179   4.080
11999TIP3    H235941   5.326   6.065   4.097
12000TIP3   OH235942   5.544   0.725   4.466
12000TIP3    H135943   5.456   0.709   4.502
12000TIP3    H235944   5.584   0.786   4.528
12001TIP3   OH235945   0.221   5.566   3.511
12001TIP3    H135946   0.172   5.648   3.521
12001TIP3    H235947   0.154   5.499   3.498
12002TIP3   OH235948   1.897   7.546   5.471
12002TIP3    H135949   1.902   7.493   5.551
12002TIP3    H235950   1.841   7.495   5.412
12003TIP3   OH235951   8.059   7.127   1.881
12003TIP3    H135952   8.145   7.152   1.915
12003TIP3    H235953   8.007   7.106   1.959
12004TIP3   OH235954   2.499   5.244   0.366
12004TIP3    H135955   2.584   5.237   0.409
12004TIP3    H235956   2.463   5.327   0.396
12005TIP3   OH235957   2.211   4.661   5.939
12005TIP3    H135958   2.261   4.711   6.003
12005TIP3    H235959   2.272   4.647   5.866
12006TIP3   OH235960   0.433   5.586   3.012
12006TIP3    H135961   0.381   5.506   3.004
12006TIP3    H235962   0.379   5.644   3.066
12007TIP3   OH235963   6.531   6.906   6.412
12007TIP3    H135964   6.464   6.843   6.386
12007TIP3    H235965   6.591   6.910   6.337
12008TIP3   OH235966   6.393   3.732   4.612
12008TIP3    H135967   6.365   3.711   4.701
12008TIP3    H235968   6.360   3.660   4.558
12009TIP3   OH235969   5.845   2.158   4.452
12009TIP3    H135970   5.850   2.245   4.412
12009TIP3    H235971   5.937   2.131   4.461
12010TIP3   OH235972   3.447   2.121   0.726
12010TIP3    H135973   3.541   2.135   0.714
12010TIP3    H235974   3.406   2.172   0.656
12011TIP3   OH235975   4.836   4.018   2.993
12011TIP3    H135976   4.766   4.019   2.928
12011TIP3    H235977   4.860   4.110   3.003
12012TIP3   OH235978   0.972   7.131   5.143
12012TIP3    H135979   0.961   7.036   5.140
12012TIP3    H235980   0.883   7.166   5.140
12013TIP3   OH235981   1.595   4.605   5.784
12013TIP3    H135982   1.673   4.561   5.817
12013TIP3    H235983   1.586   4.573   5.694
12014TIP3   OH235984   2.230   0.806   0.612
12014TIP3    H135985   2.225   0.788   0.706
12014TIP3    H235986   2.294   0.743   0.579
12015TIP3   OH235987   2.572   2.185   3.859
12015TIP3    H135988   2.591   2.256   3.921
12015TIP3    H235989   2.643   2.190   3.795
12016TIP3   OH235990   2.105   5.154   1.145
12016TIP3    H135991   2.065   5.201   1.072
12016TIP3    H235992   2.153   5.082   1.103
12017TIP3   OH235993   2.949   3.755   4.471
12017TIP3    H135994   3.010   3.760   4.398
12017TIP3    H235995   2.889   3.684   4.448
12018TIP3   OH235996   3.909   7.463   3.747
12018TIP3    H135997   3.984   7.499   3.796
12018TIP3    H235998   3.946   7.392   3.695
12019TIP3   OH235999   7.692   6.195   4.890
12019TIP3    H136000   7.735   6.114   4.916
12019TIP3    H236001   7.657   6.176   4.803
12020TIP3   OH236002   4.398   5.656   4.809
12020TIP3    H136003   4.310   5.620   4.797
12020TIP3    H236004   4.451   5.580   4.836
12021TIP3   OH236005   5.012   0.851   6.108
12021TIP3    H136006   4.968   0.772   6.076
12021TIP3    H236007   5.048   0.826   6.193
12022TIP3   OH236008   5.761   5.120   0.618
12022TIP3    H136009   5.854   5.137   0.607
12022TIP3    H236010   5.757   5.036   0.663
12023TIP3   OH236011   1.393   6.257   0.658
12023TIP3    H136012   1.377   6.338   0.609
12023TIP3    H236013   1.481   6.267   0.694
12024TIP3   OH236014   5.926   4.149   5.114
12024TIP3    H136015   5.900   4.171   5.025
12024TIP3    H236016   5.877   4.070   5.135
12025TIP3   OH236017   4.942   4.646   5.905
12025TIP3    H136018   4.985   4.561   5.909
12025TIP3    H236019   4.950   4.681   5.994
12026TIP3   OH236020   6.715   1.888   2.586
12026TIP3    H136021   6.744   1.818   2.644
12026TIP3    H236022   6.706   1.965   2.643
12027TIP3   OH236023   4.250   5.101   1.644
12027TIP3    H136024   4.203   5.042   1.585
12027TIP3    H236025   4.291   5.165   1.586
12028TIP3   OH236026   0.046   4.504   6.512
12028TIP3    H136027   0.018   4.516   6.603
12028TIP3    H236028  -0.017   4.554   6.460
12029TIP3   OH236029   0.111   0.434   4.535
12029TIP3    H136030   0.186   0.402   4.586
12029TIP3    H236031   0.143   0.440   4.446
12030TIP3   OH236032   3.984   7.235   3.584
12030TIP3    H136033   4.059   7.182   3.559
12030TIP3    H236034   3.929   7.176   3.637
12031TIP3   OH236035   4.274   0.803   2.921
12031TIP3    H136036   4.342   0.748   2.960
12031TIP3    H236037   4.197   0.747   2.916
12032TIP3   OH236038   6.568   4.486   5.611
12032TIP3    H136039   6.487   4.493   5.660
12032TIP3    H236040   6.545   4.434   5.533
12033TIP3   OH236041   7.505   7.524   3.269
12033TIP3    H136042   7.517   7.459   3.199
12033TIP3    H236043   7.589   7.528   3.313
12034TIP3   OH236044   7.848   0.236   0.918
12034TIP3    H136045   7.770   0.224   0.863
12034TIP3    H236046   7.922   0.227   0.858
12035TIP3   OH236047   1.848   0.047   5.145
12035TIP3    H136048   1.824   0.018   5.057
12035TIP3    H236049   1.921   0.107   5.131
12036TIP3   OH236050   7.173   5.405   2.822
12036TIP3    H136051   7.198   5.347   2.894
12036TIP3    H236052   7.235   5.384   2.752
12037TIP3   OH236053   7.291   4.065   2.107
12037TIP3    H136054   7.378   4.097   2.131
12037TIP3    H236055   7.237   4.144   2.104
12038TIP3   OH236056   0.960   1.054   6.123
12038TIP3    H136057   0.879   1.028   6.078
12038TIP3    H236058   0.997   0.972   6.156
12039TIP3   OH236059   4.650   0.787   5.990
12039TIP3    H136060   4.736   0.751   5.969
12039TIP3    H236061   4.660   0.882   5.977
12040TIP3   OH236062   6.801   7.351   4.587
12040TIP3    H136063   6.897   7.345   4.584
12040TIP3    H236064   6.771   7.262   4.570
12041TIP3   OH236065   4.253   4.547   4.286
12041TIP3    H136066   4.162   4.569   4.264
12041TIP3    H236067   4.247   4.504   4.371
12042TIP3   OH236068   4.359   1.897   3.738
12042TIP3    H136069   4.307   1.820   3.762
12042TIP3    H236070   4.335   1.963   3.803
12043TIP3   OH236071   6.600   5.509   4.030
12043TIP3    H136072   6.675   5.468   3.987
12043TIP3    H236073   6.586   5.591   3.982
12044TIP3   OH236074   6.775   5.523   1.324
12044TIP3    H136075   6.834   5.547   1.252
12044TIP3    H236076   6.824   5.457   1.373
12045TIP3   OH236077   3.759   4.493   2.148
12045TIP3    H136078   3.774   4.584   2.124
12045TIP3    H236079   3.664   4.483   2.147
12046TIP3   OH236080   0.959   4.520   4.059
12046TIP3    H136081   0.869   4.520   4.090
12046TIP3    H236082   0.957   4.569   3.977
12047TIP3   OH236083   1.863   4.289   2.110
12047TIP3    H136084   1.777   4.332   2.111
12047TIP3    H236085   1.846   4.201   2.144
12048TIP3   OH236086   7.222   6.725   2.596
12048TIP3    H136087   7.317   6.722   2.583
12048TIP3    H236088   7.199   6.637   2.625
12049TIP3   OH236089   1.293   6.852   4.454
12049TIP3    H136090   1.273   6.945   4.462
12049TIP3    H236091   1.292   6.835   4.360
12050TIP3   OH236092   2.939   0.377   2.268
12050TIP3    H136093   3.006   0.312   2.246
12050TIP3    H236094   2.907   0.350   2.354
12051TIP3   OH236095   1.685   5.575   1.691
12051TIP3    H136096   1.714   5.664   1.711
12051TIP3    H236097   1.762   5.520   1.708
12052TIP3   OH236098   1.992   2.406   5.044
12052TIP3    H136099   1.948   2.330   5.082
12052TIP3    H236100   1.924   2.472   5.036
12053TIP3   OH236101   4.086   5.472   3.003
12053TIP3    H136102   4.084   5.438   2.914
12053TIP3    H236103   3.994   5.489   3.025
12054TIP3   OH236104   4.154   7.534   1.556
12054TIP3    H136105   4.058   7.542   1.555
12054TIP3    H236106   4.183   7.600   1.619
12055TIP3   OH236107   8.257   3.792   4.759
12055TIP3    H136108   8.285   3.865   4.815
12055TIP3    H236109   8.209   3.834   4.688
12056TIP3   OH236110   0.328   5.157   0.615
12056TIP3    H136111   0.281   5.154   0.532
12056TIP3    H236112   0.417   5.130   0.593
12057TIP3   OH236113   1.387   2.023   4.905
12057TIP3    H136114   1.317   1.957   4.902
12057TIP3    H236115   1.356   2.088   4.967
12058TIP3   OH236116   8.289   4.323   2.131
12058TIP3    H136117   8.286   4.230   2.109
12058TIP3    H236118   8.228   4.365   2.071
12059TIP3   OH236119   2.416   3.545   6.709
12059TIP3    H136120   2.368   3.483   6.655
12059TIP3    H236121   2.507   3.516   6.705
12060TIP3   OH236122   4.049   3.338   5.022
12060TIP3    H136123   3.999   3.285   4.960
12060TIP3    H236124   3.985   3.362   5.090
12061TIP3   OH236125   7.759   1.588   2.812
12061TIP3    H136126   7.688   1.627   2.863
12061TIP3    H236127   7.837   1.598   2.867
12062TIP3   OH236128   6.394   3.664   3.058
12062TIP3    H136129   6.404   3.760   3.057
12062TIP3    H236130   6.349   3.645   2.976
12063TIP3   OH236131   6.347   4.295   3.817
12063TIP3    H136132   6.422   4.240   3.839
12063TIP3    H236133   6.271   4.236   3.824
12064TIP3   OH236134   6.611   0.047   3.690
12064TIP3    H136135   6.615   0.030   3.596
12064TIP3    H236136   6.557  -0.024   3.725
12065TIP3   OH236137   7.885   4.052   5.425
12065TIP3    H136138   7.970   4.010   5.411
12065TIP3    H236139   7.865   4.035   5.517
12066TIP3   OH236140   2.094   3.899   0.184
12066TIP3    H136141   2.105   3.810   0.216
12066TIP3    H236142   2.054   3.889   0.098
12067TIP3   OH236143   4.102   7.581   3.469
12067TIP3    H136144   4.181   7.532   3.493
12067TIP3    H236145   4.134   7.648   3.408
12068TIP3   OH236146   5.419   6.322   6.226
12068TIP3    H136147   5.357   6.308   6.298
12068TIP3    H236148   5.416   6.416   6.209
12069TIP3   OH236149   4.920   3.173   0.774
12069TIP3    H136150   4.960   3.155   0.689
12069TIP3    H236151   4.939   3.095   0.826
12070TIP3   OH236152   6.895   7.580   0.043
12070TIP3    H136153   6.970   7.522   0.030
12070TIP3    H236154   6.819   7.528   0.016
12071TIP3   OH236155   1.339   4.113   3.786
12071TIP3    H136156   1.333   4.031   3.736
12071TIP3    H236157   1.249   4.134   3.809
12072TIP3   OH236158   4.805   6.808   3.939
12072TIP3    H136159   4.880   6.810   3.880
12072TIP3    H236160   4.842   6.790   4.025
12073TIP3   OH236161   4.718   1.427   1.463
12073TIP3    H136162   4.698   1.388   1.549
12073TIP3    H236163   4.725   1.521   1.480
12074TIP3   OH236164   6.209   1.987   6.589
12074TIP3    H136165   6.279   2.027   6.640
12074TIP3    H236166   6.190   1.904   6.633
12075TIP3   OH236167   7.366   0.420   2.659
12075TIP3    H136168   7.329   0.447   2.575
12075TIP3    H236169   7.372   0.325   2.652
12076TIP3   OH236170   6.980   7.066   2.236
12076TIP3    H136171   6.896   7.107   2.219
12076TIP3    H236172   6.958   6.975   2.257
12077TIP3   OH236173   6.554   6.213   5.681
12077TIP3    H136174   6.486   6.168   5.732
12077TIP3    H236175   6.511   6.235   5.598
12078TIP3   OH236176   6.632   3.175   0.083
12078TIP3    H136177   6.537   3.174   0.098
12078TIP3    H236178   6.658   3.265   0.101
12079TIP3   OH236179   8.263   2.769   2.011
12079TIP3    H136180   8.312   2.842   1.971
12079TIP3    H236181   8.266   2.700   1.945
12080TIP3   OH236182   0.911   4.913   2.961
12080TIP3    H136183   0.951   4.983   2.910
12080TIP3    H236184   0.853   4.958   3.023
12081TIP3   OH236185   4.994   6.269   0.629
12081TIP3    H136186   5.056   6.335   0.659
12081TIP3    H236187   4.923   6.319   0.588
12082TIP3   OH236188   2.083   6.912   4.415
12082TIP3    H136189   2.119   6.990   4.374
12082TIP3    H236190   2.006   6.943   4.464
12083TIP3   OH236191   4.784   6.810   4.314
12083TIP3    H136192   4.873   6.781   4.333
12083TIP3    H236193   4.745   6.826   4.400
12084TIP3   OH236194   1.931   6.911   5.872
12084TIP3    H136195   1.974   6.996   5.876
12084TIP3    H236196   1.859   6.924   5.810
12085TIP3   OH236197   7.080   4.384   3.817
12085TIP3    H136198   7.111   4.429   3.895
12085TIP3    H236199   7.110   4.439   3.744
12086TIP3   OH236200   2.869   3.372   1.902
12086TIP3    H136201   2.846   3.279   1.911
12086TIP3    H236202   2.907   3.396   1.986
12087TIP3   OH236203   2.378   3.193   4.231
12087TIP3    H136204   2.360   3.136   4.307
12087TIP3    H236205   2.346   3.279   4.258
12088TIP3   OH236206   5.057   3.264   3.854
12088TIP3    H136207   5.066   3.350   3.895
12088TIP3    H236208   5.018   3.208   3.922
12089TIP3   OH236209   5.637   1.403   2.678
12089TIP3    H136210   5.671   1.347   2.608
12089TIP3    H236211   5.673   1.490   2.659
12090TIP3   OH236212   6.277   1.928   2.235
12090TIP3    H136213   6.200   1.946   2.181
12090TIP3    H236214   6.351   1.950   2.180
12091TIP3   OH236215   3.471   1.845   3.340
12091TIP3    H136216   3.475   1.778   3.272
12091TIP3    H236217   3.554   1.836   3.388
12092TIP3   OH236218   1.594   4.187   5.337
12092TIP3    H136219   1.632   4.100   5.348
12092TIP3    H236220   1.661   4.237   5.292
12093TIP3   OH236221   5.431   1.390   6.274
12093TIP3    H136222   5.358   1.452   6.286
12093TIP3    H236223   5.492   1.437   6.217
12094TIP3   OH236224   4.316   0.083   1.122
12094TIP3    H136225   4.348   0.057   1.208
12094TIP3    H236226   4.357   0.022   1.061
12095TIP3   OH236227   4.353   4.996   1.970
12095TIP3    H136228   4.375   4.942   2.045
12095TIP3    H236229   4.406   5.075   1.981
12096TIP3   OH236230   1.601   4.041   0.094
12096TIP3    H136231   1.638   3.992   0.167
12096TIP3    H236232   1.601   4.132   0.124
12097TIP3   OH236233   3.613   5.138   5.170
12097TIP3    H136234   3.670   5.211   5.193
12097TIP3    H236235   3.644   5.108   5.085
12098TIP3   OH236236   5.113   3.157   2.375
12098TIP3    H136237   5.069   3.232   2.416
12098TIP3    H236238   5.050   3.086   2.382
12099TIP3   OH236239   2.032   4.397   4.605
12099TIP3    H136240   2.015   4.481   4.648
12099TIP3    H236241   1.978   4.400   4.526
12100TIP3   OH236242   1.037   0.658   5.000
12100TIP3    H136243   1.007   0.574   4.966
12100TIP3    H236244   1.010   0.658   5.092
12101TIP3   OH236245   4.661   3.225   0.109
12101TIP3    H136246   4.727   3.292   0.089
12101TIP3    H236247   4.591   3.240   0.046
12102TIP3   OH236248   0.217   5.632   4.850
12102TIP3    H136249   0.251   5.606   4.765
12102TIP3    H236250   0.293   5.666   4.897
12103TIP3   OH236251   8.000   5.681   6.233
12103TIP3    H136252   8.082   5.731   6.224
12103TIP3    H236253   8.001   5.620   6.160
12104TIP3   OH236254   4.208   6.935   0.524
12104TIP3    H136255   4.179   6.910   0.611
12104TIP3    H236256   4.146   6.893   0.464
12105TIP3   OH236257   2.452   7.032   4.639
12105TIP3    H136258   2.529   6.987   4.605
12105TIP3    H236259   2.453   7.117   4.595
12106TIP3   OH236260   4.701   2.441   3.839
12106TIP3    H136261   4.720   2.383   3.913
12106TIP3    H236262   4.712   2.386   3.762
12107TIP3   OH236263   1.275   4.639   2.170
12107TIP3    H136264   1.265   4.665   2.079
12107TIP3    H236265   1.357   4.681   2.198
12108TIP3   OH236266   5.793   5.956   2.877
12108TIP3    H136267   5.868   5.963   2.818
12108TIP3    H236268   5.743   5.881   2.843
12109TIP3   OH236269   4.771   3.807   4.401
12109TIP3    H136270   4.711   3.871   4.362
12109TIP3    H236271   4.714   3.739   4.436
12110TIP3   OH236272   4.423   6.736   1.397
12110TIP3    H136273   4.371   6.655   1.398
12110TIP3    H236274   4.425   6.764   1.489
12111TIP3   OH236275   1.117   0.384   5.341
12111TIP3    H136276   1.146   0.320   5.406
12111TIP3    H236277   1.021   0.377   5.341
12112TIP3   OH236278   4.243   6.803   5.882
12112TIP3    H136279   4.177   6.790   5.815
12112TIP3    H236280   4.220   6.887   5.923
12113TIP3   OH236281   5.738   0.266   5.237
12113TIP3    H136282   5.773   0.336   5.183
12113TIP3    H236283   5.763   0.289   5.327
12114TIP3   OH236284   1.290   5.296   4.288
12114TIP3    H136285   1.304   5.290   4.382
12114TIP3    H236286   1.378   5.294   4.250
12115TIP3   OH236287   1.714   1.373   2.354
12115TIP3    H136288   1.647   1.321   2.310
12115TIP3    H236289   1.766   1.308   2.402
12116TIP3   OH236290   7.604   4.139   0.186
12116TIP3    H136291   7.645   4.156   0.101
12116TIP3    H236292   7.659   4.072   0.226
12117TIP3   OH236293   0.952   6.917   6.413
12117TIP3    H136294   0.950   6.990   6.473
12117TIP3    H236295   0.864   6.912   6.377
12118TIP3   OH236296   7.158   3.544   2.777
12118TIP3    H136297   7.173   3.608   2.707
12118TIP3    H236298   7.245   3.507   2.794
12119TIP3   OH236299   0.674   2.354   6.531
12119TIP3    H136300   0.586   2.371   6.565
12119TIP3    H236301   0.724   2.434   6.553
12120TIP3   OH236302   1.469   7.187   3.119
12120TIP3    H136303   1.542   7.231   3.161
12120TIP3    H236304   1.453   7.238   3.039
12121TIP3   OH236305   2.501   0.326   1.304
12121TIP3    H136306   2.430   0.382   1.336
12121TIP3    H236307   2.565   0.387   1.267
12122TIP3   OH236308   5.502   2.141   6.001
12122TIP3    H136309   5.451   2.067   5.972
12122TIP3    H236310   5.463   2.217   5.958
12123TIP3   OH236311   0.598   0.742   3.287
12123TIP3    H136312   0.530   0.707   3.229
12123TIP3    H236313   0.587   0.693   3.369
12124TIP3   OH236314   0.548   5.406   5.047
12124TIP3    H136315   0.502   5.410   4.962
12124TIP3    H236316   0.579   5.316   5.053
12125TIP3   OH236317   7.128   7.235   2.587
12125TIP3    H136318   7.149   7.168   2.521
12125TIP3    H236319   7.058   7.197   2.639
12126TIP3   OH236320   7.771   7.305   3.790
12126TIP3    H136321   7.753   7.365   3.717
12126TIP3    H236322   7.698   7.317   3.850
12127TIP3   OH236323   3.314   7.616   5.056
12127TIP3    H136324   3.291   7.632   4.964
12127TIP3    H236325   3.407   7.595   5.054
12128TIP3   OH236326   6.144   0.595   2.001
12128TIP3    H136327   6.222   0.551   1.967
12128TIP3    H236328   6.071   0.543   1.967
12129TIP3   OH236329   2.241   7.171   3.209
12129TIP3    H136330   2.202   7.240   3.262
12129TIP3    H236331   2.258   7.100   3.271
12130TIP3   OH236332   6.457   5.077   1.777
12130TIP3    H136333   6.476   5.055   1.686
12130TIP3    H236334   6.482   5.170   1.784
12131TIP3   OH236335   4.851   5.990   3.274
12131TIP3    H136336   4.840   6.031   3.359
12131TIP3    H236337   4.924   6.037   3.233
12132TIP3   OH236338   3.775   3.142   2.603
12132TIP3    H136339   3.853   3.168   2.652
12132TIP3    H236340   3.764   3.049   2.623
12133TIP3   OH236341   0.569   6.714   2.833
12133TIP3    H136342   0.606   6.792   2.792
12133TIP3    H236343   0.475   6.729   2.833
12134TIP3   OH236344   5.668   1.428   4.424
12134TIP3    H136345   5.591   1.464   4.469
12134TIP3    H236346   5.728   1.502   4.417
12135TIP3   OH236347   0.101   1.425   2.142
12135TIP3    H136348   0.139   1.504   2.102
12135TIP3    H236349   0.131   1.428   2.232
12136TIP3   OH236350   1.458   7.572   3.255
12136TIP3    H136351   1.381   7.525   3.285
12136TIP3    H236352   1.450   7.659   3.293
12137TIP3   OH236353   6.897   2.714   2.060
12137TIP3    H136354   6.859   2.626   2.063
12137TIP3    H236355   6.958   2.715   2.135
12138TIP3   OH236356   0.465   0.952   3.572
12138TIP3    H136357   0.454   0.861   3.546
12138TIP3    H236358   0.408   0.964   3.647
12139TIP3   OH236359   3.093   6.770   4.937
12139TIP3    H136360   3.024   6.710   4.909
12139TIP3    H236361   3.118   6.739   5.024
12140TIP3   OH236362   7.053   5.076   1.355
12140TIP3    H136363   7.118   5.008   1.368
12140TIP3    H236364   7.007   5.051   1.275
12141TIP3   OH236365   2.906   2.752   2.646
12141TIP3    H136366   2.838   2.729   2.710
12141TIP3    H236367   2.888   2.844   2.624
12142TIP3   OH236368   2.652   2.294   4.367
12142TIP3    H136369   2.577   2.305   4.425
12142TIP3    H236370   2.655   2.200   4.350
12143TIP3   OH236371   0.178   2.105   4.265
12143TIP3    H136372   0.215   2.029   4.310
12143TIP3    H236373   0.085   2.085   4.255
12144TIP3   OH236374   1.420   4.097   3.241
12144TIP3    H136375   1.416   4.128   3.151
12144TIP3    H236376   1.504   4.129   3.274
12145TIP3   OH236377   5.266   1.732   4.487
12145TIP3    H136378   5.230   1.802   4.432
12145TIP3    H236379   5.307   1.778   4.561
12146TIP3   OH236380   2.004   4.021   2.176
12146TIP3    H136381   1.925   3.977   2.144
12146TIP3    H236382   2.059   3.951   2.209
12147TIP3   OH236383   7.859   3.074   3.458
12147TIP3    H136384   7.813   3.142   3.409
12147TIP3    H236385   7.868   3.001   3.397
12148TIP3   OH236386   6.593   3.286   4.493
12148TIP3    H136387   6.648   3.311   4.419
12148TIP3    H236388   6.508   3.327   4.475
12149TIP3   OH236389   3.510   7.701   6.523
12149TIP3    H136390   3.473   7.612   6.523
12149TIP3    H236391   3.461   7.747   6.591
12150TIP3   OH236392   4.631   6.460   5.709
12150TIP3    H136393   4.695   6.531   5.696
12150TIP3    H236394   4.685   6.384   5.732
12151TIP3   OH236395   4.896   3.508   1.714
12151TIP3    H136396   4.845   3.427   1.717
12151TIP3    H236397   4.872   3.549   1.631
12152TIP3   OH236398   4.476   4.587   5.531
12152TIP3    H136399   4.405   4.549   5.583
12152TIP3    H236400   4.458   4.681   5.529
12153TIP3   OH236401   5.942   4.715   4.005
12153TIP3    H136402   5.964   4.796   4.051
12153TIP3    H236403   5.958   4.736   3.912
12154TIP3   OH236404   8.087   2.730   5.225
12154TIP3    H136405   8.043   2.728   5.310
12154TIP3    H236406   8.046   2.804   5.179
12155TIP3   OH236407   5.558   6.396   3.243
12155TIP3    H136408   5.624   6.349   3.295
12155TIP3    H236409   5.534   6.335   3.174
12156TIP3   OH236410   8.269   5.604   4.494
12156TIP3    H136411   8.238   5.648   4.415
12156TIP3    H236412   8.363   5.619   4.495
12157TIP3   OH236413   7.355   2.447   6.588
12157TIP3    H136414   7.365   2.391   6.665
12157TIP3    H236415   7.302   2.396   6.528
12158TIP3   OH236416   7.245   4.018   1.386
12158TIP3    H136417   7.164   4.068   1.377
12158TIP3    H236418   7.252   3.999   1.479
12159TIP3   OH236419   1.376   7.179   0.673
12159TIP3    H136420   1.380   7.152   0.581
12159TIP3    H236421   1.337   7.266   0.671
12160TIP3   OH236422   3.457   6.448   0.089
12160TIP3    H136423   3.551   6.465   0.087
12160TIP3    H236424   3.421   6.520   0.141
12161TIP3   OH236425   4.998   6.450   6.182
12161TIP3    H136426   4.972   6.358   6.184
12161TIP3    H236427   4.941   6.489   6.115
12162TIP3   OH236428   4.318   5.647   0.500
12162TIP3    H136429   4.260   5.599   0.559
12162TIP3    H236430   4.314   5.598   0.417
12163TIP3   OH236431   3.206   4.480   5.891
12163TIP3    H136432   3.217   4.432   5.809
12163TIP3    H236433   3.148   4.553   5.869
12164TIP3   OH236434   4.821   4.450   2.531
12164TIP3    H136435   4.773   4.529   2.553
12164TIP3    H236436   4.866   4.470   2.449
12165TIP3   OH236437   6.247   1.064   4.108
12165TIP3    H136438   6.180   1.042   4.173
12165TIP3    H236439   6.222   1.152   4.077
12166TIP3   OH236440   5.205   2.168   5.456
12166TIP3    H136441   5.204   2.245   5.513
12166TIP3    H236442   5.131   2.115   5.486
12167TIP3   OH236443   8.012   3.491   4.629
12167TIP3    H136444   8.102   3.518   4.643
12167TIP3    H236445   7.959   3.558   4.672
12168TIP3   OH236446   5.734   6.975   1.908
12168TIP3    H136447   5.715   6.893   1.952
12168TIP3    H236448   5.673   7.038   1.947
12169TIP3   OH236449   1.041   1.798   0.097
12169TIP3    H136450   0.983   1.724   0.115
12169TIP3    H236451   1.035   1.810   0.002
12170TIP3   OH236452   3.616   3.307   0.941
12170TIP3    H136453   3.667   3.244   0.890
12170TIP3    H236454   3.541   3.257   0.973
12171TIP3   OH236455   6.278   7.503   3.844
12171TIP3    H136456   6.347   7.499   3.778
12171TIP3    H236457   6.277   7.416   3.884
12172TIP3   OH236458   3.154   5.903   3.549
12172TIP3    H136459   3.179   5.851   3.626
12172TIP3    H236460   3.130   5.988   3.585
12173TIP3   OH236461   5.542   3.473   5.743
12173TIP3    H136462   5.499   3.500   5.824
12173TIP3    H236463   5.614   3.535   5.732
12174TIP3   OH236464   0.186   2.385   1.918
12174TIP3    H136465   0.201   2.292   1.935
12174TIP3    H236466   0.274   2.420   1.900
12175TIP3   OH236467   6.191   7.431   4.772
12175TIP3    H136468   6.137   7.462   4.700
12175TIP3    H236469   6.140   7.361   4.812
12176TIP3   OH236470   3.314   2.245   6.267
12176TIP3    H136471   3.384   2.309   6.259
12176TIP3    H236472   3.359   2.160   6.267
12177TIP3   OH236473   3.044   0.116   1.133
12177TIP3    H136474   3.042   0.161   1.218
12177TIP3    H236475   2.970   0.153   1.085
12178TIP3   OH236476   2.958   2.242   4.000
12178TIP3    H136477   2.915   2.325   4.017
12178TIP3    H236478   2.994   2.215   4.084
12179TIP3   OH236479   2.463   1.216   4.478
12179TIP3    H136480   2.382   1.266   4.471
12179TIP3    H236481   2.449   1.158   4.553
12180TIP3   OH236482   3.472   4.440   5.771
12180TIP3    H136483   3.380   4.445   5.744
12180TIP3    H236484   3.470   4.452   5.866
12181TIP3   OH236485   4.671   7.198   0.674
12181TIP3    H136486   4.661   7.206   0.769
12181TIP3    H236487   4.582   7.208   0.640
12182TIP3   OH236488   8.033   3.237   2.852
12182TIP3    H136489   8.031   3.204   2.941
12182TIP3    H236490   8.109   3.195   2.811
12183TIP3   OH236491   5.404   4.035   2.788
12183TIP3    H136492   5.314   4.030   2.754
12183TIP3    H236493   5.429   4.126   2.777
12184TIP3   OH236494   2.662   1.528   3.986
12184TIP3    H136495   2.707   1.492   4.062
12184TIP3    H236496   2.674   1.623   3.993
12185TIP3   OH236497   0.539   4.512   0.917
12185TIP3    H136498   0.446   4.518   0.893
12185TIP3    H236499   0.585   4.524   0.834
12186TIP3   OH236500   7.749   4.500   0.511
12186TIP3    H136501   7.713   4.412   0.502
12186TIP3    H236502   7.719   4.529   0.597
12187TIP3   OH236503   7.122   0.122   6.574
12187TIP3    H136504   7.182   0.053   6.601
12187TIP3    H236505   7.144   0.197   6.629
12188TIP3   OH236506   2.888   4.755   5.060
12188TIP3    H136507   2.849   4.708   4.987
12188TIP3    H236508   2.875   4.697   5.135
12189TIP3   OH236509   0.033   7.695   2.224
12189TIP3    H136510   0.069   7.776   2.190
12189TIP3    H236511  -0.059   7.715   2.241
12190TIP3   OH236512   5.640   2.999   2.038
12190TIP3    H136513   5.596   3.075   2.076
12190TIP3    H236514   5.608   2.994   1.948
12191TIP3   OH236515   5.058   2.664   6.025
12191TIP3    H136516   5.106   2.590   6.063
12191TIP3    H236517   5.119   2.704   5.963
12192TIP3   OH236518   7.655   4.517   4.315
12192TIP3    H136519   7.722   4.531   4.247
12192TIP3    H236520   7.701   4.533   4.397
12193TIP3   OH236521   5.524   2.495   6.438
12193TIP3    H136522   5.458   2.475   6.505
12193TIP3    H236523   5.603   2.452   6.469
12194TIP3   OH236524   0.990   7.775   4.151
12194TIP3    H136525   1.013   7.795   4.060
12194TIP3    H236526   1.074   7.756   4.193
12195TIP3   OH236527   1.112   0.144   4.618
12195TIP3    H136528   1.094   0.107   4.532
12195TIP3    H236529   1.149   0.230   4.601
12196TIP3   OH236530   3.050   4.943   3.177
12196TIP3    H136531   2.966   4.966   3.215
12196TIP3    H236532   3.112   4.949   3.250
12197TIP3   OH236533   4.828   2.652   0.536
12197TIP3    H136534   4.914   2.691   0.551
12197TIP3    H236535   4.785   2.657   0.622
12198TIP3   OH236536   4.696   2.738   4.694
12198TIP3    H136537   4.742   2.754   4.612
12198TIP3    H236538   4.627   2.676   4.671
12199TIP3   OH236539   3.737   1.687   6.465
12199TIP3    H136540   3.713   1.768   6.419
12199TIP3    H236541   3.655   1.638   6.471
12200TIP3   OH236542   6.428   6.297   6.381
12200TIP3    H136543   6.422   6.295   6.286
12200TIP3    H236544   6.342   6.327   6.410
12201TIP3   OH236545   2.261   7.569   1.767
12201TIP3    H136546   2.317   7.517   1.709
12201TIP3    H236547   2.302   7.655   1.769
12202TIP3   OH236548   6.189   6.830   4.025
12202TIP3    H136549   6.223   6.787   3.946
12202TIP3    H236550   6.170   6.919   3.997
12203TIP3   OH236551   4.212   2.221   6.151
12203TIP3    H136552   4.235   2.227   6.058
12203TIP3    H236553   4.182   2.308   6.174
12204TIP3   OH236554   8.000   2.735   6.296
12204TIP3    H136555   7.978   2.823   6.267
12204TIP3    H236556   8.038   2.693   6.219
12205TIP3   OH236557   7.224   3.875   6.318
12205TIP3    H136558   7.212   3.916   6.404
12205TIP3    H236559   7.165   3.923   6.260
12206TIP3   OH236560   7.291   4.023   4.973
12206TIP3    H136561   7.375   3.989   4.941
12206TIP3    H236562   7.226   3.991   4.911
12207TIP3   OH236563   5.126   0.764   4.015
12207TIP3    H136564   5.174   0.694   4.059
12207TIP3    H236565   5.157   0.844   4.057
12208TIP3   OH236566   5.408   0.507   5.190
12208TIP3    H136567   5.366   0.425   5.162
12208TIP3    H236568   5.349   0.543   5.257
12209TIP3   OH236569   1.627   6.413   5.855
12209TIP3    H136570   1.552   6.448   5.807
12209TIP3    H236571   1.695   6.480   5.846
12210TIP3   OH236572   6.720   7.210   0.433
12210TIP3    H136573   6.636   7.246   0.402
12210TIP3    H236574   6.759   7.171   0.355
12211TIP3   OH236575   3.004   4.750   2.434
12211TIP3    H136576   2.914   4.780   2.441
12211TIP3    H236577   3.003   4.662   2.471
12212TIP3   OH236578   0.086   0.601   6.712
12212TIP3    H136579   0.076   0.623   6.805
12212TIP3    H236580   0.106   0.684   6.669
12213TIP3   OH236581   5.171   3.041   0.682
12213TIP3    H136582   5.172   2.974   0.615
12213TIP3    H236583   5.148   3.122   0.636
12214TIP3   OH236584   1.197   5.680   2.868
12214TIP3    H136585   1.284   5.670   2.907
12214TIP3    H236586   1.188   5.774   2.852
12215TIP3   OH236587   1.936   0.371   1.655
12215TIP3    H136588   1.959   0.421   1.576
12215TIP3    H236589   2.008   0.310   1.666
12216TIP3   OH236590   4.490   0.364   1.084
12216TIP3    H136591   4.434   0.297   1.122
12216TIP3    H236592   4.473   0.361   0.991
12217TIP3   OH236593   7.244   6.814   1.536
12217TIP3    H136594   7.168   6.784   1.585
12217TIP3    H236595   7.207   6.856   1.458
12218TIP3   OH236596   5.773   2.745   3.916
12218TIP3    H136597   5.723   2.822   3.889
12218TIP3    H236598   5.707   2.679   3.936
12219TIP3   OH236599   3.259   3.796   6.126
12219TIP3    H136600   3.219   3.831   6.206
12219TIP3    H236601   3.343   3.840   6.120
12220TIP3   OH236602   4.199   6.634   0.299
12220TIP3    H136603   4.288   6.597   0.302
12220TIP3    H236604   4.207   6.718   0.343
12221TIP3   OH236605   5.552   5.398   6.322
12221TIP3    H136606   5.571   5.352   6.404
12221TIP3    H236607   5.637   5.431   6.293
12222TIP3   OH236608   3.644   7.603   2.397
12222TIP3    H136609   3.577   7.671   2.395
12222TIP3    H236610   3.720   7.643   2.355
12223TIP3   OH236611   4.675   3.145   6.384
12223TIP3    H136612   4.750   3.116   6.435
12223TIP3    H236613   4.689   3.108   6.296
12224TIP3   OH236614   5.997   7.507   2.982
12224TIP3    H136615   6.027   7.482   3.069
12224TIP3    H236616   6.077   7.522   2.932
12225TIP3   OH236617   7.523   1.869   2.734
12225TIP3    H136618   7.509   1.880   2.640
12225TIP3    H236619   7.479   1.944   2.774
12226TIP3   OH236620   0.505   4.828   5.701
12226TIP3    H136621   0.572   4.786   5.646
12226TIP3    H236622   0.521   4.793   5.789
12227TIP3   OH236623   1.580   0.993   5.505
12227TIP3    H136624   1.526   1.070   5.491
12227TIP3    H236625   1.519   0.919   5.501
12228TIP3   OH236626   7.843   3.020   4.846
12228TIP3    H136627   7.883   3.098   4.808
12228TIP3    H236628   7.782   3.054   4.911
12229TIP3   OH236629   4.495   5.256   2.284
12229TIP3    H136630   4.423   5.319   2.286
12229TIP3    H236631   4.568   5.304   2.243
12230TIP3   OH236632   7.239   3.547   0.575
12230TIP3    H136633   7.251   3.641   0.566
12230TIP3    H236634   7.151   3.531   0.539
12231TIP3   OH236635   7.471   6.516   6.497
12231TIP3    H136636   7.548   6.471   6.461
12231TIP3    H236637   7.494   6.531   6.589
12232TIP3   OH236638   5.148   2.355   4.607
12232TIP3    H136639   5.139   2.320   4.518
12232TIP3    H236640   5.223   2.413   4.602
12233TIP3   OH236641   5.244   0.225   0.017
12233TIP3    H136642   5.246   0.321   0.017
12233TIP3    H236643   5.280   0.201  -0.068
12234TIP3   OH236644   2.283   3.598   2.519
12234TIP3    H136645   2.364   3.630   2.480
12234TIP3    H236646   2.242   3.676   2.557
12235TIP3   OH236647   6.699   3.801   3.545
12235TIP3    H136648   6.638   3.770   3.478
12235TIP3    H236649   6.656   3.878   3.582
12236TIP3   OH236650   0.749   4.878   3.994
12236TIP3    H136651   0.729   4.950   3.935
12236TIP3    H236652   0.789   4.811   3.938
12237TIP3   OH236653   4.616   7.578   4.989
12237TIP3    H136654   4.538   7.569   4.934
12237TIP3    H236655   4.582   7.611   5.073
12238TIP3   OH236656   3.122   1.106   5.941
12238TIP3    H136657   3.033   1.138   5.954
12238TIP3    H236658   3.151   1.146   5.860
12239TIP3   OH236659   5.271   5.808   0.776
12239TIP3    H136660   5.231   5.824   0.691
12239TIP3    H236661   5.343   5.871   0.782
12240TIP3   OH236662   1.717   2.662   2.938
12240TIP3    H136663   1.809   2.651   2.913
12240TIP3    H236664   1.692   2.578   2.976
12241TIP3   OH236665   5.231   7.235   4.511
12241TIP3    H136666   5.211   7.289   4.435
12241TIP3    H236667   5.228   7.297   4.585
12242TIP3   OH236668   7.082   2.477   6.400
12242TIP3    H136669   7.058   2.458   6.310
12242TIP3    H236670   7.140   2.405   6.425
12243TIP3   OH236671   6.396   7.758   3.762
12243TIP3    H136672   6.363   7.774   3.674
12243TIP3    H236673   6.326   7.708   3.804
12244TIP3   OH236674   5.600   2.481   0.381
12244TIP3    H136675   5.666   2.543   0.349
12244TIP3    H236676   5.644   2.396   0.379
12245TIP3   OH236677   1.077   5.750   4.123
12245TIP3    H136678   1.172   5.751   4.117
12245TIP3    H236679   1.054   5.659   4.139
12246TIP3   OH236680   3.272   3.321   6.347
12246TIP3    H136681   3.294   3.336   6.439
12246TIP3    H236682   3.178   3.303   6.348
12247TIP3   OH236683   4.171   5.122   3.786
12247TIP3    H136684   4.152   5.203   3.834
12247TIP3    H236685   4.096   5.111   3.727
12248TIP3   OH236686   4.507   0.272   4.791
12248TIP3    H136687   4.464   0.221   4.722
12248TIP3    H236688   4.549   0.345   4.745
12249TIP3   OH236689   6.169   4.113   5.243
12249TIP3    H136690   6.117   4.090   5.320
12249TIP3    H236691   6.104   4.137   5.176
12250TIP3   OH236692   3.683   6.096   5.386
12250TIP3    H136693   3.600   6.076   5.429
12250TIP3    H236694   3.685   6.191   5.381
12251TIP3   OH236695   1.391   7.411   2.316
12251TIP3    H136696   1.409   7.505   2.311
12251TIP3    H236697   1.468   7.370   2.277
12252TIP3   OH236698   4.077   3.478   4.610
12252TIP3    H136699   4.146   3.500   4.548
12252TIP3    H236700   4.113   3.501   4.696
12253TIP3   OH236701   6.674   3.440   3.556
12253TIP3    H136702   6.627   3.357   3.568
12253TIP3    H236703   6.709   3.460   3.643
12254TIP3   OH236704   2.069   2.093   5.864
12254TIP3    H136705   2.074   2.110   5.958
12254TIP3    H236706   1.998   2.149   5.833
12255TIP3   OH236707   0.564   1.822   5.135
12255TIP3    H136708   0.583   1.915   5.124
12255TIP3    H236709   0.630   1.791   5.197
12256TIP3   OH236710   5.250   5.770   6.551
12256TIP3    H136711   5.290   5.703   6.495
12256TIP3    H236712   5.248   5.730   6.638
12257TIP3   OH236713   4.995   3.523   0.469
12257TIP3    H136714   5.024   3.584   0.401
12257TIP3    H236715   4.961   3.579   0.539
12258TIP3   OH236716   3.226   3.627   1.633
12258TIP3    H136717   3.230   3.607   1.539
12258TIP3    H236718   3.258   3.548   1.676
12259TIP3   OH236719   3.079   0.202   1.404
12259TIP3    H136720   3.090   0.296   1.391
12259TIP3    H236721   3.167   0.170   1.423
12260TIP3   OH236722   5.895   2.484   4.942
12260TIP3    H136723   5.948   2.563   4.931
12260TIP3    H236724   5.916   2.454   5.030
12261TIP3   OH236725   6.988   1.540   2.106
12261TIP3    H136726   7.082   1.550   2.114
12261TIP3    H236727   6.961   1.494   2.185
12262TIP3   OH236728   6.410   3.224   6.687
12262TIP3    H136729   6.383   3.156   6.626
12262TIP3    H236730   6.377   3.196   6.772
12263TIP3   OH236731   2.711   2.464   3.039
12263TIP3    H136732   2.717   2.370   3.055
12263TIP3    H236733   2.732   2.505   3.122
12264TIP3   OH236734   5.149   0.862   1.388
12264TIP3    H136735   5.139   0.792   1.324
12264TIP3    H236736   5.243   0.869   1.402
12265TIP3   OH236737   8.098   7.349   6.286
12265TIP3    H136738   8.142   7.309   6.360
12265TIP3    H236739   8.005   7.346   6.308
12266TIP3   OH236740   0.368   6.474   6.060
12266TIP3    H136741   0.308   6.400   6.064
12266TIP3    H236742   0.340   6.531   6.132
12267TIP3   OH236743   2.669   4.557   0.377
12267TIP3    H136744   2.757   4.582   0.351
12267TIP3    H236745   2.682   4.484   0.438
12268TIP3   OH236746   3.245   2.993   3.186
12268TIP3    H136747   3.224   2.940   3.110
12268TIP3    H236748   3.246   3.083   3.154
12269TIP3   OH236749   1.960   3.228   6.223
12269TIP3    H136750   1.866   3.243   6.225
12269TIP3    H236751   1.987   3.254   6.135
12270TIP3   OH236752   6.249   2.892   6.274
12270TIP3    H136753   6.279   2.845   6.352
12270TIP3    H236754   6.157   2.866   6.264
12271TIP3   OH236755   0.737   2.476   5.058
12271TIP3    H136756   0.724   2.462   4.964
12271TIP3    H236757   0.649   2.487   5.093
12272TIP3   OH236758   1.558   4.753   3.538
12272TIP3    H136759   1.478   4.724   3.495
12272TIP3    H236760   1.538   4.841   3.570
12273TIP3   OH236761   7.019   7.496   6.572
12273TIP3    H136762   6.949   7.443   6.611
12273TIP3    H236763   7.096   7.476   6.625
12274TIP3   OH236764   6.973   2.918   0.947
12274TIP3    H136765   7.052   2.964   0.920
12274TIP3    H236766   7.004   2.830   0.970
12275TIP3   OH236767   6.431   1.121   5.665
12275TIP3    H136768   6.426   1.204   5.712
12275TIP3    H236769   6.408   1.142   5.574
12276TIP3   OH236770   2.990   4.937   0.379
12276TIP3    H136771   2.954   5.019   0.413
12276TIP3    H236772   2.916   4.877   0.376
12277TIP3   OH236773   0.874   7.788   6.231
12277TIP3    H136774   0.953   7.826   6.269
12277TIP3    H236775   0.899   7.699   6.207
12278TIP3   OH236776   5.888   1.906   5.642
12278TIP3    H136777   5.957   1.968   5.668
12278TIP3    H236778   5.932   1.845   5.582
12279TIP3   OH236779   6.113   0.017   6.326
12279TIP3    H136780   6.176  -0.039   6.373
12279TIP3    H236781   6.061  -0.044   6.274
12280TIP3   OH236782   4.523   4.658   0.170
12280TIP3    H136783   4.488   4.743   0.144
12280TIP3    H236784   4.530   4.608   0.088
12281TIP3   OH236785   5.128   6.579   0.200
12281TIP3    H136786   5.099   6.530   0.277
12281TIP3    H236787   5.130   6.514   0.129
12282TIP3   OH236788   2.252   0.028   4.455
12282TIP3    H136789   2.265  -0.065   4.435
12282TIP3    H236790   2.196   0.059   4.384
12283TIP3   OH236791   2.748   0.625   4.597
12283TIP3    H136792   2.670   0.571   4.583
12283TIP3    H236793   2.714   0.711   4.622
12284TIP3   OH236794   1.738   3.655   0.813
12284TIP3    H136795   1.749   3.561   0.831
12284TIP3    H236796   1.788   3.670   0.733
12285TIP3   OH236797   3.487   4.793   2.886
12285TIP3    H136798   3.560   4.824   2.939
12285TIP3    H236799   3.460   4.869   2.835
12286TIP3   OH236800   6.351   6.767   6.243
12286TIP3    H136801   6.327   6.846   6.194
12286TIP3    H236802   6.269   6.719   6.253
12287TIP3   OH236803   3.808   1.258   2.850
12287TIP3    H136804   3.760   1.339   2.831
12287TIP3    H236805   3.867   1.247   2.775
12288TIP3   OH236806   0.719   1.801   3.821
12288TIP3    H136807   0.807   1.767   3.807
12288TIP3    H236808   0.704   1.793   3.915
12289TIP3   OH236809   7.192   6.227   2.258
12289TIP3    H136810   7.195   6.262   2.169
12289TIP3    H236811   7.100   6.237   2.284
12290TIP3   OH236812   6.516   7.193   0.759
12290TIP3    H136813   6.588   7.191   0.696
12290TIP3    H236814   6.543   7.257   0.824
12291TIP3   OH236815   0.249   1.910   4.431
12291TIP3    H136816   0.232   1.821   4.398
12291TIP3    H236817   0.215   1.908   4.521
12292TIP3   OH236818   1.112   1.269   3.056
12292TIP3    H136819   1.054   1.248   3.129
12292TIP3    H236820   1.162   1.189   3.040
12293TIP3   OH236821   7.892   1.370   3.517
12293TIP3    H136822   7.946   1.358   3.594
12293TIP3    H236823   7.954   1.392   3.447
12294TIP3   OH236824   4.346   6.472   5.050
12294TIP3    H136825   4.280   6.469   4.981
12294TIP3    H236826   4.429   6.488   5.004
12295TIP3   OH236827   5.628   3.886   5.768
12295TIP3    H136828   5.555   3.900   5.829
12295TIP3    H236829   5.681   3.818   5.810
12296TIP3   OH236830   0.262   4.488   0.874
12296TIP3    H136831   0.259   4.394   0.895
12296TIP3    H236832   0.172   4.508   0.846
12297TIP3   OH236833   1.127   6.063   1.136
12297TIP3    H136834   1.202   6.120   1.151
12297TIP3    H236835   1.101   6.080   1.045
12298TIP3   OH236836   0.715   5.698   2.083
12298TIP3    H136837   0.628   5.665   2.063
12298TIP3    H236838   0.764   5.690   2.001
12299TIP3   OH236839   7.036   2.436   3.189
12299TIP3    H136840   6.996   2.392   3.265
12299TIP3    H236841   6.962   2.474   3.142
12300TIP3   OH236842   3.135   4.083   5.279
12300TIP3    H136843   3.046   4.056   5.299
12300TIP3    H236844   3.172   4.008   5.231
12301TIP3   OH236845   2.805   7.364   0.505
12301TIP3    H136846   2.800   7.384   0.412
12301TIP3    H236847   2.816   7.269   0.510
12302TIP3   OH236848   2.631   3.617   1.720
12302TIP3    H136849   2.633   3.647   1.629
12302TIP3    H236850   2.702   3.665   1.763
12303TIP3   OH236851   7.396   5.019   4.044
12303TIP3    H136852   7.395   5.045   4.137
12303TIP3    H236853   7.489   5.020   4.020
12304TIP3   OH236854   3.416   5.462   0.952
12304TIP3    H136855   3.389   5.462   1.044
12304TIP3    H236856   3.500   5.506   0.951
12305TIP3   OH236857   8.169   2.511   0.450
12305TIP3    H136858   8.080   2.491   0.421
12305TIP3    H236859   8.188   2.597   0.413
12306TIP3   OH236860   5.846   1.398   1.638
12306TIP3    H136861   5.818   1.318   1.683
12306TIP3    H236862   5.941   1.397   1.643
12307TIP3   OH236863   3.794   3.157   0.843
12307TIP3    H136864   3.874   3.127   0.888
12307TIP3    H236865   3.811   3.140   0.750
12308TIP3   OH236866   7.225   2.925   6.485
12308TIP3    H136867   7.199   2.917   6.577
12308TIP3    H236868   7.158   2.877   6.437
12309TIP3   OH236869   0.139   7.746   4.435
12309TIP3    H136870   0.131   7.826   4.383
12309TIP3    H236871   0.151   7.777   4.525
12310TIP3   OH236872   8.206   3.201   3.829
12310TIP3    H136873   8.235   3.112   3.809
12310TIP3    H236874   8.121   3.209   3.785
12311TIP3   OH236875   2.305   1.701   2.960
12311TIP3    H136876   2.230   1.649   2.932
12311TIP3    H236877   2.376   1.638   2.968
12312TIP3   OH236878   7.770   7.033   5.623
12312TIP3    H136879   7.733   7.116   5.593
12312TIP3    H236880   7.793   7.049   5.715
12313TIP3   OH236881   4.245   3.441   0.592
12313TIP3    H136882   4.291   3.524   0.584
12313TIP3    H236883   4.293   3.394   0.660
12314TIP3   OH236884   5.885   0.896   5.802
12314TIP3    H136885   5.969   0.865   5.769
12314TIP3    H236886   5.905   0.929   5.890
12315TIP3   OH236887   6.990   0.999   0.070
12315TIP3    H136888   7.035   1.082   0.055
12315TIP3    H236889   6.923   0.995   0.001
12316TIP3   OH236890   3.441   0.920   1.438
12316TIP3    H136891   3.378   0.975   1.392
12316TIP3    H236892   3.485   0.979   1.499
12317TIP3   OH236893   6.586   4.474   0.653
12317TIP3    H136894   6.595   4.559   0.696
12317TIP3    H236895   6.536   4.493   0.573
12318TIP3   OH236896   2.205   2.905   0.249
12318TIP3    H136897   2.125   2.957   0.254
12318TIP3    H236898   2.276   2.969   0.243
12319TIP3   OH236899   0.972   3.890   1.863
12319TIP3    H136900   0.941   3.980   1.847
12319TIP3    H236901   0.942   3.871   1.952
12320TIP3   OH236902   1.027   2.851   4.733
12320TIP3    H136903   0.994   2.811   4.653
12320TIP3    H236904   1.063   2.778   4.783
12321TIP3   OH236905   5.535   2.319   2.141
12321TIP3    H136906   5.446   2.312   2.176
12321TIP3    H236907   5.590   2.332   2.218
12322TIP3   OH236908   5.154   1.657   0.648
12322TIP3    H136909   5.146   1.627   0.738
12322TIP3    H236910   5.081   1.615   0.602
12323TIP3   OH236911   3.334   4.745   4.483
12323TIP3    H136912   3.353   4.799   4.406
12323TIP3    H236913   3.419   4.737   4.527
12324TIP3   OH236914   1.178   3.943   4.938
12324TIP3    H136915   1.101   3.930   4.993
12324TIP3    H236916   1.150   4.006   4.872
12325TIP3   OH236917   2.018   5.229   4.243
12325TIP3    H136918   2.063   5.185   4.316
12325TIP3    H236919   2.063   5.198   4.165
12326TIP3   OH236920   3.532   2.373   5.040
12326TIP3    H136921   3.510   2.330   5.123
12326TIP3    H236922   3.510   2.465   5.054
12327TIP3   OH236923   7.495   6.839   5.606
12327TIP3    H136924   7.401   6.841   5.625
12327TIP3    H236925   7.536   6.852   5.692
12328TIP3   OH236926   1.744   2.527   1.233
12328TIP3    H136927   1.837   2.532   1.256
12328TIP3    H236928   1.709   2.613   1.258
12329TIP3   OH236929   3.975   1.097   5.012
12329TIP3    H136930   3.976   1.116   5.106
12329TIP3    H236931   4.001   1.005   5.006
12330TIP3   OH236932   3.031   1.104   3.570
12330TIP3    H136933   3.052   1.043   3.641
12330TIP3    H236934   2.936   1.115   3.576
12331TIP3   OH236935   6.590   7.700   1.291
12331TIP3    H136936   6.612   7.661   1.375
12331TIP3    H236937   6.580   7.793   1.310
12332TIP3   OH236938   0.746   0.447   3.970
12332TIP3    H136939   0.750   0.353   3.952
12332TIP3    H236940   0.835   0.470   3.995
12333TIP3   OH236941   6.713   7.111   2.216
12333TIP3    H136942   6.618   7.128   2.212
12333TIP3    H236943   6.721   7.016   2.202
12334TIP3   OH236944   5.310   4.268   4.774
12334TIP3    H136945   5.270   4.273   4.688
12334TIP3    H236946   5.397   4.306   4.763
12335TIP3   OH236947   1.969   2.200   0.645
12335TIP3    H136948   1.878   2.179   0.664
12335TIP3    H236949   1.975   2.295   0.660
12336TIP3   OH236950   1.482   6.596   5.047
12336TIP3    H136951   1.562   6.645   5.031
12336TIP3    H236952   1.512   6.509   5.072
12337TIP3   OH236953   1.821   6.790   0.312
12337TIP3    H136954   1.838   6.731   0.386
12337TIP3    H236955   1.907   6.820   0.285
12338TIP3   OH236956   2.213   2.306   3.409
12338TIP3    H136957   2.244   2.392   3.378
12338TIP3    H236958   2.279   2.278   3.471
12339TIP3   OH236959   1.540   1.748   1.126
12339TIP3    H136960   1.587   1.825   1.093
12339TIP3    H236961   1.554   1.750   1.221
12340TIP3   OH236962   5.145   1.858   6.129
12340TIP3    H136963   5.100   1.785   6.088
12340TIP3    H236964   5.132   1.845   6.223
12341TIP3   OH236965   6.936   7.768   3.532
12341TIP3    H136966   6.977   7.791   3.616
12341TIP3    H236967   6.907   7.677   3.545
12342TIP3   OH236968   2.702   0.455   2.800
12342TIP3    H136969   2.634   0.387   2.800
12342TIP3    H236970   2.783   0.408   2.818
12343TIP3   OH236971   3.903   2.027   2.711
12343TIP3    H136972   3.956   1.974   2.652
12343TIP3    H236973   3.965   2.061   2.776
12344TIP3   OH236974   3.195   5.528   3.496
12344TIP3    H136975   3.212   5.509   3.588
12344TIP3    H236976   3.220   5.619   3.484
12345TIP3   OH236977   0.140   7.280   5.072
12345TIP3    H136978   0.144   7.373   5.052
12345TIP3    H236979   0.104   7.276   5.161
12346TIP3   OH236980   4.123   0.112   2.942
12346TIP3    H136981   4.187   0.060   2.894
12346TIP3    H236982   4.148   0.203   2.926
12347TIP3   OH236983   5.865   0.645   6.338
12347TIP3    H136984   5.907   0.644   6.425
12347TIP3    H236985   5.847   0.553   6.320
12348TIP3   OH236986   8.226   4.004   3.571
12348TIP3    H136987   8.143   4.026   3.614
12348TIP3    H236988   8.253   4.085   3.528
12349TIP3   OH236989   2.885   0.672   3.739
12349TIP3    H136990   2.832   0.744   3.705
12349TIP3    H236991   2.842   0.593   3.705
12350TIP3   OH236992   8.007   7.313   4.639
12350TIP3    H136993   8.084   7.294   4.693
12350TIP3    H236994   8.040   7.370   4.570
12351TIP3   OH236995   4.101   2.419   4.570
12351TIP3    H136996   4.046   2.365   4.627
12351TIP3    H236997   4.090   2.508   4.603
12352TIP3   OH236998   7.961   4.543   1.534
12352TIP3    H136999   8.051   4.566   1.512
12352TIP3    H237000   7.917   4.627   1.546
12353TIP3   OH237001   3.480   0.436   5.500
12353TIP3    H137002   3.516   0.514   5.458
12353TIP3    H237003   3.550   0.371   5.495
12354TIP3   OH237004   5.130   5.598   5.010
12354TIP3    H137005   5.213   5.575   5.053
12354TIP3    H237006   5.063   5.573   5.073
12355TIP3   OH237007   2.159   7.169   3.654
12355TIP3    H137008   2.245   7.175   3.695
12355TIP3    H237009   2.099   7.204   3.721
12356TIP3   OH237010   8.254   6.781   5.246
12356TIP3    H137011   8.265   6.796   5.152
12356TIP3    H237012   8.339   6.748   5.275
12357TIP3   OH237013   0.891   7.329   1.212
12357TIP3    H137014   0.930   7.409   1.178
12357TIP3    H237015   0.934   7.258   1.163
12358TIP3   OH237016   2.281   4.872   4.811
12358TIP3    H137017   2.359   4.915   4.846
12358TIP3    H237018   2.278   4.787   4.855
12359TIP3   OH237019   3.146   0.826   5.923
12359TIP3    H137020   3.193   0.790   5.848
12359TIP3    H237021   3.143   0.920   5.907
12360TIP3   OH237022   6.124   5.722   5.721
12360TIP3    H137023   6.198   5.746   5.776
12360TIP3    H237024   6.068   5.669   5.778
12361TIP3   OH237025   5.025   6.869   2.717
12361TIP3    H137026   5.100   6.823   2.678
12361TIP3    H237027   4.980   6.803   2.769
12362TIP3   OH237028   7.619   3.023   2.350
12362TIP3    H137029   7.625   3.069   2.433
12362TIP3    H237030   7.525   3.013   2.335
12363TIP3   OH237031   6.883   1.997   0.019
12363TIP3    H137032   6.926   2.080   0.040
12363TIP3    H237033   6.829   2.016  -0.058
12364TIP3   OH237034   4.546   5.412   0.178
12364TIP3    H137035   4.621   5.414   0.239
12364TIP3    H237036   4.548   5.499   0.137
12365TIP3   OH237037   4.179   2.967   1.782
12365TIP3    H137038   4.247   2.915   1.825
12365TIP3    H237039   4.152   3.030   1.849
12366TIP3   OH237040   5.637   6.388   4.965
12366TIP3    H137041   5.717   6.366   5.013
12366TIP3    H237042   5.667   6.444   4.893
12367TIP3   OH237043   5.621   5.997   1.902
12367TIP3    H137044   5.671   5.924   1.866
12367TIP3    H237045   5.543   5.956   1.940
12368TIP3   OH237046   0.573   5.328   1.793
12368TIP3    H137047   0.608   5.250   1.837
12368TIP3    H237048   0.651   5.374   1.761
12369TIP3   OH237049   1.615   6.933   6.071
12369TIP3    H137050   1.633   6.908   5.981
12369TIP3    H237051   1.521   6.951   6.073
12370TIP3   OH237052   1.852   6.273   2.178
12370TIP3    H137053   1.850   6.285   2.083
12370TIP3    H237054   1.780   6.213   2.197
12371TIP3   OH237055   1.078   4.381   4.640
12371TIP3    H137056   1.028   4.457   4.669
12371TIP3    H237057   1.137   4.416   4.573
12372TIP3   OH237058   2.541   1.113   1.987
12372TIP3    H137059   2.607   1.065   2.037
12372TIP3    H237060   2.588   1.190   1.955
12373TIP3   OH237061   5.682   0.533   4.359
12373TIP3    H137062   5.627   0.598   4.403
12373TIP3    H237063   5.702   0.469   4.427
12374TIP3   OH237064   5.666   6.802   2.384
12374TIP3    H137065   5.678   6.740   2.456
12374TIP3    H237066   5.716   6.879   2.411
12375TIP3   OH237067   1.388   3.627   6.529
12375TIP3    H137068   1.336   3.577   6.466
12375TIP3    H237069   1.455   3.566   6.560
12376TIP3   OH237070   3.035   2.201   6.031
12376TIP3    H137071   3.124   2.225   6.002
12376TIP3    H237072   2.978   2.231   5.959
12377TIP3   OH237073   3.594   6.360   4.097
12377TIP3    H137074   3.670   6.312   4.067
12377TIP3    H237075   3.522   6.296   4.095
12378TIP3   OH237076   3.672   2.978   6.649
12378TIP3    H137077   3.650   3.019   6.566
12378TIP3    H237078   3.622   3.028   6.714
12379TIP3   OH237079   5.623   6.254   1.764
12379TIP3    H137080   5.631   6.159   1.773
12379TIP3    H237081   5.713   6.286   1.770
12380TIP3   OH237082   2.777   5.846   4.193
12380TIP3    H137083   2.685   5.832   4.168
12380TIP3    H237084   2.820   5.764   4.167
12381TIP3   OH237085   1.646   3.886   0.308
12381TIP3    H137086   1.557   3.885   0.341
12381TIP3    H237087   1.666   3.794   0.289
12382TIP3   OH237088   6.835   1.092   4.544
12382TIP3    H137089   6.816   1.010   4.589
12382TIP3    H237090   6.857   1.066   4.455
12383TIP3   OH237091   5.321   0.683   4.634
12383TIP3    H137092   5.286   0.677   4.723
12383TIP3    H237093   5.251   0.650   4.578
12384TIP3   OH237094   2.201   4.001   6.134
12384TIP3    H137095   2.293   4.026   6.143
12384TIP3    H237096   2.170   3.991   6.224
12385TIP3   OH237097   6.624   6.534   0.937
12385TIP3    H137098   6.581   6.551   0.854
12385TIP3    H237099   6.661   6.618   0.963
12386TIP3   OH237100   5.949   4.117   0.385
12386TIP3    H137101   5.882   4.178   0.353
12386TIP3    H237102   6.010   4.172   0.434
12387TIP3   OH237103   8.203   5.096   4.726
12387TIP3    H137104   8.160   5.015   4.755
12387TIP3    H237105   8.193   5.155   4.801
12388TIP3   OH237106   5.028   0.711   0.204
12388TIP3    H137107   4.943   0.694   0.163
12388TIP3    H237108   5.051   0.799   0.176
12389TIP3   OH237109   8.276   7.715   4.139
12389TIP3    H137110   8.337   7.679   4.075
12389TIP3    H237111   8.201   7.655   4.138
12390TIP3   OH237112   7.155   2.669   2.728
12390TIP3    H137113   7.083   2.688   2.787
12390TIP3    H237114   7.224   2.633   2.784
12391TIP3   OH237115   4.579   7.617   1.426
12391TIP3    H137116   4.626   7.605   1.344
12391TIP3    H237117   4.504   7.673   1.403
12392TIP3   OH237118   4.423   6.320   2.284
12392TIP3    H137119   4.518   6.323   2.288
12392TIP3    H237120   4.395   6.326   2.376
12393TIP3   OH237121   4.312   3.243   2.729
12393TIP3    H137122   4.351   3.330   2.721
12393TIP3    H237123   4.252   3.250   2.803
12394TIP3   OH237124   3.855   6.584   3.068
12394TIP3    H137125   3.801   6.621   2.998
12394TIP3    H237126   3.907   6.657   3.099
12395TIP3   OH237127   5.754   3.217   4.139
12395TIP3    H137128   5.827   3.205   4.079
12395TIP3    H237129   5.696   3.142   4.123
12396TIP3   OH237130   1.897   7.369   2.714
12396TIP3    H137131   1.886   7.328   2.800
12396TIP3    H237132   1.888   7.297   2.652
12397TIP3   OH237133   1.220   1.050   0.805
12397TIP3    H137134   1.165   1.127   0.791
12397TIP3    H237135   1.309   1.080   0.788
12398TIP3   OH237136   5.692   5.356   0.191
12398TIP3    H137137   5.623   5.422   0.188
12398TIP3    H237138   5.677   5.308   0.272
12399TIP3   OH237139   1.619   7.614   4.671
12399TIP3    H137140   1.693   7.556   4.690
12399TIP3    H237141   1.575   7.572   4.597
12400TIP3   OH237142   0.060   2.297   0.506
12400TIP3    H137143   0.016   2.379   0.482
12400TIP3    H237144   0.086   2.258   0.422
12401TIP3   OH237145   1.102   5.994   1.932
12401TIP3    H137146   1.106   5.916   1.988
12401TIP3    H237147   1.193   6.015   1.914
12402TIP3   OH237148   4.374   2.534   1.917
12402TIP3    H137149   4.405   2.605   1.862
12402TIP3    H237150   4.334   2.472   1.855
12403TIP3   OH237151   6.054   6.158   0.565
12403TIP3    H137152   5.972   6.187   0.604
12403TIP3    H237153   6.036   6.155   0.471
12404TIP3   OH237154   2.757   3.271   0.274
12404TIP3    H137155   2.766   3.309   0.361
12404TIP3    H237156   2.818   3.198   0.273
12405TIP3   OH237157   3.081   4.099   3.481
12405TIP3    H137158   3.144   4.059   3.541
12405TIP3    H237159   3.033   4.162   3.535
12406TIP3   OH237160   6.770   1.825   5.259
12406TIP3    H137161   6.720   1.825   5.178
12406TIP3    H237162   6.723   1.764   5.316
12407TIP3   OH237163   6.608   6.167   6.547
12407TIP3    H137164   6.561   6.219   6.482
12407TIP3    H237165   6.618   6.081   6.506
12408TIP3   OH237166   3.385   4.493   1.536
12408TIP3    H137167   3.341   4.483   1.451
12408TIP3    H237168   3.352   4.576   1.570
12409TIP3   OH237169   7.187   5.768   4.935
12409TIP3    H137170   7.186   5.702   4.866
12409TIP3    H237171   7.117   5.829   4.910
12410TIP3   OH237172   5.208   0.710   1.865
12410TIP3    H137173   5.219   0.667   1.780
12410TIP3    H237174   5.209   0.638   1.928
12411TIP3   OH237175   1.624   6.791   6.518
12411TIP3    H137176   1.581   6.869   6.554
12411TIP3    H237177   1.701   6.825   6.473
12412TIP3   OH237178   5.071   5.890   1.613
12412TIP3    H137179   4.995   5.947   1.625
12412TIP3    H237180   5.092   5.896   1.520
12413TIP3   OH237181   6.317   4.873   3.042
12413TIP3    H137182   6.330   4.795   2.988
12413TIP3    H237183   6.330   4.841   3.132
12414TIP3   OH237184   2.435   6.475   0.271
12414TIP3    H137185   2.429   6.483   0.366
12414TIP3    H237186   2.350   6.506   0.240
12415TIP3   OH237187   0.968   7.598   0.257
12415TIP3    H137188   0.877   7.566   0.254
12415TIP3    H237189   0.988   7.622   0.167
12416TIP3   OH237190   8.234   2.867   4.825
12416TIP3    H137191   8.325   2.897   4.823
12416TIP3    H237192   8.193   2.919   4.893
12417TIP3   OH237193   4.002   3.185   4.336
12417TIP3    H137194   4.060   3.109   4.335
12417TIP3    H237195   3.922   3.156   4.291
12418TIP3   OH237196   2.587   2.159   1.165
12418TIP3    H137197   2.593   2.078   1.115
12418TIP3    H237198   2.505   2.150   1.214
12419TIP3   OH237199   8.018   0.175   0.520
12419TIP3    H137200   7.928   0.159   0.551
12419TIP3    H237201   8.058   0.227   0.590
12420TIP3   OH237202   1.037   2.208   6.588
12420TIP3    H137203   0.949   2.187   6.559
12420TIP3    H237204   1.047   2.163   6.672
12421TIP3   OH237205   6.060   2.572   0.441
12421TIP3    H137206   6.014   2.490   0.425
12421TIP3    H237207   6.063   2.579   0.537
12422TIP3   OH237208   7.085   2.874   1.617
12422TIP3    H137209   7.170   2.885   1.574
12422TIP3    H237210   7.084   2.783   1.646
12423TIP3   OH237211   2.301   5.215   2.842
12423TIP3    H137212   2.207   5.212   2.857
12423TIP3    H237213   2.324   5.126   2.817
12424TIP3   OH237214   0.866   5.149   1.836
12424TIP3    H137215   0.932   5.172   1.902
12424TIP3    H237216   0.783   5.154   1.883
12425TIP3   OH237217   1.739   4.165   0.344
12425TIP3    H137218   1.665   4.188   0.401
12425TIP3    H237219   1.764   4.077   0.373
12426TIP3   OH237220   5.174   6.391   3.635
12426TIP3    H137221   5.136   6.385   3.548
12426TIP3    H237222   5.238   6.463   3.629
12427TIP3   OH237223   0.276   1.941   2.457
12427TIP3    H137224   0.280   1.984   2.372
12427TIP3    H237225   0.352   1.882   2.458
12428TIP3   OH237226   2.758   1.988   6.539
12428TIP3    H137227   2.708   2.068   6.554
12428TIP3    H237228   2.849   2.017   6.531
12429TIP3   OH237229   2.293   6.765   6.396
12429TIP3    H137230   2.304   6.804   6.483
12429TIP3    H237231   2.369   6.796   6.347
12430TIP3   OH237232   2.805   1.122   1.395
12430TIP3    H137233   2.721   1.133   1.352
12430TIP3    H237234   2.857   1.198   1.366
12431TIP3   OH237235   4.368   1.915   3.063
12431TIP3    H137236   4.286   1.897   3.017
12431TIP3    H237237   4.394   2.003   3.034
12432TIP3   OH237238   6.919   3.563   2.049
12432TIP3    H137239   6.902   3.610   2.130
12432TIP3    H237240   6.966   3.484   2.076
12433TIP3   OH237241   6.242   6.644   3.434
12433TIP3    H137242   6.289   6.715   3.478
12433TIP3    H237243   6.203   6.686   3.357
12434TIP3   OH237244   1.580   2.313   0.463
12434TIP3    H137245   1.668   2.349   0.465
12434TIP3    H237246   1.525   2.381   0.501
12435TIP3   OH237247   7.531   2.084   5.474
12435TIP3    H137248   7.473   2.012   5.498
12435TIP3    H237249   7.595   2.045   5.415
12436TIP3   OH237250   2.326   2.435   4.061
12436TIP3    H137251   2.363   2.478   4.138
12436TIP3    H237252   2.247   2.391   4.094
12437TIP3   OH237253   3.324   0.164   4.231
12437TIP3    H137254   3.270   0.212   4.293
12437TIP3    H237255   3.408   0.153   4.276
12438TIP3   OH237256   3.830   6.694   6.434
12438TIP3    H137257   3.856   6.602   6.435
12438TIP3    H237258   3.760   6.698   6.368
12439TIP3   OH237259   3.948   2.830   1.109
12439TIP3    H137260   3.876   2.796   1.057
12439TIP3    H237261   3.915   2.912   1.145
12440TIP3   OH237262   5.592   3.071   1.390
12440TIP3    H137263   5.554   3.000   1.338
12440TIP3    H237264   5.547   3.150   1.360
12441TIP3   OH237265   5.459   0.609   0.027
12441TIP3    H137266   5.383   0.579   0.077
12441TIP3    H237267   5.512   0.658   0.090
12442TIP3   OH237268   2.556   7.434   0.616
12442TIP3    H137269   2.634   7.422   0.561
12442TIP3    H237270   2.590   7.469   0.698
12443TIP3   OH237271   1.873   7.775   4.363
12443TIP3    H137272   1.917   7.791   4.280
12443TIP3    H237273   1.796   7.723   4.340
12444TIP3   OH237274   4.445   3.256   3.353
12444TIP3    H137275   4.437   3.162   3.368
12444TIP3    H237276   4.538   3.269   3.335
12445TIP3   OH237277   1.021   0.386   3.065
12445TIP3    H137278   1.079   0.376   2.990
12445TIP3    H237279   1.076   0.422   3.134
12446TIP3   OH237280   7.843   7.760   4.196
12446TIP3    H137281   7.757   7.778   4.158
12446TIP3    H237282   7.854   7.666   4.187
12447TIP3   OH237283   3.884   5.821   1.939
12447TIP3    H137284   3.849   5.798   1.853
12447TIP3    H237285   3.919   5.909   1.928
12448TIP3   OH237286   6.281   2.236   1.186
12448TIP3    H137287   6.371   2.252   1.156
12448TIP3    H237288   6.256   2.154   1.142
12449TIP3   OH237289   7.586   6.940   6.159
12449TIP3    H137290   7.616   6.910   6.245
12449TIP3    H237291   7.520   7.007   6.179
12450TIP3   OH237292   6.599   2.477   6.072
12450TIP3    H137293   6.654   2.414   6.026
12450TIP3    H237294   6.517   2.430   6.087
12451TIP3   OH237295   6.400   3.780   1.781
12451TIP3    H137296   6.406   3.686   1.761
12451TIP3    H237297   6.457   3.792   1.857
12452TIP3   OH237298   7.214   1.529   4.055
12452TIP3    H137299   7.145   1.473   4.091
12452TIP3    H237300   7.208   1.518   3.960
12453TIP3   OH237301   7.888   5.178   5.576
12453TIP3    H137302   7.940   5.203   5.652
12453TIP3    H237303   7.948   5.183   5.502
12454TIP3   OH237304   4.070   3.056   1.544
12454TIP3    H137305   4.097   3.036   1.634
12454TIP3    H237306   4.152   3.074   1.498
12455TIP3   OH237307   0.641   3.086   3.661
12455TIP3    H137308   0.673   2.997   3.675
12455TIP3    H237309   0.719   3.137   3.641
12456TIP3   OH237310   0.218   4.689   0.444
12456TIP3    H137311   0.265   4.631   0.384
12456TIP3    H237312   0.250   4.777   0.423
12457TIP3   OH237313   8.096   3.245   5.614
12457TIP3    H137314   8.046   3.312   5.568
12457TIP3    H237315   8.179   3.287   5.636
12458TIP3   OH237316   1.509   4.574   5.341
12458TIP3    H137317   1.450   4.561   5.415
12458TIP3    H237318   1.454   4.615   5.274
12459TIP3   OH237319   4.955   7.620   1.678
12459TIP3    H137320   4.897   7.596   1.749
12459TIP3    H237321   4.933   7.560   1.607
12460TIP3   OH237322   3.112   3.978   2.448
12460TIP3    H137323   3.070   3.910   2.394
12460TIP3    H237324   3.109   4.057   2.393
12461TIP3   OH237325   2.273   6.969   2.128
12461TIP3    H137326   2.185   6.976   2.165
12461TIP3    H237327   2.307   7.058   2.130
12462TIP3   OH237328   0.492   3.082   2.856
12462TIP3    H137329   0.426   3.129   2.805
12462TIP3    H237330   0.485   3.119   2.944
12463TIP3   OH237331   1.682   1.983   0.999
12463TIP3    H137332   1.722   2.048   1.056
12463TIP3    H237333   1.747   1.967   0.931
12464TIP3   OH237334   1.766   3.486   1.719
12464TIP3    H137335   1.671   3.499   1.724
12464TIP3    H237336   1.779   3.436   1.639
12465TIP3   OH237337   2.598   0.521   4.950
12465TIP3    H137338   2.673   0.540   4.895
12465TIP3    H237339   2.602   0.585   5.020
12466TIP3   OH237340   3.963   0.319   4.816
12466TIP3    H137341   3.923   0.271   4.744
12466TIP3    H237342   3.973   0.254   4.886
12467TIP3   OH237343   5.639   3.091   0.591
12467TIP3    H137344   5.596   3.010   0.619
12467TIP3    H237345   5.576   3.133   0.533
12468TIP3   OH237346   1.004   5.577   3.303
12468TIP3    H137347   1.032   5.494   3.264
12468TIP3    H237348   1.081   5.609   3.350
12469TIP3   OH237349   5.610   4.877   0.280
12469TIP3    H137350   5.701   4.879   0.252
12469TIP3    H237351   5.607   4.936   0.356
12470TIP3   OH237352   7.608   7.069   2.622
12470TIP3    H137353   7.529   7.066   2.675
12470TIP3    H237354   7.680   7.053   2.683
12471TIP3   OH237355   7.215   0.413   0.514
12471TIP3    H137356   7.229   0.489   0.456
12471TIP3    H237357   7.177   0.347   0.457
12472TIP3   OH237358   1.151   2.219   3.375
12472TIP3    H137359   1.102   2.272   3.439
12472TIP3    H237360   1.087   2.154   3.345
12473TIP3   OH237361   7.068   2.347   6.713
12473TIP3    H137362   7.105   2.398   6.785
12473TIP3    H237363   7.096   2.257   6.729
12474TIP3   OH237364   4.433   6.684   3.988
12474TIP3    H137365   4.344   6.659   3.966
12474TIP3    H237366   4.470   6.717   3.906
12475TIP3   OH237367   4.010   5.161   6.030
12475TIP3    H137368   4.078   5.226   6.048
12475TIP3    H237369   4.041   5.117   5.951
12476TIP3   OH237370   5.568   3.846   0.970
12476TIP3    H137371   5.613   3.865   1.052
12476TIP3    H237372   5.555   3.931   0.929
12477TIP3   OH237373   6.125   6.680   6.741
12477TIP3    H137374   6.078   6.723   6.669
12477TIP3    H237375   6.056   6.643   6.795
12478TIP3   OH237376   4.758   1.394   1.193
12478TIP3    H137377   4.764   1.390   1.288
12478TIP3    H237378   4.773   1.487   1.172
12479TIP3   OH237379   0.291   1.369   0.977
12479TIP3    H137380   0.333   1.434   1.033
12479TIP3    H237381   0.197   1.378   0.997
12480TIP3   OH237382   3.113   1.870   2.571
12480TIP3    H137383   3.080   1.923   2.642
12480TIP3    H237384   3.202   1.902   2.556
12481TIP3   OH237385   8.063   3.617   4.242
12481TIP3    H137386   7.993   3.558   4.269
12481TIP3    H237387   8.123   3.620   4.316
12482TIP3   OH237388   2.402   3.364   3.815
12482TIP3    H137389   2.311   3.347   3.837
12482TIP3    H237390   2.426   3.293   3.755
12483TIP3   OH237391   7.171   7.322   5.667
12483TIP3    H137392   7.151   7.267   5.592
12483TIP3    H237393   7.203   7.404   5.629
12484TIP3   OH237394   0.048   2.620   2.268
12484TIP3    H137395   0.051   2.689   2.202
12484TIP3    H237396   0.131   2.575   2.259
12485TIP3   OH237397   1.505   5.674   6.677
12485TIP3    H137398   1.459   5.707   6.755
12485TIP3    H237399   1.457   5.712   6.603
12486TIP3   OH237400   4.360   7.721   3.177
12486TIP3    H137401   4.334   7.630   3.161
12486TIP3    H237402   4.446   7.729   3.137
12487TIP3   OH237403   4.018   2.991   2.407
12487TIP3    H137404   3.974   2.920   2.453
12487TIP3    H237405   4.090   3.016   2.465
12488TIP3   OH237406   0.812   2.754   6.006
12488TIP3    H137407   0.903   2.728   6.016
12488TIP3    H237408   0.784   2.712   5.925
12489TIP3   OH237409   7.524   7.019   6.576
12489TIP3    H137410   7.448   6.982   6.621
12489TIP3    H237411   7.521   6.981   6.488
12490TIP3   OH237412   6.517   3.512   2.068
12490TIP3    H137413   6.541   3.422   2.092
12490TIP3    H237414   6.439   3.531   2.121
12491TIP3   OH237415   8.095   2.755   6.541
12491TIP3    H137416   8.075   2.749   6.448
12491TIP3    H237417   8.161   2.687   6.556
12492TIP3   OH237418   1.526   3.065   4.530
12492TIP3    H137419   1.503   2.982   4.488
12492TIP3    H237420   1.442   3.110   4.541
12493TIP3   OH237421   3.560   7.266   1.545
12493TIP3    H137422   3.615   7.264   1.467
12493TIP3    H237423   3.474   7.291   1.514
12494TIP3   OH237424   1.613   6.123   3.566
12494TIP3    H137425   1.577   6.211   3.575
12494TIP3    H237426   1.703   6.137   3.537
12495TIP3   OH237427   2.760   3.174   0.618
12495TIP3    H137428   2.842   3.131   0.592
12495TIP3    H237429   2.788   3.260   0.652
12496TIP3   OH237430   5.676   5.513   3.137
12496TIP3    H137431   5.603   5.526   3.198
12496TIP3    H237432   5.741   5.577   3.165
12497TIP3   OH237433   6.666   3.011   4.532
12497TIP3    H137434   6.679   3.104   4.549
12497TIP3    H237435   6.693   2.998   4.441
12498TIP3   OH237436   1.321   0.378   3.230
12498TIP3    H137437   1.401   0.338   3.262
12498TIP3    H237438   1.348   0.431   3.154
12499TIP3   OH237439   1.820   5.783   2.104
12499TIP3    H137440   1.800   5.834   2.025
12499TIP3    H237441   1.735   5.769   2.146
12500TIP3   OH237442   2.961   4.606   5.549
12500TIP3    H137443   2.952   4.699   5.529
12500TIP3    H237444   2.929   4.562   5.471
12501TIP3   OH237445   2.551   3.244   0.114
12501TIP3    H137446   2.543   3.326   0.066
12501TIP3    H237447   2.613   3.264   0.185
12502TIP3   OH237448   4.901   4.806   1.986
12502TIP3    H137449   4.885   4.794   1.892
12502TIP3    H237450   4.983   4.855   1.990
12503TIP3   OH237451   4.509   0.287   5.064
12503TIP3    H137452   4.489   0.381   5.065
12503TIP3    H237453   4.516   0.266   4.971
12504TIP3   OH237454   1.683   1.052   4.321
12504TIP3    H137455   1.619   0.992   4.358
12504TIP3    H237456   1.689   1.026   4.229
12505TIP3   OH237457   7.339   5.485   6.752
12505TIP3    H137458   7.372   5.560   6.703
12505TIP3    H237459   7.244   5.491   6.744
12506TIP3   OH237460   0.802   1.483   2.641
12506TIP3    H137461   0.762   1.455   2.724
12506TIP3    H237462   0.889   1.513   2.666
12507TIP3   OH237463   7.309   3.380   1.063
12507TIP3    H137464   7.314   3.407   0.972
12507TIP3    H237465   7.219   3.347   1.073
12508TIP3   OH237466   2.361   0.830   4.364
12508TIP3    H137467   2.432   0.851   4.303
12508TIP3    H237468   2.288   0.803   4.309
12509TIP3   OH237469   5.060   4.007   0.604
12509TIP3    H137470   5.034   4.046   0.521
12509TIP3    H237471   4.986   4.022   0.663
12510TIP3   OH237472   6.152   7.234   3.667
12510TIP3    H137473   6.122   7.208   3.580
12510TIP3    H237474   6.247   7.234   3.660
12511TIP3   OH237475   1.453   4.478   2.884
12511TIP3    H137476   1.415   4.546   2.939
12511TIP3    H237477   1.381   4.451   2.827
12512TIP3   OH237478   2.661   4.616   2.139
12512TIP3    H137479   2.598   4.556   2.179
12512TIP3    H237480   2.745   4.589   2.175
12513TIP3   OH237481   5.803   2.857   2.279
12513TIP3    H137482   5.870   2.924   2.263
12513TIP3    H237483   5.739   2.871   2.209
12514TIP3   OH237484   4.473   1.347   1.186
12514TIP3    H137485   4.471   1.271   1.128
12514TIP3    H237486   4.565   1.375   1.187
12515TIP3   OH237487   2.581   2.193   2.928
12515TIP3    H137488   2.547   2.237   2.851
12515TIP3    H237489   2.508   2.139   2.959
12516TIP3   OH237490   5.855   7.032   3.934
12516TIP3    H137491   5.819   6.945   3.917
12516TIP3    H237492   5.905   7.022   4.015
12517TIP3   OH237493   7.769   1.955   0.465
12517TIP3    H137494   7.711   1.903   0.410
12517TIP3    H237495   7.721   2.036   0.483
12518TIP3   OH237496   0.086   4.160   1.575
12518TIP3    H137497   0.137   4.175   1.655
12518TIP3    H237498   0.151   4.160   1.505
12519TIP3   OH237499   6.034   1.815   5.187
12519TIP3    H137500   6.028   1.906   5.215
12519TIP3    H237501   5.956   1.773   5.222
12520TIP3   OH237502   6.999   3.313   4.754
12520TIP3    H137503   7.025   3.221   4.749
12520TIP3    H237504   7.045   3.347   4.831
12521TIP3   OH237505   7.660   3.614   2.613
12521TIP3    H137506   7.623   3.682   2.670
12521TIP3    H237507   7.752   3.638   2.605
12522TIP3   OH237508   5.423   0.656   0.717
12522TIP3    H137509   5.371   0.618   0.789
12522TIP3    H237510   5.501   0.600   0.712
12523TIP3   OH237511   1.192   0.870   3.725
12523TIP3    H137512   1.150   0.910   3.801
12523TIP3    H237513   1.206   0.779   3.751
12524TIP3   OH237514   0.659   5.523   2.857
12524TIP3    H137515   0.674   5.594   2.794
12524TIP3    H237516   0.577   5.546   2.899
12525TIP3   OH237517   1.129   4.583   3.732
12525TIP3    H137518   1.217   4.580   3.771
12525TIP3    H237519   1.131   4.658   3.673
12526TIP3   OH237520   0.797   5.198   0.406
12526TIP3    H137521   0.787   5.291   0.387
12526TIP3    H237522   0.892   5.186   0.415
12527TIP3   OH237523   4.714   1.332   3.824
12527TIP3    H137524   4.662   1.395   3.775
12527TIP3    H237525   4.789   1.383   3.856
12528TIP3   OH237526   1.219   2.844   6.535
12528TIP3    H137527   1.225   2.751   6.515
12528TIP3    H237528   1.181   2.883   6.457
12529TIP3   OH237529   3.891   6.073   4.473
12529TIP3    H137530   3.802   6.060   4.439
12529TIP3    H237531   3.945   6.014   4.421
12530TIP3   OH237532   1.103   5.303   4.990
12530TIP3    H137533   1.062   5.389   4.992
12530TIP3    H237534   1.176   5.310   5.052
12531TIP3   OH237535   6.339   7.609   5.460
12531TIP3    H137536   6.358   7.699   5.488
12531TIP3    H237537   6.412   7.585   5.403
12532TIP3   OH237538   7.448   2.031   5.063
12532TIP3    H137539   7.374   2.002   5.009
12532TIP3    H237540   7.505   1.954   5.067
12533TIP3   OH237541   2.314   5.611   3.708
12533TIP3    H137542   2.267   5.632   3.627
12533TIP3    H237543   2.373   5.539   3.684
12534TIP3   OH237544   8.185   5.495   3.135
12534TIP3    H137545   8.103   5.447   3.138
12534TIP3    H237546   8.224   5.481   3.221
12535TIP3   OH237547   5.665   1.868   5.015
12535TIP3    H137548   5.630   1.955   4.998
12535TIP3    H237549   5.609   1.832   5.084
12536TIP3   OH237550   1.172   3.031   0.188
12536TIP3    H137551   1.138   3.121   0.181
12536TIP3    H237552   1.183   3.003   0.097
12537TIP3   OH237553   3.914   2.641   4.786
12537TIP3    H137554   3.917   2.550   4.757
12537TIP3    H237555   3.824   2.669   4.771
12538TIP3   OH237556   0.905   0.268   2.725
12538TIP3    H137557   0.998   0.279   2.748
12538TIP3    H237558   0.890   0.332   2.655
12539TIP3   OH237559   2.361   6.688   1.763
12539TIP3    H137560   2.440   6.709   1.714
12539TIP3    H237561   2.296   6.750   1.730
12540TIP3   OH237562   4.087   2.069   5.235
12540TIP3    H137563   4.080   2.088   5.329
12540TIP3    H237564   4.130   1.984   5.231
12541TIP3   OH237565   2.043   3.650   2.235
12541TIP3    H137566   1.999   3.578   2.280
12541TIP3    H237567   2.097   3.608   2.168
12542TIP3   OH237568   2.891   1.074   4.620
12542TIP3    H137569   2.852   1.083   4.707
12542TIP3    H237570   2.980   1.043   4.636
12543TIP3   OH237571   4.823   1.984   5.317
12543TIP3    H137572   4.740   1.970   5.272
12543TIP3    H237573   4.800   1.988   5.409
12544TIP3   OH237574   0.930   0.681   5.267
12544TIP3    H137575   0.880   0.607   5.300
12544TIP3    H237576   1.011   0.680   5.318
12545TIP3   OH237577   0.494   6.394   0.784
12545TIP3    H137578   0.463   6.420   0.871
12545TIP3    H237579   0.415   6.381   0.732
12546TIP3   OH237580   0.281   3.295   5.763
12546TIP3    H137581   0.264   3.212   5.720
12546TIP3    H237582   0.370   3.318   5.738
12547TIP3   OH237583   1.738   7.445   3.510
12547TIP3    H137584   1.686   7.408   3.438
12547TIP3    H237585   1.825   7.407   3.498
12548TIP3   OH237586   4.670   1.115   2.620
12548TIP3    H137587   4.704   1.196   2.580
12548TIP3    H237588   4.716   1.109   2.704
12549TIP3   OH237589   0.462   4.835   5.251
12549TIP3    H137590   0.554   4.818   5.236
12549TIP3    H237591   0.442   4.911   5.197
12550TIP3   OH237592   7.214   6.367   6.534
12550TIP3    H137593   7.301   6.408   6.535
12550TIP3    H237594   7.232   6.273   6.538
12551TIP3   OH237595   7.118   7.713   1.355
12551TIP3    H137596   7.023   7.727   1.356
12551TIP3    H237597   7.131   7.641   1.294
12552TIP3   OH237598   0.705   1.369   2.893
12552TIP3    H137599   0.628   1.364   2.837
12552TIP3    H237600   0.685   1.312   2.967
12553TIP3   OH237601   5.472   4.944   2.833
12553TIP3    H137602   5.564   4.917   2.833
12553TIP3    H237603   5.444   4.934   2.924
12554TIP3   OH237604   5.823   2.412   2.623
12554TIP3    H137605   5.727   2.409   2.620
12554TIP3    H237606   5.849   2.433   2.534
12555TIP3   OH237607   7.133   1.992   6.571
12555TIP3    H137608   7.121   1.897   6.580
12555TIP3    H237609   7.062   2.030   6.622
12556TIP3   OH237610   2.606   1.881   5.988
12556TIP3    H137611   2.595   1.798   6.034
12556TIP3    H237612   2.698   1.905   6.002
12557TIP3   OH237613   5.518   4.359   6.574
12557TIP3    H137614   5.603   4.394   6.600
12557TIP3    H237615   5.524   4.347   6.480
12558TIP3   OH237616   2.010   3.233   5.935
12558TIP3    H137617   1.987   3.149   5.896
12558TIP3    H237618   1.964   3.298   5.882
12559TIP3   OH237619   4.586   2.606   1.297
12559TIP3    H137620   4.653   2.551   1.337
12559TIP3    H237621   4.620   2.695   1.305
12560TIP3   OH237622   6.839   5.839   5.115
12560TIP3    H137623   6.847   5.770   5.180
12560TIP3    H237624   6.921   5.835   5.065
12561TIP3   OH237625   6.384   7.522   2.213
12561TIP3    H137626   6.460   7.554   2.163
12561TIP3    H237627   6.308   7.550   2.161
12562TIP3   OH237628   5.650   1.965   4.483
12562TIP3    H137629   5.582   2.031   4.490
12562TIP3    H237630   5.726   2.012   4.450
12563TIP3   OH237631   0.677   3.949   1.376
12563TIP3    H137632   0.625   3.868   1.377
12563TIP3    H237633   0.765   3.920   1.352
12564TIP3   OH237634   2.489   2.346   5.601
12564TIP3    H137635   2.486   2.281   5.672
12564TIP3    H237636   2.415   2.324   5.545
12565TIP3   OH237637   5.593   1.273   5.134
12565TIP3    H137638   5.687   1.261   5.119
12565TIP3    H237639   5.571   1.353   5.087
12566TIP3   OH237640   3.470   4.954   4.307
12566TIP3    H137641   3.442   4.898   4.235
12566TIP3    H237642   3.566   4.951   4.305
12567TIP3   OH237643   8.154   6.777   4.122
12567TIP3    H137644   8.202   6.722   4.060
12567TIP3    H237645   8.128   6.717   4.192
12568TIP3   OH237646   2.759   4.989   4.991
12568TIP3    H137647   2.801   4.912   5.030
12568TIP3    H237648   2.798   5.063   5.037
12569TIP3   OH237649   1.673   4.799   5.349
12569TIP3    H137650   1.765   4.774   5.350
12569TIP3    H237651   1.625   4.715   5.346
12570TIP3   OH237652   5.671   7.693   0.517
12570TIP3    H137653   5.603   7.731   0.573
12570TIP3    H237654   5.726   7.768   0.493
12571TIP3   OH237655   5.878   1.765   3.814
12571TIP3    H137656   5.959   1.716   3.826
12571TIP3    H237657   5.838   1.768   3.901
12572TIP3   OH237658   5.563   0.172   6.584
12572TIP3    H137659   5.630   0.230   6.621
12572TIP3    H237660   5.493   0.172   6.650
12573TIP3   OH237661   4.066   4.775   1.131
12573TIP3    H137662   4.032   4.693   1.169
12573TIP3    H237663   4.080   4.832   1.207
12574TIP3   OH237664   2.883   6.518   4.513
12574TIP3    H137665   2.920   6.602   4.488
12574TIP3    H237666   2.794   6.519   4.477
12575TIP3   OH237667   4.934   1.795   3.340
12575TIP3    H137668   4.965   1.804   3.430
12575TIP3    H237669   4.933   1.884   3.305
12576TIP3   OH237670   0.308   1.030   0.415
12576TIP3    H137671   0.333   1.016   0.323
12576TIP3    H237672   0.306   1.125   0.425
12577TIP3   OH237673   4.884   1.922   0.788
12577TIP3    H137674   4.805   1.867   0.794
12577TIP3    H237675   4.878   1.961   0.700
12578TIP3   OH237676   3.225   6.080   5.763
12578TIP3    H137677   3.193   6.072   5.853
12578TIP3    H237678   3.148   6.103   5.712
12579TIP3   OH237679   4.401   4.313   4.803
12579TIP3    H137680   4.472   4.253   4.781
12579TIP3    H237681   4.349   4.267   4.869
12580TIP3   OH237682   2.087   2.099   5.530
12580TIP3    H137683   2.118   2.013   5.556
12580TIP3    H237684   1.998   2.084   5.498
12581TIP3   OH237685   2.483   3.870   3.765
12581TIP3    H137686   2.497   3.794   3.708
12581TIP3    H237687   2.572   3.899   3.788
12582TIP3   OH237688   8.118   6.464   1.268
12582TIP3    H137689   8.115   6.463   1.363
12582TIP3    H237690   8.128   6.557   1.245
12583TIP3   OH237691   1.190   5.319   6.757
12583TIP3    H137692   1.124   5.387   6.745
12583TIP3    H237693   1.165   5.251   6.694
12584TIP3   OH237694   3.433   7.304   3.364
12584TIP3    H137695   3.362   7.360   3.394
12584TIP3    H237696   3.509   7.330   3.416
12585TIP3   OH237697   3.762   1.021   6.688
12585TIP3    H137698   3.820   0.946   6.702
12585TIP3    H237699   3.804   1.072   6.619
12586TIP3   OH237700   0.274   7.734   6.494
12586TIP3    H137701   0.289   7.777   6.410
12586TIP3    H237702   0.248   7.645   6.471
12587TIP3   OH237703   8.284   6.322   2.876
12587TIP3    H137704   8.250   6.294   2.961
12587TIP3    H237705   8.227   6.280   2.812
12588TIP3   OH237706   1.882   5.245   0.023
12588TIP3    H137707   1.809   5.190   0.051
12588TIP3    H237708   1.933   5.260   0.102
12589TIP3   OH237709   0.469   4.921   0.105
12589TIP3    H137710   0.447   4.961   0.021
12589TIP3    H237711   0.520   4.988   0.151
12590TIP3   OH237712   6.071   0.799   2.198
12590TIP3    H137713   6.118   0.787   2.281
12590TIP3    H237714   6.099   0.726   2.143
12591TIP3   OH237715   4.046   5.807   1.483
12591TIP3    H137716   4.066   5.785   1.392
12591TIP3    H237717   3.990   5.735   1.513
12592TIP3   OH237718   7.898   5.732   5.029
12592TIP3    H137719   7.824   5.693   5.076
12592TIP3    H237720   7.972   5.674   5.049
12593TIP3   OH237721   4.795   1.104   2.876
12593TIP3    H137722   4.824   1.183   2.922
12593TIP3    H237723   4.722   1.071   2.929
12594TIP3   OH237724   1.956   1.641   1.387
12594TIP3    H137725   1.989   1.554   1.409
12594TIP3    H237726   2.020   1.702   1.423
12595TIP3   OH237727   7.991   7.616   6.680
12595TIP3    H137728   7.912   7.563   6.674
12595TIP3    H237729   7.990   7.652   6.769
12596TIP3   OH237730   5.448   4.721   1.370
12596TIP3    H137731   5.523   4.780   1.366
12596TIP3    H237732   5.374   4.777   1.393
12597TIP3   OH237733   4.163   5.027   1.240
12597TIP3    H137734   4.168   5.109   1.190
12597TIP3    H237735   4.220   4.967   1.192
12598TIP3   OH237736   5.673   6.190   6.329
12598TIP3    H137737   5.611   6.246   6.283
12598TIP3    H237738   5.631   6.105   6.333
12599TIP3   OH237739   2.805   1.329   3.861
12599TIP3    H137740   2.851   1.358   3.782
12599TIP3    H237741   2.753   1.405   3.887
12600TIP3   OH237742   6.185   7.807   3.528
12600TIP3    H137743   6.208   7.851   3.446
12600TIP3    H237744   6.097   7.840   3.549
12601TIP3   OH237745   2.196   6.696   2.281
12601TIP3    H137746   2.102   6.699   2.300
12601TIP3    H237747   2.217   6.602   2.279
12602TIP3   OH237748   2.065   3.154   4.333
12602TIP3    H137749   2.090   3.115   4.250
12602TIP3    H237750   1.994   3.215   4.311
12603TIP3   OH237751   2.208   3.073   2.302
12603TIP3    H137752   2.296   3.039   2.317
12603TIP3    H237753   2.217   3.168   2.315
12604TIP3   OH237754   3.838   7.028   3.782
12604TIP3    H137755   3.840   6.987   3.695
12604TIP3    H237756   3.751   7.010   3.816
12605TIP3   OH237757   5.001   5.065   2.240
12605TIP3    H137758   4.936   5.102   2.181
12605TIP3    H237759   5.012   5.130   2.309
12606TIP3   OH237760   5.976   3.479   0.908
12606TIP3    H137761   5.946   3.570   0.917
12606TIP3    H237762   6.038   3.467   0.979
12607TIP3   OH237763   1.147   0.267   1.628
12607TIP3    H137764   1.196   0.265   1.710
12607TIP3    H237765   1.081   0.336   1.642
12608TIP3   OH237766   6.718   3.014   0.856
12608TIP3    H137767   6.688   2.965   0.779
12608TIP3    H237768   6.807   2.982   0.872
12609TIP3   OH237769   5.763   1.172   1.483
12609TIP3    H137770   5.742   1.161   1.576
12609TIP3    H237771   5.848   1.130   1.472
12610TIP3   OH237772   5.911   3.084   5.791
12610TIP3    H137773   5.955   3.103   5.708
12610TIP3    H237774   5.979   3.042   5.844
12611TIP3   OH237775   3.020   3.623   5.499
12611TIP3    H137776   3.045   3.557   5.434
12611TIP3    H237777   3.098   3.678   5.508
12612TIP3   OH237778   4.380   3.673   4.735
12612TIP3    H137779   4.376   3.610   4.663
12612TIP3    H237780   4.310   3.644   4.795
12613TIP3   OH237781   0.332   0.680   4.690
12613TIP3    H137782   0.260   0.707   4.633
12613TIP3    H237783   0.301   0.599   4.732
12614TIP3   OH237784   0.912   6.793   5.927
12614TIP3    H137785   0.896   6.760   5.839
12614TIP3    H237786   0.979   6.734   5.963
12615TIP3   OH237787   0.565   0.352   5.349
12615TIP3    H137788   0.609   0.267   5.358
12615TIP3    H237789   0.553   0.363   5.255
12616TIP3   OH237790   6.394   5.569   6.593
12616TIP3    H137791   6.476   5.522   6.602
12616TIP3    H237792   6.390   5.628   6.668
12617TIP3   OH237793   1.982   3.478   5.542
12617TIP3    H137794   2.033   3.404   5.509
12617TIP3    H237795   1.893   3.460   5.512
12618TIP3   OH237796   5.501   2.663   1.436
12618TIP3    H137797   5.533   2.580   1.473
12618TIP3    H237798   5.471   2.713   1.512
12619TIP3   OH237799   5.917   2.475   4.101
12619TIP3    H137800   5.946   2.567   4.101
12619TIP3    H237801   5.988   2.427   4.060
12620TIP3   OH237802   6.658   5.258   3.296
12620TIP3    H137803   6.641   5.321   3.226
12620TIP3    H237804   6.656   5.172   3.252
12621TIP3   OH237805   7.799   2.384   3.807
12621TIP3    H137806   7.886   2.417   3.786
12621TIP3    H237807   7.763   2.447   3.869
12622TIP3   OH237808   0.026   3.428   6.328
12622TIP3    H137809   0.118   3.404   6.317
12622TIP3    H237810  -0.020   3.376   6.262
12623TIP3   OH237811   0.404   5.111   6.355
12623TIP3    H137812   0.476   5.050   6.375
12623TIP3    H237813   0.426   5.147   6.269
12624TIP3   OH237814   2.610   6.546   2.684
12624TIP3    H137815   2.520   6.575   2.701
12624TIP3    H237816   2.614   6.458   2.722
12625TIP3   OH237817   3.563   4.002   1.647
12625TIP3    H137818   3.510   4.046   1.714
12625TIP3    H237819   3.653   4.021   1.671
12626TIP3   OH237820   4.788   1.617   0.865
12626TIP3    H137821   4.707   1.566   0.858
12626TIP3    H237822   4.841   1.587   0.790
12627TIP3   OH237823   1.131   1.071   4.355
12627TIP3    H137824   1.114   1.116   4.438
12627TIP3    H237825   1.087   1.125   4.290
12628TIP3   OH237826   7.338   3.019   1.828
12628TIP3    H137827   7.423   3.004   1.869
12628TIP3    H237828   7.275   3.012   1.901
12629TIP3   OH237829   5.108   5.076   4.307
12629TIP3    H137830   5.055   5.056   4.384
12629TIP3    H237831   5.043   5.093   4.238
12630TIP3   OH237832   0.884   2.036   1.196
12630TIP3    H137833   0.964   1.987   1.216
12630TIP3    H237834   0.857   2.005   1.110
12631TIP3   OH237835   2.265   3.963   1.738
12631TIP3    H137836   2.332   3.926   1.680
12631TIP3    H237837   2.313   4.027   1.790
12632TIP3   OH237838   5.760   7.628   0.135
12632TIP3    H137839   5.765   7.545   0.181
12632TIP3    H237840   5.679   7.622   0.083
12633TIP3   OH237841   4.120   2.921   6.189
12633TIP3    H137842   4.161   2.895   6.271
12633TIP3    H237843   4.097   3.013   6.202
12634TIP3   OH237844   3.725   6.419   0.107
12634TIP3    H137845   3.712   6.389   0.016
12634TIP3    H237846   3.800   6.477   0.103
12635TIP3   OH237847   3.096   6.533   3.294
12635TIP3    H137848   3.015   6.503   3.335
12635TIP3    H237849   3.162   6.525   3.363
12636TIP3   OH237850   0.146   5.957   2.408
12636TIP3    H137851   0.229   5.978   2.451
12636TIP3    H237852   0.093   5.916   2.476
12637TIP3   OH237853   7.031   1.780   4.269
12637TIP3    H137854   7.062   1.855   4.319
12637TIP3    H237855   6.968   1.816   4.207
12638TIP3   OH237856   6.383   7.357   1.937
12638TIP3    H137857   6.395   7.452   1.937
12638TIP3    H237858   6.311   7.342   1.877
12639TIP3   OH237859   4.740   5.679   2.508
12639TIP3    H137860   4.710   5.595   2.543
12639TIP3    H237861   4.676   5.743   2.539
12640TIP3   OH237862   1.354   5.699   6.434
12640TIP3    H137863   1.397   5.746   6.363
12640TIP3    H237864   1.261   5.719   6.423
12641TIP3   OH237865   7.512   0.265   2.195
12641TIP3    H137866   7.467   0.247   2.112
12641TIP3    H237867   7.592   0.213   2.190
12642TIP3   OH237868   0.314   5.307   4.054
12642TIP3    H137869   0.391   5.270   4.097
12642TIP3    H237870   0.335   5.400   4.042
12643TIP3   OH237871   2.573   4.190   0.673
12643TIP3    H137872   2.661   4.213   0.646
12643TIP3    H237873   2.516   4.249   0.623
12644TIP3   OH237874   7.995   0.318   5.165
12644TIP3    H137875   8.026   0.292   5.078
12644TIP3    H237876   7.956   0.404   5.153
12645TIP3   OH237877   7.443   2.585   4.895
12645TIP3    H137878   7.471   2.512   4.950
12645TIP3    H237879   7.392   2.641   4.953
12646TIP3   OH237880   3.836   3.238   1.651
12646TIP3    H137881   3.826   3.144   1.665
12646TIP3    H237882   3.921   3.260   1.689
12647TIP3   OH237883   8.062   5.529   5.107
12647TIP3    H137884   7.997   5.499   5.045
12647TIP3    H237885   8.142   5.481   5.084
12648TIP3   OH237886   1.836   0.449   3.428
12648TIP3    H137887   1.789   0.402   3.360
12648TIP3    H237888   1.824   0.542   3.405
12649TIP3   OH237889   3.579   7.730   3.729
12649TIP3    H137890   3.564   7.693   3.641
12649TIP3    H237891   3.593   7.654   3.785
12650TIP3   OH237892   7.921   7.790   1.832
12650TIP3    H137893   7.974   7.726   1.880
12650TIP3    H237894   7.884   7.846   1.899
12651TIP3   OH237895   4.322   7.140   4.405
12651TIP3    H137896   4.248   7.195   4.431
12651TIP3    H237897   4.283   7.054   4.388
12652TIP3   OH237898   3.090   0.819   2.805
12652TIP3    H137899   3.072   0.837   2.897
12652TIP3    H237900   3.174   0.862   2.788
12653TIP3   OH237901   0.263   6.963   2.408
12653TIP3    H137902   0.222   6.986   2.324
12653TIP3    H237903   0.347   6.924   2.383
12654TIP3   OH237904   4.080   5.954   1.719
12654TIP3    H137905   4.153   5.929   1.776
12654TIP3    H237906   4.078   5.886   1.651
12655TIP3   OH237907   6.738   5.474   5.897
12655TIP3    H137908   6.697   5.556   5.870
12655TIP3    H237909   6.708   5.461   5.987
12656TIP3   OH237910   8.053   4.172   2.867
12656TIP3    H137911   8.104   4.092   2.877
12656TIP3    H237912   8.063   4.217   2.951
12657TIP3   OH237913   4.644   3.448   6.495
12657TIP3    H137914   4.709   3.485   6.554
12657TIP3    H237915   4.681   3.363   6.470
12658TIP3   OH237916   7.913   4.922   1.719
12658TIP3    H137917   7.968   4.886   1.789
12658TIP3    H237918   7.969   4.987   1.676
12659TIP3   OH237919   1.957   3.117   0.892
12659TIP3    H137920   2.035   3.169   0.875
12659TIP3    H237921   1.898   3.137   0.819
12660TIP3   OH237922   7.457   7.126   1.575
12660TIP3    H137923   7.376   7.123   1.624
12660TIP3    H237924   7.434   7.173   1.494
12661TIP3   OH237925   0.471   3.287   0.811
12661TIP3    H137926   0.398   3.247   0.859
12661TIP3    H237927   0.450   3.380   0.809
12662TIP3   OH237928   0.050   6.127   1.005
12662TIP3    H137929   0.121   6.102   1.064
12662TIP3    H237930   0.029   6.217   1.031
12663TIP3   OH237931   2.790   5.401   5.748
12663TIP3    H137932   2.717   5.454   5.781
12663TIP3    H237933   2.860   5.413   5.812
12664TIP3   OH237934   7.056   1.645   2.880
12664TIP3    H137935   7.065   1.603   2.965
12664TIP3    H237936   7.061   1.573   2.817
12665TIP3   OH237937   1.174   4.856   4.885
12665TIP3    H137938   1.247   4.819   4.837
12665TIP3    H237939   1.173   4.949   4.861
12666TIP3   OH237940   5.489   3.381   0.114
12666TIP3    H137941   5.574   3.373   0.157
12666TIP3    H237942   5.439   3.440   0.170
12667TIP3   OH237943   4.990   3.822   3.146
12667TIP3    H137944   5.072   3.871   3.142
12667TIP3    H237945   4.925   3.883   3.110
12668TIP3   OH237946   4.576   6.514   4.909
12668TIP3    H137947   4.659   6.546   4.872
12668TIP3    H237948   4.529   6.478   4.834
12669TIP3   OH237949   5.658   4.714   1.611
12669TIP3    H137950   5.581   4.658   1.609
12669TIP3    H237951   5.650   4.768   1.532
12670TIP3   OH237952   7.919   1.342   1.440
12670TIP3    H137953   7.889   1.297   1.361
12670TIP3    H237954   8.011   1.362   1.423
12671TIP3   OH237955   6.533   7.365   6.299
12671TIP3    H137956   6.550   7.438   6.238
12671TIP3    H237957   6.510   7.408   6.381
12672TIP3   OH237958   7.004   0.956   2.440
12672TIP3    H137959   6.996   0.994   2.528
12672TIP3    H237960   7.007   0.862   2.455
12673TIP3   OH237961   3.416   1.051   3.660
12673TIP3    H137962   3.385   1.001   3.735
12673TIP3    H237963   3.430   0.986   3.591
12674TIP3   OH237964   3.654   6.986   5.801
12674TIP3    H137965   3.589   7.013   5.737
12674TIP3    H237966   3.706   7.065   5.818
12675TIP3   OH237967   6.966   7.656   6.064
12675TIP3    H137968   6.889   7.663   6.007
12675TIP3    H237969   7.003   7.745   6.065
12676TIP3   OH237970   6.929   5.192   5.913
12676TIP3    H137971   6.864   5.223   5.851
12676TIP3    H237972   6.995   5.261   5.915
12677TIP3   OH237973   6.172   6.355   4.518
12677TIP3    H137974   6.156   6.449   4.512
12677TIP3    H237975   6.267   6.346   4.514
12678TIP3   OH237976   4.597   4.275   5.751
12678TIP3    H137977   4.523   4.256   5.694
12678TIP3    H237978   4.593   4.207   5.819
12679TIP3   OH237979   1.592   1.033   4.018
12679TIP3    H137980   1.516   1.085   4.045
12679TIP3    H237981   1.655   1.097   3.985
12680TIP3   OH237982   1.855   6.843   5.255
12680TIP3    H137983   1.866   6.787   5.178
12680TIP3    H237984   1.867   6.932   5.222
12681TIP3   OH237985   4.716   2.378   1.820
12681TIP3    H137986   4.742   2.470   1.814
12681TIP3    H237987   4.626   2.379   1.852
12682TIP3   OH237988   5.568   4.243   5.188
12682TIP3    H137989   5.591   4.335   5.182
12682TIP3    H237990   5.479   4.238   5.153
12683TIP3   OH237991   0.161   0.521   3.147
12683TIP3    H137992   0.080   0.554   3.108
12683TIP3    H237993   0.209   0.600   3.172
12684TIP3   OH237994   0.863   4.329   6.630
12684TIP3    H137995   0.917   4.254   6.658
12684TIP3    H237996   0.903   4.405   6.672
12685TIP3   OH237997   5.733   4.763   6.197
12685TIP3    H137998   5.785   4.838   6.224
12685TIP3    H237999   5.752   4.695   6.261
12686TIP3   OH238000   0.116   0.725   0.227
12686TIP3    H138001   0.033   0.738   0.274
12686TIP3    H238002   0.156   0.649   0.270
12687TIP3   OH238003   1.580   6.355   6.114
12687TIP3    H138004   1.620   6.380   6.031
12687TIP3    H238005   1.544   6.268   6.098
12688TIP3   OH238006   2.583   5.643   4.098
12688TIP3    H138007   2.536   5.673   4.176
12688TIP3    H238008   2.524   5.661   4.026
12689TIP3   OH238009   6.145   5.929   4.098
12689TIP3    H138010   6.097   5.892   4.024
12689TIP3    H238011   6.188   6.006   4.061
12690TIP3   OH238012   2.266   4.036   0.548
12690TIP3    H138013   2.360   4.032   0.533
12690TIP3    H238014   2.257   4.061   0.640
12691TIP3   OH238015   1.379   6.319   3.347
12691TIP3    H138016   1.370   6.259   3.273
12691TIP3    H238017   1.324   6.394   3.325
12692TIP3   OH238018   0.139   1.751   5.344
12692TIP3    H138019   0.212   1.721   5.398
12692TIP3    H238020   0.137   1.846   5.357
12693TIP3   OH238021   4.781   6.678   3.656
12693TIP3    H138022   4.809   6.765   3.628
12693TIP3    H238023   4.846   6.650   3.720
12694TIP3   OH238024   1.404   4.733   5.127
12694TIP3    H138025   1.330   4.789   5.149
12694TIP3    H238026   1.465   4.791   5.080
12695TIP3   OH238027   2.003   1.503   3.316
12695TIP3    H138028   1.918   1.547   3.312
12695TIP3    H238029   2.052   1.540   3.243
12696TIP3   OH238030   0.470   1.978   0.905
12696TIP3    H138031   0.408   2.016   0.843
12696TIP3    H238032   0.488   1.890   0.871
12697TIP3   OH238033   6.806   7.640   1.090
12697TIP3    H138034   6.729   7.635   1.146
12697TIP3    H238035   6.771   7.667   1.005
12698TIP3   OH238036   5.698   5.439   2.075
12698TIP3    H138037   5.740   5.483   2.149
12698TIP3    H238038   5.677   5.510   2.014
12699TIP3   OH238039   2.348   0.248   0.238
12699TIP3    H138040   2.360   0.166   0.286
12699TIP3    H238041   2.341   0.315   0.305
12700TIP3   OH238042   5.900   4.566   0.945
12700TIP3    H138043   5.939   4.652   0.932
12700TIP3    H238044   5.955   4.523   1.010
12701TIP3   OH238045   1.819   5.355   6.484
12701TIP3    H138046   1.913   5.365   6.470
12701TIP3    H238047   1.807   5.262   6.500
12702TIP3   OH238048   0.299   4.437   4.912
12702TIP3    H138049   0.286   4.431   4.817
12702TIP3    H238050   0.242   4.370   4.948
12703TIP3   OH238051   7.835   3.556   4.421
12703TIP3    H138052   7.894   3.569   4.495
12703TIP3    H238053   7.787   3.477   4.442
12704TIP3   OH238054   4.044   6.776   2.758
12704TIP3    H138055   4.018   6.734   2.840
12704TIP3    H238056   3.962   6.810   2.722
12705TIP3   OH238057   4.225   1.627   2.471
12705TIP3    H138058   4.225   1.652   2.564
12705TIP3    H238059   4.163   1.555   2.466
12706TIP3   OH238060   3.119   4.905   5.095
12706TIP3    H138061   3.141   4.897   5.002
12706TIP3    H238062   3.048   4.842   5.108
12707TIP3   OH238063   3.944   3.510   4.191
12707TIP3    H138064   3.875   3.479   4.250
12707TIP3    H238065   3.967   3.434   4.138
12708TIP3   OH238066   3.440   1.289   2.714
12708TIP3    H138067   3.477   1.281   2.802
12708TIP3    H238068   3.422   1.382   2.703
12709TIP3   OH238069   6.049   5.244   3.007
12709TIP3    H138070   5.964   5.201   3.018
12709TIP3    H238071   6.066   5.286   3.091
12710TIP3   OH238072   5.819   7.485   2.772
12710TIP3    H138073   5.886   7.478   2.839
12710TIP3    H238074   5.842   7.564   2.723
12711TIP3   OH238075   2.203   3.582   2.021
12711TIP3    H138076   2.258   3.525   1.967
12711TIP3    H238077   2.123   3.592   1.970
12712TIP3   OH238078   6.220   3.599   2.815
12712TIP3    H138079   6.138   3.646   2.830
12712TIP3    H238080   6.284   3.667   2.795
12713TIP3   OH238081   7.400   2.271   5.932
12713TIP3    H138082   7.472   2.335   5.930
12713TIP3    H238083   7.416   2.219   6.011
12714TIP3   OH238084   4.552   7.027   5.646
12714TIP3    H138085   4.538   6.933   5.656
12714TIP3    H238086   4.475   7.057   5.599
12715TIP3   OH238087   4.338   0.981   5.158
12715TIP3    H138088   4.304   1.034   5.086
12715TIP3    H238089   4.269   0.918   5.177
12716TIP3   OH238090   2.449   1.469   6.440
12716TIP3    H138091   2.420   1.555   6.470
12716TIP3    H238092   2.540   1.463   6.469
12717TIP3   OH238093   7.489   1.897   2.451
12717TIP3    H138094   7.560   1.903   2.388
12717TIP3    H238095   7.415   1.940   2.407
12718TIP3   OH238096   5.116   4.157   1.936
12718TIP3    H138097   5.098   4.162   1.842
12718TIP3    H238098   5.173   4.081   1.945
12719TIP3   OH238099   7.148   3.374   5.941
12719TIP3    H138100   7.076   3.411   5.993
12719TIP3    H238101   7.107   3.350   5.858
12720TIP3   OH238102   4.545   6.771   5.514
12720TIP3    H138103   4.638   6.788   5.500
12720TIP3    H238104   4.513   6.737   5.431
12721TIP3   OH238105   2.875   1.639   1.373
12721TIP3    H138106   2.886   1.648   1.279
12721TIP3    H238107   2.800   1.695   1.395
12722TIP3   OH238108   7.512   1.135   2.432
12722TIP3    H138109   7.449   1.066   2.414
12722TIP3    H238110   7.460   1.206   2.469
12723TIP3   OH238111   5.908   7.202   1.791
12723TIP3    H138112   5.842   7.213   1.859
12723TIP3    H238113   5.878   7.127   1.740
12724TIP3   OH238114   2.657   1.346   5.429
12724TIP3    H138115   2.688   1.260   5.401
12724TIP3    H238116   2.726   1.407   5.400
12725TIP3   OH238117   2.039   0.762   2.848
12725TIP3    H138118   2.045   0.795   2.937
12725TIP3    H238119   1.950   0.727   2.841
12726TIP3   OH238120   6.032   2.707   5.827
12726TIP3    H138121   6.040   2.740   5.737
12726TIP3    H238122   5.941   2.678   5.834
12727TIP3   OH238123   8.055   1.636   0.748
12727TIP3    H138124   7.985   1.695   0.719
12727TIP3    H238125   8.110   1.691   0.804
12728TIP3   OH238126   5.236   6.500   4.523
12728TIP3    H138127   5.300   6.430   4.529
12728TIP3    H238128   5.270   6.570   4.579
12729TIP3   OH238129   0.340   7.196   6.177
12729TIP3    H138130   0.253   7.217   6.212
12729TIP3    H238131   0.359   7.267   6.116
12730TIP3   OH238132   0.238   0.800   3.194
12730TIP3    H138133   0.268   0.828   3.281
12730TIP3    H238134   0.299   0.842   3.133
12731TIP3   OH238135   5.669   3.465   3.383
12731TIP3    H138136   5.635   3.385   3.341
12731TIP3    H238137   5.757   3.442   3.411
12732TIP3   OH238138   7.235   1.568   4.949
12732TIP3    H138139   7.270   1.637   4.893
12732TIP3    H238140   7.270   1.487   4.911
12733TIP3   OH238141   2.742   7.304   4.706
12733TIP3    H138142   2.768   7.395   4.695
12733TIP3    H238143   2.677   7.305   4.776
12734TIP3   OH238144   1.983   1.645   4.326
12734TIP3    H138145   2.075   1.628   4.310
12734TIP3    H238146   1.958   1.710   4.260
12735TIP3   OH238147   5.298   0.649   2.657
12735TIP3    H138148   5.339   0.673   2.740
12735TIP3    H238149   5.242   0.724   2.635
12736TIP3   OH238150   0.459   2.815   4.152
12736TIP3    H138151   0.505   2.873   4.091
12736TIP3    H238152   0.366   2.826   4.130
12737TIP3   OH238153   6.648   2.835   1.586
12737TIP3    H138154   6.552   2.830   1.580
12737TIP3    H238155   6.667   2.822   1.679
12738TIP3   OH238156   1.102   5.855   0.588
12738TIP3    H138157   1.068   5.798   0.657
12738TIP3    H238158   1.192   5.876   0.616
12739TIP3   OH238159   1.623   4.737   2.539
12739TIP3    H138160   1.702   4.685   2.523
12739TIP3    H238161   1.646   4.793   2.613
12740TIP3   OH238162   3.551   4.407   6.318
12740TIP3    H138163   3.468   4.369   6.288
12740TIP3    H238164   3.557   4.491   6.273
12741TIP3   OH238165   2.198   5.989   2.843
12741TIP3    H138166   2.249   5.908   2.836
12741TIP3    H238167   2.129   5.979   2.778
12742TIP3   OH238168   4.462   7.307   4.754
12742TIP3    H138169   4.556   7.316   4.770
12742TIP3    H238170   4.434   7.241   4.817
12743TIP3   OH238171   2.277   3.323   3.070
12743TIP3    H138172   2.369   3.295   3.071
12743TIP3    H238173   2.245   3.296   2.984
12744TIP3   OH238174   6.915   0.766   0.907
12744TIP3    H138175   6.865   0.689   0.932
12744TIP3    H238176   6.893   0.832   0.972
12745TIP3   OH238177   0.558   0.738   5.809
12745TIP3    H138178   0.566   0.740   5.905
12745TIP3    H238179   0.585   0.825   5.782
12746TIP3   OH238180   6.203   2.798   5.636
12746TIP3    H138181   6.281   2.743   5.643
12746TIP3    H238182   6.237   2.886   5.622
12747TIP3   OH238183   3.860   6.329   1.691
12747TIP3    H138184   3.863   6.245   1.645
12747TIP3    H238185   3.875   6.394   1.622
12748TIP3   OH238186   4.347   5.603   3.858
12748TIP3    H138187   4.279   5.542   3.886
12748TIP3    H238188   4.322   5.687   3.895
12749TIP3   OH238189   6.831   2.981   0.509
12749TIP3    H138190   6.798   3.053   0.455
12749TIP3    H238191   6.856   2.913   0.447
12750TIP3   OH238192   5.278   7.151   1.598
12750TIP3    H138193   5.284   7.082   1.664
12750TIP3    H238194   5.353   7.207   1.616
12751TIP3   OH238195   7.008   1.676   4.650
12751TIP3    H138196   6.969   1.751   4.605
12751TIP3    H238197   7.089   1.659   4.601
12752TIP3   OH238198   5.813   3.455   4.362
12752TIP3    H138199   5.839   3.390   4.297
12752TIP3    H238200   5.731   3.422   4.398
12753TIP3   OH238201   2.061   4.184   4.757
12753TIP3    H138202   2.055   4.253   4.691
12753TIP3    H238203   2.018   4.108   4.717
12754TIP3   OH238204   4.466   7.087   1.751
12754TIP3    H138205   4.541   7.113   1.697
12754TIP3    H238206   4.463   6.991   1.743
12755TIP3   OH238207   3.108   5.376   5.715
12755TIP3    H138208   3.150   5.454   5.679
12755TIP3    H238209   3.069   5.405   5.798
12756TIP3   OH238210   6.679   6.374   4.486
12756TIP3    H138211   6.642   6.289   4.510
12756TIP3    H238212   6.636   6.437   4.543
12757TIP3   OH238213   3.313   3.039   4.835
12757TIP3    H138214   3.355   3.082   4.909
12757TIP3    H238215   3.219   3.048   4.851
12758TIP3   OH238216   3.388   5.901   4.651
12758TIP3    H138217   3.364   5.985   4.692
12758TIP3    H238218   3.304   5.861   4.627
12759TIP3   OH238219   8.117   5.180   1.826
12759TIP3    H138220   8.155   5.114   1.768
12759TIP3    H238221   8.031   5.198   1.789
12760TIP3   OH238222   2.432   7.362   4.647
12760TIP3    H138223   2.399   7.443   4.686
12760TIP3    H238224   2.525   7.378   4.633
12761TIP3   OH238225   0.498   0.979   1.092
12761TIP3    H138226   0.561   1.031   1.042
12761TIP3    H238227   0.489   1.026   1.175
12762TIP3   OH238228   3.828   0.862   2.061
12762TIP3    H138229   3.888   0.830   1.993
12762TIP3    H238230   3.886   0.890   2.132
12763TIP3   OH238231   3.654   2.682   4.724
12763TIP3    H138232   3.584   2.743   4.749
12763TIP3    H238233   3.609   2.597   4.718
12764TIP3   OH238234   0.187   2.521   1.622
12764TIP3    H138235   0.196   2.453   1.689
12764TIP3    H238236   0.110   2.494   1.571
12765TIP3   OH238237   0.216   2.972   3.268
12765TIP3    H138238   0.270   2.939   3.196
12765TIP3    H238239   0.278   3.020   3.324
12766TIP3   OH238240   4.493   6.739   3.729
12766TIP3    H138241   4.437   6.684   3.674
12766TIP3    H238242   4.582   6.712   3.707
12767TIP3   OH238243   0.917   6.003   4.715
12767TIP3    H138244   0.831   5.984   4.752
12767TIP3    H238245   0.951   6.073   4.771
12768TIP3   OH238246   0.820   0.710   0.109
12768TIP3    H138247   0.809   0.660   0.189
12768TIP3    H238248   0.826   0.644   0.040
12769TIP3   OH238249   2.023   7.225   4.310
12769TIP3    H138250   1.952   7.290   4.316
12769TIP3    H238251   1.990   7.159   4.249
12770TIP3   OH238252   4.725   1.062   6.272
12770TIP3    H138253   4.689   1.004   6.340
12770TIP3    H238254   4.820   1.052   6.280
12771TIP3   OH238255   0.609   6.848   4.055
12771TIP3    H138256   0.673   6.915   4.077
12771TIP3    H238257   0.641   6.768   4.099
12772TIP3   OH238258   0.504   3.736   0.529
12772TIP3    H138259   0.533   3.803   0.591
12772TIP3    H238260   0.585   3.690   0.505
12773TIP3   OH238261   7.143   2.912   6.752
12773TIP3    H138262   7.207   2.965   6.800
12773TIP3    H238263   7.094   2.866   6.821
12774TIP3   OH238264   6.483   6.643   2.033
12774TIP3    H138265   6.409   6.685   1.989
12774TIP3    H238266   6.452   6.554   2.051
12775TIP3   OH238267   2.335   6.611   3.455
12775TIP3    H138268   2.245   6.615   3.423
12775TIP3    H238269   2.383   6.674   3.401
12776TIP3   OH238270   8.265   2.677   3.733
12776TIP3    H138271   8.297   2.616   3.666
12776TIP3    H238272   8.170   2.670   3.728
12777TIP3   OH238273   2.118   5.520   3.016
12777TIP3    H138274   2.211   5.534   3.001
12777TIP3    H238275   2.094   5.447   2.958
12778TIP3   OH238276   1.634   7.174   5.146
12778TIP3    H138277   1.560   7.234   5.145
12778TIP3    H238278   1.595   7.088   5.131
12779TIP3   OH238279   5.117   1.466   5.247
12779TIP3    H138280   5.080   1.456   5.335
12779TIP3    H238281   5.048   1.437   5.188
12780TIP3   OH238282   7.024   3.971   3.365
12780TIP3    H138283   6.943   3.934   3.331
12780TIP3    H238284   7.081   3.896   3.381
12781TIP3   OH238285   4.037   5.316   5.225
12781TIP3    H138286   4.126   5.283   5.242
12781TIP3    H238287   3.990   5.241   5.188
12782TIP3   OH238288   7.670   5.590   6.695
12782TIP3    H138289   7.653   5.500   6.724
12782TIP3    H238290   7.763   5.603   6.715
12783TIP3   OH238291   5.181   3.978   1.170
12783TIP3    H138292   5.118   3.932   1.115
12783TIP3    H238293   5.208   4.054   1.118
12784TIP3   OH238294   3.003   6.305   6.478
12784TIP3    H138295   2.943   6.308   6.404
12784TIP3    H238296   2.962   6.359   6.545
12785TIP3   OH238297   6.226   7.582   4.272
12785TIP3    H138298   6.160   7.650   4.259
12785TIP3    H238299   6.280   7.586   4.194
12786TIP3   OH238300   7.977   6.996   3.969
12786TIP3    H138301   8.030   6.930   4.014
12786TIP3    H238302   8.005   6.991   3.877
12787TIP3   OH238303   3.757   6.597   0.674
12787TIP3    H138304   3.752   6.597   0.770
12787TIP3    H238305   3.851   6.592   0.655
12788TIP3   OH238306   5.786   7.355   3.600
12788TIP3    H138307   5.787   7.330   3.693
12788TIP3    H238308   5.872   7.394   3.584
12789TIP3   OH238309   1.124   2.108   0.271
12789TIP3    H138310   1.139   2.111   0.365
12789TIP3    H238311   1.043   2.058   0.261
12790TIP3   OH238312   3.690   2.479   3.909
12790TIP3    H138313   3.736   2.396   3.896
12790TIP3    H238314   3.753   2.534   3.956
12791TIP3   OH238315   2.609   6.410   1.345
12791TIP3    H138316   2.699   6.378   1.337
12791TIP3    H238317   2.555   6.330   1.343
12792TIP3   OH238318   0.619   0.995   5.691
12792TIP3    H138319   0.530   1.024   5.672
12792TIP3    H238320   0.657   0.975   5.606
12793TIP3   OH238321   8.278   7.627   3.383
12793TIP3    H138322   8.325   7.551   3.417
12793TIP3    H238323   8.274   7.612   3.288
12794TIP3   OH238324   3.042   2.701   2.119
12794TIP3    H138325   3.021   2.699   2.212
12794TIP3    H238326   3.136   2.685   2.115
12795TIP3   OH238327   1.831   4.372   0.136
12795TIP3    H138328   1.801   4.333   0.217
12795TIP3    H238329   1.763   4.352   0.072
12796TIP3   OH238330   1.509   5.410   3.727
12796TIP3    H138331   1.485   5.425   3.818
12796TIP3    H238332   1.546   5.493   3.697
12797TIP3   OH238333   6.782   2.406   0.460
12797TIP3    H138334   6.704   2.389   0.407
12797TIP3    H238335   6.758   2.377   0.548
12798TIP3   OH238336   3.139   3.541   0.311
12798TIP3    H138337   3.180   3.578   0.389
12798TIP3    H238338   3.163   3.448   0.313
12799TIP3   OH238339   2.704   3.357   2.275
12799TIP3    H138340   2.678   3.387   2.362
12799TIP3    H238341   2.761   3.426   2.242
12800TIP3   OH238342   8.115   6.234   6.676
12800TIP3    H138343   8.207   6.209   6.666
12800TIP3    H238344   8.114   6.327   6.654
12801TIP3   OH238345   2.899   6.960   1.402
12801TIP3    H138346   2.824   6.997   1.356
12801TIP3    H238347   2.891   6.993   1.491
12802TIP3   OH238348   8.041   6.499   6.602
12802TIP3    H138349   8.054   6.563   6.673
12802TIP3    H238350   8.120   6.505   6.549
12803TIP3   OH238351   1.099   4.758   2.338
12803TIP3    H138352   1.103   4.852   2.321
12803TIP3    H238353   1.162   4.719   2.278
12804TIP3   OH238354   6.677   5.829   3.625
12804TIP3    H138355   6.706   5.765   3.561
12804TIP3    H238356   6.708   5.913   3.592
12805TIP3   OH238357   2.460   2.691   3.540
12805TIP3    H138358   2.509   2.748   3.479
12805TIP3    H238359   2.526   2.632   3.575
12806TIP3   OH238360   4.138   2.744   4.511
12806TIP3    H138361   4.148   2.674   4.447
12806TIP3    H238362   4.050   2.779   4.496
12807TIP3   OH238363   7.332   6.046   4.855
12807TIP3    H138364   7.397   6.085   4.914
12807TIP3    H238365   7.291   6.121   4.812
12808TIP3   OH238366   4.371   3.169   0.481
12808TIP3    H138367   4.313   3.124   0.419
12808TIP3    H238368   4.313   3.197   0.552
12809TIP3   OH238369   2.319   6.223   4.024
12809TIP3    H138370   2.388   6.275   4.065
12809TIP3    H238371   2.332   6.235   3.930
12810TIP3   OH238372   5.311   2.518   6.003
12810TIP3    H138373   5.372   2.452   5.971
12810TIP3    H238374   5.338   2.599   5.960
12811TIP3   OH238375   5.630   2.102   1.959
12811TIP3    H138376   5.564   2.034   1.973
12811TIP3    H238377   5.603   2.173   2.017
12812TIP3   OH238378   2.407   0.606   0.072
12812TIP3    H138379   2.482   0.577   0.124
12812TIP3    H238380   2.442   0.622  -0.015
12813TIP3   OH238381   6.012   4.276   2.707
12813TIP3    H138382   6.040   4.351   2.655
12813TIP3    H238383   6.068   4.278   2.784
12814TIP3   OH238384   1.780   4.984   0.619
12814TIP3    H138385   1.763   4.921   0.549
12814TIP3    H238386   1.872   5.007   0.608
12815TIP3   OH238387   1.617   6.606   3.394
12815TIP3    H138388   1.547   6.654   3.438
12815TIP3    H238389   1.636   6.532   3.452
12816TIP3   OH238390   6.308   0.435   6.575
12816TIP3    H138391   6.376   0.422   6.509
12816TIP3    H238392   6.341   0.506   6.630
12817TIP3   OH238393   1.858   2.466   5.601
12817TIP3    H138394   1.772   2.479   5.561
12817TIP3    H238395   1.846   2.487   5.693
12818TIP3   OH238396   3.440   0.643   1.599
12818TIP3    H138397   3.444   0.737   1.584
12818TIP3    H238398   3.352   0.617   1.573
12819TIP3   OH238399   6.320   4.427   6.619
12819TIP3    H138400   6.315   4.522   6.622
12819TIP3    H238401   6.252   4.397   6.678
12820TIP3   OH238402   2.144   4.664   1.257
12820TIP3    H138403   2.205   4.690   1.326
12820TIP3    H238404   2.134   4.570   1.268
12821TIP3   OH238405   5.639   2.866   5.285
12821TIP3    H138406   5.668   2.883   5.374
12821TIP3    H238407   5.635   2.952   5.244
12822TIP3   OH238408   2.035   2.106   5.084
12822TIP3    H138409   1.945   2.118   5.053
12822TIP3    H238410   2.037   2.153   5.168
12823TIP3   OH238411   6.019   6.951   1.972
12823TIP3    H138412   5.939   6.975   1.926
12823TIP3    H238413   6.025   6.856   1.962
12824TIP3   OH238414   7.943   0.374   2.833
12824TIP3    H138415   7.938   0.467   2.851
12824TIP3    H238416   7.962   0.334   2.918
12825TIP3   OH238417   4.767   4.035   6.348
12825TIP3    H138418   4.713   4.084   6.285
12825TIP3    H238419   4.731   4.058   6.434
12826TIP3   OH238420   7.391   1.998   4.534
12826TIP3    H138421   7.410   2.032   4.621
12826TIP3    H238422   7.300   1.967   4.539
12827TIP3   OH238423   5.503   5.030   2.277
12827TIP3    H138424   5.418   5.066   2.302
12827TIP3    H238425   5.482   4.946   2.237
12828TIP3   OH238426   5.803   3.290   6.080
12828TIP3    H138427   5.812   3.203   6.120
12828TIP3    H238428   5.710   3.298   6.061
12829TIP3   OH238429   0.775   0.810   1.048
12829TIP3    H138430   0.687   0.820   1.086
12829TIP3    H238431   0.834   0.822   1.123
12830TIP3   OH238432   7.304   4.345   0.940
12830TIP3    H138433   7.353   4.268   0.967
12830TIP3    H238434   7.283   4.329   0.848
12831TIP3   OH238435   2.061   0.156   0.358
12831TIP3    H138436   2.039   0.209   0.281
12831TIP3    H238437   1.977   0.119   0.386
12832TIP3   OH238438   0.456   3.076   5.624
12832TIP3    H138439   0.467   3.086   5.529
12832TIP3    H238440   0.540   3.041   5.654
12833TIP3   OH238441   6.031   2.138   5.618
12833TIP3    H138442   6.047   2.231   5.631
12833TIP3    H238443   5.960   2.134   5.554
12834TIP3   OH238444   7.034   4.578   5.662
12834TIP3    H138445   7.053   4.622   5.579
12834TIP3    H238446   6.940   4.590   5.674
12835TIP3   OH238447   6.399   3.761   2.411
12835TIP3    H138448   6.375   3.671   2.431
12835TIP3    H238449   6.481   3.754   2.363
12836TIP3   OH238450   3.310   5.642   5.638
12836TIP3    H138451   3.266   5.636   5.554
12836TIP3    H238452   3.363   5.562   5.644
12837TIP3   OH238453   3.617   1.352   2.326
12837TIP3    H138454   3.557   1.426   2.334
12837TIP3    H238455   3.614   1.308   2.411
12838TIP3   OH238456   1.680   1.082   6.621
12838TIP3    H138457   1.597   1.125   6.637
12838TIP3    H238458   1.734   1.148   6.576
12839TIP3   OH238459   3.259   2.082   2.876
12839TIP3    H138460   3.272   2.173   2.904
12839TIP3    H238461   3.344   2.041   2.889
12840TIP3   OH238462   5.185   1.043   6.653
12840TIP3    H138463   5.262   1.098   6.670
12840TIP3    H238464   5.165   1.003   6.737
12841TIP3   OH238465   5.873   1.583   1.847
12841TIP3    H138466   5.910   1.512   1.794
12841TIP3    H238467   5.925   1.582   1.928
12842TIP3   OH238468   3.342   5.902   2.478
12842TIP3    H138469   3.433   5.929   2.495
12842TIP3    H238470   3.347   5.806   2.473
12843TIP3   OH238471   2.552   1.017   6.529
12843TIP3    H138472   2.586   1.099   6.491
12843TIP3    H238473   2.601   1.007   6.611
12844TIP3   OH238474   2.286   0.574   4.045
12844TIP3    H138475   2.241   0.619   3.973
12844TIP3    H238476   2.379   0.595   4.031
12845TIP3   OH238477   0.190   1.309   3.201
12845TIP3    H138478   0.222   1.395   3.174
12845TIP3    H238479   0.246   1.247   3.153
12846TIP3   OH238480   3.085   4.539   6.534
12846TIP3    H138481   3.156   4.510   6.591
12846TIP3    H238482   3.010   4.552   6.594
12847TIP3   OH238483   0.433   7.528   3.921
12847TIP3    H138484   0.491   7.570   3.984
12847TIP3    H238485   0.457   7.435   3.926
12848TIP3   OH238486   2.953   1.807   4.380
12848TIP3    H138487   3.031   1.777   4.428
12848TIP3    H238488   2.886   1.743   4.404
12849TIP3   OH238489   6.978   7.680   0.639
12849TIP3    H138490   6.890   7.679   0.679
12849TIP3    H238491   7.037   7.669   0.713
12850TIP3   OH238492   4.388   5.860   3.123
12850TIP3    H138493   4.408   5.846   3.216
12850TIP3    H238494   4.293   5.850   3.117
12851TIP3   OH238495   4.501   2.120   6.669
12851TIP3    H138496   4.482   2.210   6.696
12851TIP3    H238497   4.444   2.106   6.594
12852TIP3   OH238498   5.520   5.340   5.404
12852TIP3    H138499   5.576   5.358   5.329
12852TIP3    H238500   5.535   5.248   5.424
12853TIP3   OH238501   7.661   0.630   4.300
12853TIP3    H138502   7.569   0.603   4.308
12853TIP3    H238503   7.658   0.723   4.279
12854TIP3   OH238504   0.886   1.586   0.984
12854TIP3    H138505   0.860   1.587   0.892
12854TIP3    H238506   0.980   1.603   0.983
12855TIP3   OH238507   0.799   3.587   2.481
12855TIP3    H138508   0.732   3.620   2.421
12855TIP3    H238509   0.815   3.497   2.452
12856TIP3   OH238510   6.535   6.209   4.148
12856TIP3    H138511   6.622   6.248   4.139
12856TIP3    H238512   6.534   6.139   4.082
12857TIP3   OH238513   3.588   0.577   3.830
12857TIP3    H138514   3.650   0.648   3.844
12857TIP3    H238515   3.641   0.505   3.796
12858TIP3   OH238516   3.959   5.379   3.651
12858TIP3    H138517   3.953   5.471   3.624
12858TIP3    H238518   4.026   5.342   3.594
12859TIP3   OH238519   4.223   5.135   0.768
12859TIP3    H138520   4.317   5.134   0.748
12859TIP3    H238521   4.218   5.163   0.859
12860TIP3   OH238522   6.883   0.595   2.807
12860TIP3    H138523   6.892   0.626   2.897
12860TIP3    H238524   6.903   0.672   2.753
12861TIP3   OH238525   0.139   0.212   4.967
12861TIP3    H138526   0.120   0.275   5.037
12861TIP3    H238527   0.053   0.178   4.942
12862TIP3   OH238528   6.785   2.550   0.905
12862TIP3    H138529   6.694   2.574   0.920
12862TIP3    H238530   6.781   2.476   0.844
12863TIP3   OH238531   3.378   1.124   4.454
12863TIP3    H138532   3.423   1.112   4.371
12863TIP3    H238533   3.403   1.047   4.506
12864TIP3   OH238534   5.784   4.577   3.344
12864TIP3    H138535   5.728   4.556   3.419
12864TIP3    H238536   5.754   4.518   3.274
12865TIP3   OH238537   2.112   5.569  -0.003
12865TIP3    H138538   2.200   5.587   0.030
12865TIP3    H238539   2.055   5.585   0.072
12866TIP3   OH238540   3.597   6.476   4.389
12866TIP3    H138541   3.524   6.436   4.342
12866TIP3    H238542   3.558   6.549   4.437
12867TIP3   OH238543   4.008   3.033   0.382
12867TIP3    H138544   4.020   2.999   0.293
12867TIP3    H238545   4.050   2.969   0.438
12868TIP3   OH238546   5.904   6.118   5.585
12868TIP3    H138547   5.927   6.072   5.666
12868TIP3    H238548   5.851   6.192   5.614
12869TIP3   OH238549   5.790   2.739   6.009
12869TIP3    H138550   5.752   2.703   6.089
12869TIP3    H238551   5.860   2.797   6.038
12870TIP3   OH238552   7.145   3.444   3.669
12870TIP3    H138553   7.207   3.408   3.606
12870TIP3    H238554   7.061   3.405   3.644
12871TIP3   OH238555   5.069   0.347   4.557
12871TIP3    H138556   5.001   0.414   4.546
12871TIP3    H238557   5.085   0.345   4.651
12872TIP3   OH238558   1.561   6.421   2.139
12872TIP3    H138559   1.502   6.359   2.181
12872TIP3    H238560   1.604   6.370   2.070
12873TIP3   OH238561   6.424   7.248   1.153
12873TIP3    H138562   6.382   7.212   1.231
12873TIP3    H238563   6.416   7.343   1.164
12874TIP3   OH238564   4.950   0.535   2.301
12874TIP3    H138565   4.950   0.458   2.357
12874TIP3    H238566   4.858   0.552   2.283
12875TIP3   OH238567   2.739   2.841   2.387
12875TIP3    H138568   2.727   2.796   2.303
12875TIP3    H238569   2.688   2.789   2.449
12876TIP3   OH238570   5.323   3.400   0.749
12876TIP3    H138571   5.406   3.442   0.771
12876TIP3    H238572   5.342   3.306   0.754
12877TIP3   OH238573   0.072   6.130   6.682
12877TIP3    H138574   0.061   6.101   6.773
12877TIP3    H238575   0.150   6.186   6.684
12878TIP3   OH238576   6.009   3.264   4.671
12878TIP3    H138577   5.963   3.186   4.703
12878TIP3    H238578   6.053   3.235   4.591
12879TIP3   OH238579   3.986   1.255   5.906
12879TIP3    H138580   4.057   1.296   5.856
12879TIP3    H238581   4.019   1.168   5.928
12880TIP3   OH238582   3.026   4.674   5.867
12880TIP3    H138583   2.980   4.599   5.830
12880TIP3    H238584   2.959   4.743   5.872
12881TIP3   OH238585   5.707   5.617   4.192
12881TIP3    H138586   5.688   5.569   4.111
12881TIP3    H238587   5.780   5.674   4.169
12882TIP3   OH238588   4.112   5.584   4.715
12882TIP3    H138589   4.088   5.557   4.804
12882TIP3    H238590   4.078   5.515   4.659
12883TIP3   OH238591   0.031   3.933   4.191
12883TIP3    H138592   0.088   3.984   4.134
12883TIP3    H238593  -0.015   3.998   4.244
12884TIP3   OH238594   0.700   1.264   4.881
12884TIP3    H138595   0.691   1.349   4.923
12884TIP3    H238596   0.657   1.274   4.796
12885TIP3   OH238597   1.479   6.661   1.671
12885TIP3    H138598   1.541   6.684   1.741
12885TIP3    H238599   1.469   6.742   1.621
12886TIP3   OH238600   3.332   6.125   4.862
12886TIP3    H138601   3.358   6.160   4.777
12886TIP3    H238602   3.374   6.183   4.926
12887TIP3   OH238603   3.047   1.539   1.557
12887TIP3    H138604   2.995   1.564   1.481
12887TIP3    H238605   3.021   1.449   1.577
12888TIP3   OH238606   5.959   7.061   4.459
12888TIP3    H138607   5.975   7.154   4.479
12888TIP3    H238608   5.984   7.016   4.540
12889TIP3   OH238609   2.028   3.595   4.407
12889TIP3    H138610   2.005   3.645   4.328
12889TIP3    H238611   2.085   3.654   4.456
12890TIP3   OH238612   6.396   6.045   2.700
12890TIP3    H138613   6.470   6.032   2.640
12890TIP3    H238614   6.410   6.132   2.736
12891TIP3   OH238615   3.528   5.552   2.426
12891TIP3    H138616   3.506   5.486   2.361
12891TIP3    H238617   3.554   5.502   2.504
12892TIP3   OH238618   7.197   5.254   0.152
12892TIP3    H138619   7.288   5.264   0.181
12892TIP3    H238620   7.198   5.176   0.097
12893TIP3   OH238621   4.829   0.209   4.750
12893TIP3    H138622   4.878   0.264   4.812
12893TIP3    H238623   4.772   0.156   4.806
12894TIP3   OH238624   1.924   3.796   1.402
12894TIP3    H138625   1.954   3.803   1.492
12894TIP3    H238626   2.002   3.811   1.349
12895TIP3   OH238627   7.546   5.123   5.091
12895TIP3    H138628   7.603   5.200   5.088
12895TIP3    H238629   7.468   5.150   5.041
12896TIP3   OH238630   5.756   1.972   2.785
12896TIP3    H138631   5.690   1.956   2.718
12896TIP3    H238632   5.788   2.060   2.767
12897TIP3   OH238633   2.456   6.769   2.019
12897TIP3    H138634   2.385   6.823   2.054
12897TIP3    H238635   2.417   6.721   1.947
12898TIP3   OH238636   5.367   6.035   6.376
12898TIP3    H138637   5.387   5.942   6.383
12898TIP3    H238638   5.369   6.053   6.282
12899TIP3   OH238639   2.865   1.336   6.734
12899TIP3    H138640   2.952   1.309   6.703
12899TIP3    H238641   2.883   1.382   6.816
12900TIP3   OH238642   7.769   2.550   2.204
12900TIP3    H138643   7.834   2.617   2.182
12900TIP3    H238644   7.695   2.598   2.240
12901TIP3   OH238645   1.390   2.776   3.141
12901TIP3    H138646   1.432   2.817   3.066
12901TIP3    H238647   1.323   2.720   3.103
12902TIP3   OH238648   6.194   3.602   6.558
12902TIP3    H138649   6.192   3.549   6.479
12902TIP3    H238650   6.210   3.691   6.527
12903TIP3   OH238651   3.769  -0.004   5.176
12903TIP3    H138652   3.702  -0.009   5.108
12903TIP3    H238653   3.799   0.086   5.173
12904TIP3   OH238654   2.220   7.403   0.424
12904TIP3    H138655   2.127   7.423   0.417
12904TIP3    H238656   2.245   7.375   0.336
12905TIP3   OH238657   2.337   2.525   4.687
12905TIP3    H138658   2.424   2.540   4.725
12905TIP3    H238659   2.281   2.506   4.762
12906TIP3   OH238660   7.210   3.993   0.701
12906TIP3    H138661   7.233   4.086   0.702
12906TIP3    H238662   7.156   3.981   0.778
12907TIP3   OH238663   0.327   5.315   3.743
12907TIP3    H138664   0.244   5.353   3.713
12907TIP3    H238665   0.316   5.307   3.838
12908TIP3   OH238666   4.380   6.525   4.591
12908TIP3    H138667   4.473   6.502   4.593
12908TIP3    H238668   4.379   6.621   4.588
12909TIP3   OH238669   5.943   0.478   3.236
12909TIP3    H138670   5.984   0.406   3.284
12909TIP3    H238671   5.964   0.461   3.144
12910TIP3   OH238672   7.213   2.393   0.280
12910TIP3    H138673   7.172   2.447   0.213
12910TIP3    H238674   7.169   2.419   0.361
12911TIP3   OH238675   7.071   5.765   5.392
12911TIP3    H138676   6.989   5.721   5.369
12911TIP3    H238677   7.044   5.844   5.438
12912TIP3   OH238678   2.652   3.703   1.462
12912TIP3    H138679   2.654   3.693   1.367
12912TIP3    H238680   2.707   3.780   1.479
12913TIP3   OH238681   5.095   0.111   3.657
12913TIP3    H138682   5.053   0.025   3.666
12913TIP3    H238683   5.055   0.148   3.579
12914TIP3   OH238684   0.714   6.561   5.421
12914TIP3    H138685   0.658   6.547   5.498
12914TIP3    H238686   0.709   6.479   5.373
12915TIP3   OH238687   1.259   5.496   3.641
12915TIP3    H138688   1.211   5.511   3.722
12915TIP3    H238689   1.336   5.445   3.668
12916TIP3   OH238690   7.656   1.694   1.049
12916TIP3    H138691   7.701   1.614   1.022
12916TIP3    H238692   7.633   1.678   1.141
12917TIP3   OH238693   2.219   4.178   2.150
12917TIP3    H138694   2.255   4.165   2.237
12917TIP3    H238695   2.137   4.129   2.150
12918TIP3   OH238696   2.225   0.234   4.641
12918TIP3    H138697   2.176   0.301   4.592
12918TIP3    H238698   2.247   0.168   4.575
12919TIP3   OH238699   8.209   4.477   2.808
12919TIP3    H138700   8.291   4.447   2.768
12919TIP3    H238701   8.172   4.538   2.744
12920TIP3   OH238702   7.709   6.235   0.408
12920TIP3    H138703   7.738   6.323   0.387
12920TIP3    H238704   7.776   6.200   0.466
12921TIP3   OH238705   8.158   0.436   3.998
12921TIP3    H138706   8.139   0.346   3.970
12921TIP3    H238707   8.138   0.436   4.092
12922TIP3   OH238708   0.333   6.514   0.249
12922TIP3    H138709   0.278   6.591   0.265
12922TIP3    H238710   0.402   6.520   0.315
12923TIP3   OH238711   0.876   2.607   1.339
12923TIP3    H138712   0.813   2.535   1.345
12923TIP3    H238713   0.955   2.573   1.381
12924TIP3   OH238714   4.399   7.793   3.440
12924TIP3    H138715   4.373   7.782   3.348
12924TIP3    H238716   4.492   7.817   3.436
12925TIP3   OH238717   6.618   7.000   1.836
12925TIP3    H138718   6.555   7.016   1.907
12925TIP3    H238719   6.566   7.012   1.756
12926TIP3   OH238720   6.164   4.913   4.734
12926TIP3    H138721   6.118   4.978   4.788
12926TIP3    H238722   6.222   4.867   4.795
12927TIP3   OH238723   5.063   3.125   3.444
12927TIP3    H138724   5.104   3.206   3.414
12927TIP3    H238725   5.020   3.149   3.526
12928TIP3   OH238726   5.438   3.297   4.743
12928TIP3    H138727   5.473   3.275   4.657
12928TIP3    H238728   5.343   3.290   4.733
12929TIP3   OH238729   7.453   0.566   5.258
12929TIP3    H138730   7.537   0.525   5.239
12929TIP3    H238731   7.456   0.587   5.351
12930TIP3   OH238732   5.442   3.679   2.612
12930TIP3    H138733   5.490   3.658   2.692
12930TIP3    H238734   5.478   3.764   2.585
12931TIP3   OH238735   0.206   2.535   3.691
12931TIP3    H138736   0.246   2.574   3.769
12931TIP3    H238737   0.254   2.573   3.618
12932TIP3   OH238738   3.801   2.463   2.797
12932TIP3    H138739   3.760   2.376   2.797
12932TIP3    H238740   3.764   2.506   2.875
12933TIP3   OH238741   4.100   6.983   1.597
12933TIP3    H138742   4.059   7.055   1.549
12933TIP3    H238743   4.049   6.906   1.573
12934TIP3   OH238744   0.729   3.595   4.931
12934TIP3    H138745   0.770   3.607   5.017
12934TIP3    H238746   0.788   3.638   4.870
12935TIP3   OH238747   2.439   5.487   2.890
12935TIP3    H138748   2.481   5.443   2.964
12935TIP3    H238749   2.426   5.418   2.825
12936TIP3   OH238750   5.247   2.722   1.817
12936TIP3    H138751   5.272   2.653   1.878
12936TIP3    H238752   5.153   2.733   1.829
12937TIP3   OH238753   1.360   0.174   2.852
12937TIP3    H138754   1.342   0.081   2.864
12937TIP3    H238755   1.428   0.177   2.784
12938TIP3   OH238756   6.916   4.723   3.922
12938TIP3    H138757   6.860   4.711   3.999
12938TIP3    H238758   7.005   4.712   3.954
12939TIP3   OH238759   4.023   7.501   6.064
12939TIP3    H138760   4.077   7.576   6.087
12939TIP3    H238761   4.024   7.499   5.969
12940TIP3   OH238762   7.136   4.206   3.253
12940TIP3    H138763   7.213   4.228   3.305
12940TIP3    H238764   7.102   4.126   3.293
12941TIP3   OH238765   1.831   4.324   5.921
12941TIP3    H138766   1.915   4.297   5.958
12941TIP3    H238767   1.770   4.317   5.995
12942TIP3   OH238768   6.902   6.205   3.086
12942TIP3    H138769   6.895   6.256   3.166
12942TIP3    H238770   6.812   6.190   3.057
12943TIP3   OH238771   1.665   0.593   2.247
12943TIP3    H138772   1.629   0.505   2.241
12943TIP3    H238773   1.694   0.614   2.158
12944TIP3   OH238774   6.314   2.402   2.352
12944TIP3    H138775   6.320   2.329   2.414
12944TIP3    H238776   6.310   2.360   2.266
12945TIP3   OH238777   5.697   7.503   2.211
12945TIP3    H138778   5.690   7.444   2.136
12945TIP3    H238779   5.689   7.445   2.287
12946TIP3   OH238780   6.348   5.344   2.978
12946TIP3    H138781   6.256   5.357   2.956
12946TIP3    H238782   6.347   5.299   3.062
12947TIP3   OH238783   5.186   0.233   1.214
12947TIP3    H138784   5.250   0.172   1.179
12947TIP3    H238785   5.175   0.298   1.145
12948TIP3   OH238786   0.477   2.574   6.248
12948TIP3    H138787   0.421   2.619   6.310
12948TIP3    H238788   0.565   2.610   6.263
12949TIP3   OH238789   2.276   1.678   2.592
12949TIP3    H138790   2.275   1.691   2.687
12949TIP3    H238791   2.311   1.590   2.580
12950TIP3   OH238792   4.953   5.743   3.394
12950TIP3    H138793   4.917   5.829   3.375
12950TIP3    H238794   4.925   5.688   3.321
12951TIP3   OH238795   2.959   4.646   0.643
12951TIP3    H138796   3.053   4.643   0.629
12951TIP3    H238797   2.927   4.561   0.611
12952TIP3   OH238798   1.950   4.745   0.858
12952TIP3    H138799   2.000   4.815   0.900
12952TIP3    H238800   1.973   4.752   0.766
12953TIP3   OH238801   4.054   3.656   0.205
12953TIP3    H138802   4.114   3.720   0.244
12953TIP3    H238803   3.980   3.708   0.175
12954TIP3   OH238804   4.604   1.450   2.660
12954TIP3    H138805   4.547   1.393   2.610
12954TIP3    H238806   4.597   1.535   2.617
12955TIP3   OH238807   7.767   1.617   5.316
12955TIP3    H138808   7.850   1.658   5.339
12955TIP3    H238809   7.701   1.682   5.340
12956TIP3   OH238810   6.906   1.370   6.038
12956TIP3    H138811   6.854   1.294   6.066
12956TIP3    H238812   6.953   1.340   5.961
12957TIP3   OH238813   0.062   7.290   0.438
12957TIP3    H138814   0.029   7.368   0.482
12957TIP3    H238815   0.015   7.218   0.478
12958TIP3   OH238816   0.821   7.119   0.243
12958TIP3    H138817   0.887   7.126   0.311
12958TIP3    H238818   0.763   7.193   0.258
12959TIP3   OH238819   0.088   1.336   2.765
12959TIP3    H138820   0.162   1.289   2.803
12959TIP3    H238821   0.045   1.272   2.709
12960TIP3   OH238822   2.523   0.686   2.835
12960TIP3    H138823   2.527   0.770   2.790
12960TIP3    H238824   2.615   0.658   2.842
12961TIP3   OH238825   3.253   1.877   6.362
12961TIP3    H138826   3.316   1.919   6.303
12961TIP3    H238827   3.296   1.796   6.390
12962TIP3   OH238828   2.958   2.421   2.378
12962TIP3    H138829   2.945   2.516   2.372
12962TIP3    H238830   2.883   2.390   2.428
12963TIP3   OH238831   7.253   5.279   1.762
12963TIP3    H138832   7.336   5.235   1.778
12963TIP3    H238833   7.189   5.208   1.757
12964TIP3   OH238834   0.276   4.501   6.303
12964TIP3    H138835   0.228   4.542   6.375
12964TIP3    H238836   0.211   4.492   6.233
12965TIP3   OH238837   1.450   6.885   2.997
12965TIP3    H138838   1.499   6.938   3.060
12965TIP3    H238839   1.360   6.917   3.003
12966TIP3   OH238840   5.208   0.349   1.692
12966TIP3    H138841   5.245   0.333   1.779
12966TIP3    H238842   5.261   0.296   1.634
12967TIP3   OH238843   3.289   4.772   6.685
12967TIP3    H138844   3.317   4.688   6.724
12967TIP3    H238845   3.227   4.807   6.749
12968TIP3   OH238846   4.783   4.259   5.031
12968TIP3    H138847   4.783   4.342   5.080
12968TIP3    H238848   4.863   4.215   5.060
12969TIP3   OH238849   3.001   1.987   0.272
12969TIP3    H138850   3.063   1.964   0.342
12969TIP3    H238851   3.050   2.047   0.216
12970TIP3   OH238852   6.751   3.939   1.283
12970TIP3    H138853   6.825   3.896   1.325
12970TIP3    H238854   6.698   3.972   1.355
12971TIP3   OH238855   3.283   0.132   3.022
12971TIP3    H138856   3.247   0.129   3.110
12971TIP3    H238857   3.356   0.071   3.023
12972TIP3   OH238858   6.841   4.851   1.181
12972TIP3    H138859   6.858   4.758   1.196
12972TIP3    H238860   6.890   4.872   1.102
12973TIP3   OH238861   3.978   7.053   1.316
12973TIP3    H138862   4.030   6.976   1.293
12973TIP3    H238863   3.896   7.041   1.269
12974TIP3   OH238864   2.803   6.835   3.586
12974TIP3    H138865   2.860   6.795   3.652
12974TIP3    H238866   2.862   6.858   3.515
12975TIP3   OH238867   1.341   3.940   3.583
12975TIP3    H138868   1.329   3.854   3.623
12975TIP3    H238869   1.433   3.961   3.596
12976TIP3   OH238870   8.149   4.886   5.525
12976TIP3    H138871   8.154   4.791   5.514
12976TIP3    H238872   8.119   4.918   5.440
12977TIP3   OH238873   4.279   2.066   3.943
12977TIP3    H138874   4.334   2.141   3.963
12977TIP3    H238875   4.212   2.065   4.012
12978TIP3   OH238876   0.971   6.332   5.870
12978TIP3    H138877   0.936   6.392   5.936
12978TIP3    H238878   0.896   6.281   5.841
12979TIP3   OH238879   7.005   0.490   3.976
12979TIP3    H138880   7.053   0.557   4.023
12979TIP3    H238881   7.017   0.410   4.029
12980TIP3   OH238882   0.067   6.549   5.683
12980TIP3    H138883   0.156   6.528   5.712
12980TIP3    H238884   0.054   6.496   5.604
12981TIP3   OH238885   2.828   3.818   1.782
12981TIP3    H138886   2.868   3.758   1.845
12981TIP3    H238887   2.789   3.886   1.836
12982TIP3   OH238888   0.337   0.583   5.735
12982TIP3    H138889   0.429   0.608   5.745
12982TIP3    H238890   0.341   0.497   5.693
12983TIP3   OH238891   5.735   1.116   0.908
12983TIP3    H138892   5.748   1.031   0.950
12983TIP3    H238893   5.802   1.119   0.839
12984TIP3   OH238894   8.057   6.328   6.300
12984TIP3    H138895   8.125   6.375   6.349
12984TIP3    H238896   8.032   6.256   6.358
12985TIP3   OH238897   6.015   4.508   1.199
12985TIP3    H138898   6.076   4.454   1.250
12985TIP3    H238899   6.062   4.591   1.186
12986TIP3   OH238900   2.533   5.934   2.365
12986TIP3    H138901   2.439   5.917   2.366
12986TIP3    H238902   2.542   6.021   2.405
12987TIP3   OH238903   6.681   4.487   6.279
12987TIP3    H138904   6.770   4.475   6.246
12987TIP3    H238905   6.654   4.573   6.245
12988TIP3   OH238906   3.396   2.708   2.089
12988TIP3    H138907   3.397   2.778   2.154
12988TIP3    H238908   3.470   2.728   2.031
12989TIP3   OH238909   5.569   7.439   0.397
12989TIP3    H138910   5.592   7.524   0.434
12989TIP3    H238911   5.491   7.412   0.445
12990TIP3   OH238912   2.155   4.667   2.327
12990TIP3    H138913   2.176   4.694   2.416
12990TIP3    H238914   2.237   4.679   2.278
12991TIP3   OH238915   2.406   1.312   5.955
12991TIP3    H138916   2.444   1.363   6.027
12991TIP3    H238917   2.317   1.344   5.947
12992TIP3   OH238918   2.845   5.980   0.629
12992TIP3    H138919   2.937   5.988   0.603
12992TIP3    H238920   2.807   6.065   0.606
12993TIP3   OH238921   2.226   2.641   4.474
12993TIP3    H138922   2.289   2.643   4.403
12993TIP3    H238923   2.268   2.588   4.542
12994TIP3   OH238924   2.833   6.002   0.103
12994TIP3    H138925   2.757   6.055   0.126
12994TIP3    H238926   2.897   6.019   0.172
12995TIP3   OH238927   0.448   1.732   4.127
12995TIP3    H138928   0.388   1.718   4.200
12995TIP3    H238929   0.420   1.814   4.088
12996TIP3   OH238930   7.638   0.795   0.423
12996TIP3    H138931   7.627   0.779   0.517
12996TIP3    H238932   7.571   0.741   0.381
12997TIP3   OH238933   0.027   4.470   3.245
12997TIP3    H138934  -0.003   4.540   3.303
12997TIP3    H238935   0.115   4.449   3.276
12998TIP3   OH238936   2.620   1.850   3.010
12998TIP3    H138937   2.580   1.901   2.939
12998TIP3    H238938   2.631   1.763   2.972
12999TIP3   OH238939   0.951   0.767   4.413
12999TIP3    H138940   0.946   0.854   4.373
12999TIP3    H238941   0.918   0.780   4.502
13000TIP3   OH238942   6.375   4.838   2.233
13000TIP3    H138943   6.364   4.933   2.229
13000TIP3    H238944   6.470   4.825   2.240
13001TIP3   OH238945   2.977   1.883   4.824
13001TIP3    H138946   2.905   1.880   4.887
13001TIP3    H238947   2.998   1.791   4.808
13002TIP3   OH238948   7.836   0.466   1.133
13002TIP3    H138949   7.775   0.421   1.074
13002TIP3    H238950   7.869   0.397   1.189
13003TIP3   OH238951   2.031   4.140   6.585
13003TIP3    H138952   2.127   4.135   6.592
13003TIP3    H238953   1.999   4.106   6.668
13004TIP3   OH238954   5.876   1.545   4.185
13004TIP3    H138955   5.862   1.485   4.112
13004TIP3    H238956   5.946   1.505   4.236
13005TIP3   OH238957   5.738   6.057   2.450
13005TIP3    H138958   5.649   6.057   2.413
13005TIP3    H238959   5.730   6.110   2.530
13006TIP3   OH238960   1.288   5.196   5.690
13006TIP3    H138961   1.304   5.267   5.628
13006TIP3    H238962   1.226   5.233   5.753
13007TIP3   OH238963   1.590   1.235   4.678
13007TIP3    H138964   1.644   1.313   4.692
13007TIP3    H238965   1.547   1.250   4.594
13008TIP3   OH238966   2.482   5.748   3.869
13008TIP3    H138967   2.425   5.699   3.811
13008TIP3    H238968   2.436   5.831   3.883
13009TIP3   OH238969   3.577   2.447   3.506
13009TIP3    H138970   3.546   2.482   3.423
13009TIP3    H238971   3.499   2.407   3.546
13010TIP3   OH238972   1.074   4.906   0.382
13010TIP3    H138973   1.116   4.991   0.370
13010TIP3    H238974   1.060   4.898   0.476
13011TIP3   OH238975   6.056   5.289   0.318
13011TIP3    H138976   5.991   5.347   0.357
13011TIP3    H238977   6.124   5.347   0.284
13012TIP3   OH238978   7.137   0.913   1.611
13012TIP3    H138979   7.217   0.963   1.626
13012TIP3    H238980   7.134   0.850   1.683
13013TIP3   OH238981   6.094   2.798   1.999
13013TIP3    H138982   6.029   2.869   1.997
13013TIP3    H238983   6.086   2.756   1.913
13014TIP3   OH238984   1.098   1.756   4.229
13014TIP3    H138985   1.037   1.810   4.180
13014TIP3    H238986   1.185   1.787   4.202
13015TIP3   OH238987   1.052   6.725   1.519
13015TIP3    H138988   1.083   6.816   1.518
13015TIP3    H238989   1.088   6.689   1.600
13016TIP3   OH238990   2.992   2.677   1.050
13016TIP3    H138991   2.965   2.630   1.128
13016TIP3    H238992   2.957   2.765   1.061
13017TIP3   OH238993   2.576   3.075   1.542
13017TIP3    H138994   2.557   3.164   1.511
13017TIP3    H238995   2.492   3.041   1.571
13018TIP3   OH238996   3.793   6.929   5.316
13018TIP3    H138997   3.740   6.918   5.394
13018TIP3    H238998   3.757   7.006   5.272
13019TIP3   OH238999   0.061   5.261   5.321
13019TIP3    H139000   0.079   5.168   5.331
13019TIP3    H239001   0.134   5.295   5.269
13020TIP3   OH239002   6.799   5.412   3.848
13020TIP3    H139003   6.735   5.357   3.802
13020TIP3    H239004   6.832   5.472   3.781
13021TIP3   OH239005   0.709   3.313   2.931
13021TIP3    H139006   0.739   3.246   2.992
13021TIP3    H239007   0.628   3.347   2.970
13022TIP3   OH239008   1.513   4.681   0.631
13022TIP3    H139009   1.566   4.705   0.708
13022TIP3    H239010   1.431   4.728   0.643
13023TIP3   OH239011   7.959   4.336   3.996
13023TIP3    H139012   7.927   4.399   4.061
13023TIP3    H239013   8.054   4.335   4.007
13024TIP3   OH239014   0.111   6.020   6.436
13024TIP3    H139015   0.077   6.104   6.468
13024TIP3    H239016   0.088   5.958   6.505
13025TIP3   OH239017   0.468   1.491   3.371
13025TIP3    H139018   0.416   1.494   3.452
13025TIP3    H239019   0.513   1.406   3.375
13026TIP3   OH239020   3.812   6.311   5.641
13026TIP3    H139021   3.776   6.315   5.553
13026TIP3    H239022   3.863   6.391   5.650
13027TIP3   OH239023   0.900   2.161   3.799
13027TIP3    H139024   0.821   2.156   3.745
13027TIP3    H239025   0.873   2.209   3.877
13028TIP3   OH239026   7.238   7.526   0.939
13028TIP3    H139027   7.177   7.488   1.002
13028TIP3    H239028   7.228   7.473   0.860
13029TIP3   OH239029   6.194   7.323   1.748
13029TIP3    H139030   6.137   7.284   1.681
13029TIP3    H239031   6.134   7.344   1.820
13030TIP3   OH239032   3.469   4.739   3.470
13030TIP3    H139033   3.447   4.773   3.383
13030TIP3    H239034   3.441   4.809   3.530
13031TIP3   OH239035   6.647   3.251   3.132
13031TIP3    H139036   6.629   3.335   3.173
13031TIP3    H239037   6.571   3.235   3.076
13032TIP3   OH239038   5.954   7.475   6.737
13032TIP3    H139039   5.885   7.539   6.721
13032TIP3    H239040   5.919   7.393   6.700
13033TIP3   OH239041   4.999   5.534   6.063
13033TIP3    H139042   5.067   5.471   6.038
13033TIP3    H239043   5.047   5.615   6.079
13034TIP3   OH239044   5.818   1.850   1.880
13034TIP3    H139045   5.857   1.766   1.853
13034TIP3    H239046   5.822   1.905   1.802
13035TIP3   OH239047   1.162   0.323   3.655
13035TIP3    H139048   1.145   0.266   3.580
13035TIP3    H239049   1.115   0.404   3.636
13036TIP3   OH239050   7.491   6.134   6.326
13036TIP3    H139051   7.495   6.099   6.415
13036TIP3    H239052   7.525   6.063   6.271
13037TIP3   OH239053   2.167   3.448   4.029
13037TIP3    H139054   2.151   3.376   3.968
13037TIP3    H239055   2.095   3.444   4.091
13038TIP3   OH239056   3.675   6.045   1.155
13038TIP3    H139057   3.758   6.043   1.203
13038TIP3    H239058   3.692   6.100   1.079
13039TIP3   OH239059   2.185   2.393   5.971
13039TIP3    H139060   2.183   2.319   6.032
13039TIP3    H239061   2.191   2.352   5.885
13040TIP3   OH239062   7.457   6.356   2.610
13040TIP3    H139063   7.516   6.323   2.678
13040TIP3    H239064   7.436   6.445   2.638
13041TIP3   OH239065   1.323   3.675   3.671
13041TIP3    H139066   1.290   3.601   3.620
13041TIP3    H239067   1.376   3.635   3.739
13042TIP3   OH239068   5.053   2.873   6.411
13042TIP3    H139069   5.136   2.829   6.394
13042TIP3    H239070   4.997   2.848   6.337
13043TIP3   OH239071   2.549   7.558   0.866
13043TIP3    H139072   2.637   7.588   0.889
13043TIP3    H239073   2.492   7.631   0.890
13044TIP3   OH239074   0.763   1.883   3.489
13044TIP3    H139075   0.839   1.915   3.537
13044TIP3    H239076   0.688   1.915   3.538
13045TIP3   OH239077   7.140   7.336   0.754
13045TIP3    H139078   7.151   7.254   0.705
13045TIP3    H239079   7.046   7.355   0.747
13046TIP3   OH239080   3.756   2.167   2.528
13046TIP3    H139081   3.823   2.138   2.590
13046TIP3    H239082   3.701   2.090   2.516
13047TIP3   OH239083   1.637   6.289   2.724
13047TIP3    H139084   1.542   6.297   2.733
13047TIP3    H239085   1.672   6.321   2.808
13048TIP3   OH239086   6.124   6.556   1.170
13048TIP3    H139087   6.213   6.591   1.178
13048TIP3    H239088   6.109   6.508   1.252
13049TIP3   OH239089   2.802   0.472   1.399
13049TIP3    H139090   2.761   0.552   1.431
13049TIP3    H239091   2.889   0.500   1.369
13050TIP3   OH239092   7.961   3.418   3.202
13050TIP3    H139093   8.002   3.332   3.191
13050TIP3    H239094   8.009   3.475   3.141
13051TIP3   OH239095   3.851   2.118   3.642
13051TIP3    H139096   3.909   2.047   3.613
13051TIP3    H239097   3.892   2.198   3.610
13052TIP3   OH239098   7.915   3.486   0.851
13052TIP3    H139099   7.886   3.398   0.826
13052TIP3    H239100   7.913   3.536   0.770
13053TIP3   OH239101   6.820   1.462   0.309
13053TIP3    H139102   6.777   1.514   0.241
13053TIP3    H239103   6.910   1.495   0.311
13054TIP3   OH239104   2.715   0.772   0.058
13054TIP3    H139105   2.643   0.768  -0.004
13054TIP3    H239106   2.793   0.754   0.006
13055TIP3   OH239107   3.077   4.742   4.587
13055TIP3    H139108   3.164   4.723   4.552
13055TIP3    H239109   3.074   4.694   4.671
13056TIP3   OH239110   1.407   4.984   3.611
13056TIP3    H139111   1.437   5.053   3.552
13056TIP3    H239112   1.319   5.012   3.637
13057TIP3   OH239113   0.311   4.546   6.733
13057TIP3    H139114   0.270   4.607   6.672
13057TIP3    H239115   0.359   4.485   6.676
13058TIP3   OH239116   7.841   2.513   3.322
13058TIP3    H139117   7.831   2.584   3.258
13058TIP3    H239118   7.774   2.449   3.298
13059TIP3   OH239119   2.034   7.130   0.969
13059TIP3    H139120   2.100   7.078   1.015
13059TIP3    H239121   2.040   7.217   1.009
13060TIP3   OH239122   6.904   1.051   1.766
13060TIP3    H139123   6.921   0.960   1.742
13060TIP3    H239124   6.825   1.048   1.819
13061TIP3   OH239125   7.933   5.234   1.594
13061TIP3    H139126   7.922   5.183   1.514
13061TIP3    H239127   7.975   5.315   1.565
13062TIP3   OH239128   1.731   2.916   1.509
13062TIP3    H139129   1.780   2.970   1.447
13062TIP3    H239130   1.797   2.860   1.550
13063TIP3   OH239131   3.391   0.342   3.312
13063TIP3    H139132   3.303   0.373   3.291
13063TIP3    H239133   3.386   0.247   3.301
13064TIP3   OH239134   2.280   0.808   4.928
13064TIP3    H139135   2.331   0.770   4.856
13064TIP3    H239136   2.280   0.739   4.995
13065TIP3   OH239137   1.230   5.282   3.172
13065TIP3    H139138   1.227   5.218   3.101
13065TIP3    H239139   1.321   5.283   3.201
13066TIP3   OH239140   6.297   2.185   5.916
13066TIP3    H139141   6.206   2.153   5.917
13066TIP3    H239142   6.301   2.242   5.840
13067TIP3   OH239143   7.612   4.200   0.744
13067TIP3    H139144   7.592   4.230   0.655
13067TIP3    H239145   7.565   4.117   0.753
13068TIP3   OH239146   1.152   7.301   0.289
13068TIP3    H139147   1.216   7.372   0.286
13068TIP3    H239148   1.081   7.330   0.231
13069TIP3   OH239149   2.663   0.829   0.439
13069TIP3    H139150   2.672   0.875   0.355
13069TIP3    H239151   2.751   0.797   0.458
13070TIP3   OH239152   3.971   2.831   3.515
13070TIP3    H139153   3.958   2.924   3.535
13070TIP3    H239154   3.893   2.788   3.549
13071TIP3   OH239155   3.250   4.728   6.424
13071TIP3    H139156   3.271   4.763   6.511
13071TIP3    H239157   3.192   4.654   6.441
13072TIP3   OH239158   1.113   0.804   4.768
13072TIP3    H139159   1.033   0.812   4.717
13072TIP3    H239160   1.089   0.752   4.844
13073TIP3   OH239161   1.151   7.672   6.705
13073TIP3    H139162   1.101   7.592   6.695
13073TIP3    H239163   1.151   7.712   6.617
13074TIP3   OH239164   4.595   1.168   5.039
13074TIP3    H139165   4.646   1.249   5.033
13074TIP3    H239166   4.503   1.197   5.038
13075TIP3   OH239167   2.760   6.248   5.523
13075TIP3    H139168   2.697   6.182   5.496
13075TIP3    H239169   2.801   6.277   5.441
13076TIP3   OH239170   6.232   1.348   1.071
13076TIP3    H139171   6.264   1.396   1.147
13076TIP3    H239172   6.245   1.407   0.997
13077TIP3   OH239173   0.518   4.219   5.715
13077TIP3    H139174   0.493   4.161   5.643
13077TIP3    H239175   0.450   4.204   5.782
13078TIP3   OH239176   5.683   5.754   2.713
13078TIP3    H139177   5.607   5.764   2.656
13078TIP3    H239178   5.755   5.733   2.653
13079TIP3   OH239179   8.199   2.061   5.177
13079TIP3    H139180   8.239   2.085   5.093
13079TIP3    H239181   8.152   2.139   5.205
13080TIP3   OH239182   7.421   5.727   3.211
13080TIP3    H139183   7.341   5.700   3.257
13080TIP3    H239184   7.394   5.740   3.120
13081TIP3   OH239185   4.794   7.093   6.423
13081TIP3    H139186   4.759   7.170   6.467
13081TIP3    H239187   4.792   7.115   6.330
13082TIP3   OH239188   5.107   2.633   2.490
13082TIP3    H139189   5.054   2.633   2.569
13082TIP3    H239190   5.164   2.709   2.499
13083TIP3   OH239191   4.075   5.880   0.346
13083TIP3    H139192   4.155   5.835   0.322
13083TIP3    H239193   4.046   5.923   0.266
13084TIP3   OH239194   5.643   2.010   1.277
13084TIP3    H139195   5.621   2.061   1.199
13084TIP3    H239196   5.571   1.947   1.286
13085TIP3   OH239197   4.051   5.103   2.195
13085TIP3    H139198   4.093   5.104   2.281
13085TIP3    H239199   4.001   5.185   2.192
13086TIP3   OH239200   0.393   6.995   5.211
13086TIP3    H139201   0.342   6.980   5.131
13086TIP3    H239202   0.397   7.090   5.220
13087TIP3   OH239203   4.344   7.002   1.501
13087TIP3    H139204   4.358   7.089   1.538
13087TIP3    H239205   4.264   6.971   1.543
13088TIP3   OH239206   8.125   2.103   3.798
13088TIP3    H139207   8.172   2.078   3.718
13088TIP3    H239208   8.036   2.070   3.784
13089TIP3   OH239209   0.346   3.200   4.679
13089TIP3    H139210   0.294   3.127   4.645
13089TIP3    H239211   0.437   3.177   4.656
13090TIP3   OH239212   5.607   5.273   6.567
13090TIP3    H139213   5.636   5.349   6.617
13090TIP3    H239214   5.619   5.199   6.626
13091TIP3   OH239215   2.396   3.556   3.230
13091TIP3    H139216   2.388   3.465   3.200
13091TIP3    H239217   2.463   3.553   3.298
13092TIP3   OH239218   1.409   1.272   0.996
13092TIP3    H139219   1.479   1.337   1.000
13092TIP3    H239220   1.430   1.218   0.920
13093TIP3   OH239221   2.046   4.208   0.845
13093TIP3    H139222   2.087   4.160   0.916
13093TIP3    H239223   2.072   4.299   0.859
13094TIP3   OH239224   2.844   0.525   5.891
13094TIP3    H139225   2.860   0.607   5.938
13094TIP3    H239226   2.749   0.524   5.877
13095TIP3   OH239227   1.939   0.852   5.147
13095TIP3    H139228   2.005   0.839   5.216
13095TIP3    H239229   1.858   0.868   5.195
13096TIP3   OH239230   2.821   4.564   4.842
13096TIP3    H139231   2.792   4.492   4.898
13096TIP3    H239232   2.914   4.549   4.830
13097TIP3   OH239233   3.045   2.791   3.830
13097TIP3    H139234   3.103   2.733   3.780
13097TIP3    H239235   3.033   2.867   3.773
13098TIP3   OH239236   4.671   5.833   3.971
13098TIP3    H139237   4.606   5.763   3.979
13098TIP3    H239238   4.703   5.826   3.881
13099TIP3   OH239239   6.951   5.675   1.123
13099TIP3    H139240   6.866   5.720   1.119
13099TIP3    H239241   7.003   5.727   1.184
13100TIP3   OH239242   1.823   1.391   1.089
13100TIP3    H139243   1.844   1.381   0.996
13100TIP3    H239244   1.771   1.313   1.110
13101TIP3   OH239245   3.475   4.500   6.031
13101TIP3    H139246   3.528   4.553   6.091
13101TIP3    H239247   3.394   4.484   6.079
13102TIP3   OH239248   1.853   1.098   2.390
13102TIP3    H139249   1.905   1.062   2.461
13102TIP3    H239250   1.767   1.115   2.429
13103TIP3   OH239251   1.346   0.042   1.344
13103TIP3    H139252   1.320   0.040   1.251
13103TIP3    H239253   1.263   0.054   1.391
13104TIP3   OH239254   0.474   3.726   0.147
13104TIP3    H139255   0.540   3.748   0.213
13104TIP3    H239256   0.398   3.779   0.169
13105TIP3   OH239257   2.228   7.221   2.419
13105TIP3    H139258   2.275   7.210   2.337
13105TIP3    H239259   2.136   7.206   2.397
13106TIP3   OH239260   3.775   2.211   6.453
13106TIP3    H139261   3.750   2.284   6.397
13106TIP3    H239262   3.837   2.160   6.400
13107TIP3   OH239263   0.737   5.360   6.687
13107TIP3    H139264   0.758   5.439   6.636
13107TIP3    H239265   0.805   5.356   6.753
13108TIP3   OH239266   1.007   2.036   2.223
13108TIP3    H139267   1.054   1.982   2.159
13108TIP3    H239268   0.927   2.061   2.177
13109TIP3   OH239269   6.455   4.772   1.099
13109TIP3    H139270   6.459   4.801   1.191
13109TIP3    H239271   6.500   4.841   1.051
13110TIP3   OH239272   2.982   2.628   6.644
13110TIP3    H139273   2.895   2.628   6.684
13110TIP3    H239274   2.985   2.546   6.594
13111TIP3   OH239275   0.981   2.692   2.361
13111TIP3    H139276   0.957   2.762   2.422
13111TIP3    H239277   1.071   2.712   2.336
13112TIP3   OH239278   5.442   4.772   3.912
13112TIP3    H139279   5.419   4.716   3.838
13112TIP3    H239280   5.369   4.834   3.918
13113TIP3   OH239281   0.896   6.684   5.639
13113TIP3    H139282   0.828   6.625   5.606
13113TIP3    H239283   0.901   6.753   5.573
13114TIP3   OH239284   7.442   4.858   3.723
13114TIP3    H139285   7.471   4.809   3.645
13114TIP3    H239286   7.350   4.877   3.707
13115TIP3   OH239287   7.252   4.412   2.244
13115TIP3    H139288   7.190   4.484   2.248
13115TIP3    H239289   7.236   4.362   2.324
13116TIP3   OH239290   6.140   4.970   3.320
13116TIP3    H139291   6.110   4.930   3.401
13116TIP3    H239292   6.089   4.927   3.251
13117TIP3   OH239293   4.145   6.077   6.068
13117TIP3    H139294   4.069   6.114   6.023
13117TIP3    H239295   4.210   6.147   6.066
13118TIP3   OH239296   1.281   2.402   0.469
13118TIP3    H139297   1.290   2.436   0.559
13118TIP3    H239298   1.202   2.349   0.471
13119TIP3   OH239299   6.027   0.041   5.930
13119TIP3    H139300   6.005  -0.036   5.982
13119TIP3    H239301   6.019   0.114   5.990
13120TIP3   OH239302   5.052   2.933   5.572
13120TIP3    H139303   4.957   2.928   5.559
13120TIP3    H239304   5.085   2.970   5.489
13121TIP3   OH239305   5.622   3.758   0.677
13121TIP3    H139306   5.615   3.795   0.765
13121TIP3    H239307   5.670   3.824   0.627
13122TIP3   OH239308   1.589   0.233   5.104
13122TIP3    H139309   1.508   0.285   5.109
13122TIP3    H239310   1.567   0.152   5.150
13123TIP3   OH239311   1.838   2.339   0.911
13123TIP3    H139312   1.817   2.306   0.999
13123TIP3    H239313   1.753   2.365   0.875
13124TIP3   OH239314   6.294   6.055   2.998
13124TIP3    H139315   6.346   5.999   2.942
13124TIP3    H239316   6.344   6.136   3.004
13125TIP3   OH239317   2.577   1.993   0.594
13125TIP3    H139318   2.610   1.916   0.548
13125TIP3    H239319   2.529   1.957   0.669
13126TIP3   OH239320   2.744   0.787   5.807
13126TIP3    H139321   2.791   0.787   5.890
13126TIP3    H239322   2.809   0.764   5.742
13127TIP3   OH239323   0.353   4.347   5.930
13127TIP3    H139324   0.441   4.366   5.896
13127TIP3    H239325   0.304   4.428   5.915
13128TIP3   OH239326   7.382   1.825   2.106
13128TIP3    H139327   7.394   1.920   2.110
13128TIP3    H239328   7.323   1.806   2.179
13129TIP3   OH239329   7.769   3.396   6.232
13129TIP3    H139330   7.788   3.462   6.166
13129TIP3    H239331   7.820   3.423   6.308
13130TIP3   OH239332   3.142   0.151   3.975
13130TIP3    H139333   3.205   0.172   4.043
13130TIP3    H239334   3.196   0.125   3.900
13131TIP3   OH239335   5.847   7.019   4.871
13131TIP3    H139336   5.781   7.006   4.803
13131TIP3    H239337   5.812   6.974   4.948
13132TIP3   OH239338   8.237   4.659   3.044
13132TIP3    H139339   8.257   4.606   3.122
13132TIP3    H239340   8.250   4.599   2.971
13133TIP3   OH239341   4.759   4.762   1.519
13133TIP3    H139342   4.743   4.738   1.428
13133TIP3    H239343   4.716   4.847   1.529
13134TIP3   OH239344   1.886   0.668   3.973
13134TIP3    H139345   1.859   0.698   3.886
13134TIP3    H239346   1.946   0.595   3.956
13135TIP3   OH239347   3.962   6.075   0.527
13135TIP3    H139348   4.015   6.013   0.476
13135TIP3    H239349   3.918   6.128   0.462
13136TIP3   OH239350   7.922   4.579   0.110
13136TIP3    H139351   7.832   4.549   0.116
13136TIP3    H239352   7.943   4.611   0.198
13137TIP3   OH239353   7.853   7.181   1.679
13137TIP3    H139354   7.862   7.211   1.770
13137TIP3    H239355   7.901   7.099   1.676
13138TIP3   OH239356   6.441   0.895   3.725
13138TIP3    H139357   6.383   0.874   3.799
13138TIP3    H239358   6.490   0.814   3.710
13139TIP3   OH239359   0.071   3.678   4.130
13139TIP3    H139360   0.058   3.629   4.211
13139TIP3    H239361   0.075   3.769   4.158
13140TIP3   OH239362   1.162   6.812   3.920
13140TIP3    H139363   1.124   6.752   3.984
13140TIP3    H239364   1.140   6.774   3.835
13141TIP3   OH239365   6.046   4.686   4.408
13141TIP3    H139366   6.089   4.770   4.425
13141TIP3    H239367   6.118   4.623   4.400
13142TIP3   OH239368   7.343   1.204   4.078
13142TIP3    H139369   7.296   1.237   4.154
13142TIP3    H239370   7.290   1.131   4.046
13143TIP3   OH239371   0.892   4.478   1.576
13143TIP3    H139372   0.921   4.387   1.574
13143TIP3    H239373   0.957   4.524   1.522
13144TIP3   OH239374   7.099   5.827   1.703
13144TIP3    H139375   7.161   5.882   1.751
13144TIP3    H239376   7.014   5.846   1.743
13145TIP3   OH239377   7.222   7.572   3.636
13145TIP3    H139378   7.286   7.609   3.575
13145TIP3    H239379   7.156   7.531   3.581
13146TIP3   OH239380   8.148   3.032   6.703
13146TIP3    H139381   8.186   3.117   6.727
13146TIP3    H239382   8.186   2.970   6.764
13147TIP3   OH239383   6.726   3.064   1.822
13147TIP3    H139384   6.645   3.087   1.866
13147TIP3    H239385   6.780   3.025   1.891
13148TIP3   OH239386   7.872   3.721   1.509
13148TIP3    H139387   7.858   3.812   1.484
13148TIP3    H239388   7.964   3.718   1.537
13149TIP3   OH239389   7.100   1.850   5.839
13149TIP3    H139390   7.139   1.937   5.837
13149TIP3    H239391   7.125   1.815   5.925
13150TIP3   OH239392   5.882   5.367   6.155
13150TIP3    H139393   5.857   5.292   6.101
13150TIP3    H239394   5.968   5.393   6.122
13151TIP3   OH239395   3.454   4.214   3.617
13151TIP3    H139396   3.442   4.273   3.542
13151TIP3    H239397   3.396   4.249   3.685
13152TIP3   OH239398   8.174   1.121   0.052
13152TIP3    H139399   8.232   1.054   0.088
13152TIP3    H239400   8.103   1.072   0.011
13153TIP3   OH239401   2.156   0.641   3.288
13153TIP3    H139402   2.192   0.554   3.301
13153TIP3    H239403   2.180   0.689   3.368
13154TIP3   OH239404   0.811   1.729   2.199
13154TIP3    H139405   0.801   1.805   2.142
13154TIP3    H239406   0.814   1.654   2.139
13155TIP3   OH239407   0.729   6.915   5.269
13155TIP3    H139408   0.674   6.838   5.258
13155TIP3    H239409   0.707   6.971   5.194
13156TIP3   OH239410   2.131   0.615   0.282
13156TIP3    H139411   2.218   0.647   0.256
13156TIP3    H239412   2.074   0.690   0.271
13157TIP3   OH239413   0.537   2.635   1.195
13157TIP3    H139414   0.533   2.712   1.253
13157TIP3    H239415   0.572   2.669   1.113
13158TIP3   OH239416   7.142   4.105   4.674
13158TIP3    H139417   7.191   4.062   4.604
13158TIP3    H239418   7.208   4.155   4.723
13159TIP3   OH239419   5.695   5.010   4.495
13159TIP3    H139420   5.687   4.961   4.576
13159TIP3    H239421   5.751   4.956   4.439
13160TIP3   OH239422   1.498   2.976   0.031
13160TIP3    H139423   1.468   2.986  -0.060
13160TIP3    H239424   1.541   2.891   0.033
13161TIP3   OH239425   6.892   3.337   2.568
13161TIP3    H139426   6.847   3.378   2.494
13161TIP3    H239427   6.849   3.372   2.646
13162TIP3   OH239428   7.832   6.683   6.458
13162TIP3    H139429   7.791   6.763   6.425
13162TIP3    H239430   7.925   6.693   6.438
13163TIP3   OH239431   0.842   3.691   1.052
13163TIP3    H139432   0.776   3.677   0.984
13163TIP3    H239433   0.827   3.620   1.114
13164TIP3   OH239434   1.898   3.180   4.055
13164TIP3    H139435   1.905   3.275   4.062
13164TIP3    H239436   1.805   3.161   4.070
13165TIP3   OH239437   1.281   2.069   5.301
13165TIP3    H139438   1.329   2.076   5.219
13165TIP3    H239439   1.331   2.121   5.363
13166TIP3   OH239440   2.744   3.114   1.945
13166TIP3    H139441   2.742   3.106   2.040
13166TIP3    H239442   2.786   3.033   1.916
13167TIP3   OH239443   2.585   7.083   4.915
13167TIP3    H139444   2.581   7.024   4.840
13167TIP3    H239445   2.505   7.064   4.965
13168TIP3   OH239446   3.785   2.450   2.492
13168TIP3    H139447   3.745   2.378   2.443
13168TIP3    H239448   3.777   2.424   2.584
13169TIP3   OH239449   3.691   0.280   4.895
13169TIP3    H139450   3.699   0.358   4.840
13169TIP3    H239451   3.776   0.236   4.885
13170TIP3   OH239452   6.879   0.066   0.060
13170TIP3    H139453   6.829   0.073   0.141
13170TIP3    H239454   6.822   0.015   0.002
13171TIP3   OH239455   5.427   4.501   2.355
13171TIP3    H139456   5.354   4.522   2.413
13171TIP3    H239457   5.415   4.409   2.334
13172TIP3   OH239458   0.860   3.616   6.686
13172TIP3    H139459   0.919   3.654   6.621
13172TIP3    H239460   0.912   3.548   6.729
13173TIP3   OH239461   0.635   1.902   4.879
13173TIP3    H139462   0.694   1.845   4.829
13173TIP3    H239463   0.648   1.875   4.970
13174TIP3   OH239464   1.971   5.957   1.163
13174TIP3    H139465   1.926   5.908   1.232
13174TIP3    H239466   2.038   5.896   1.132
13175TIP3   OH239467   1.497   7.441   4.505
13175TIP3    H139468   1.499   7.362   4.451
13175TIP3    H239469   1.416   7.433   4.556
13176TIP3   OH239470   5.638   0.072   4.331
13176TIP3    H139471   5.622  -0.018   4.360
13176TIP3    H239472   5.619   0.125   4.408
13177TIP3   OH239473   2.516   6.959   2.602
13177TIP3    H139474   2.514   6.906   2.523
13177TIP3    H239475   2.430   7.001   2.606
13178TIP3   OH239476   7.664   1.504   3.512
13178TIP3    H139477   7.689   1.596   3.503
13178TIP3    H239478   7.747   1.457   3.518
13179TIP3   OH239479   5.879   3.693   1.866
13179TIP3    H139480   5.914   3.715   1.780
13179TIP3    H239481   5.917   3.757   1.925
13180TIP3   OH239482   4.369   4.646   2.941
13180TIP3    H139483   4.284   4.645   2.898
13180TIP3    H239484   4.379   4.558   2.977
13181TIP3   OH239485   7.512   3.680   3.291
13181TIP3    H139486   7.490   3.594   3.255
13181TIP3    H239487   7.607   3.680   3.300
13182TIP3   OH239488   3.614   7.386   6.126
13182TIP3    H139489   3.525   7.359   6.149
13182TIP3    H239490   3.603   7.464   6.073
13183TIP3   OH239491   6.999   2.632   1.730
13183TIP3    H139492   6.977   2.539   1.727
13183TIP3    H239493   6.927   2.672   1.779
13184TIP3   OH239494   0.802   2.904   4.256
13184TIP3    H139495   0.857   2.852   4.197
13184TIP3    H239496   0.742   2.950   4.197
13185TIP3   OH239497   2.159   1.026   1.007
13185TIP3    H139498   2.199   1.104   0.969
13185TIP3    H239499   2.225   0.958   0.997
13186TIP3   OH239500   0.794   0.603   3.182
13186TIP3    H139501   0.716   0.646   3.215
13186TIP3    H239502   0.799   0.521   3.230
13187TIP3   OH239503   5.476   3.316   2.516
13187TIP3    H139504   5.515   3.230   2.532
13187TIP3    H239505   5.398   3.298   2.465
13188TIP3   OH239506   6.482   2.704   5.654
13188TIP3    H139507   6.522   2.790   5.668
13188TIP3    H239508   6.477   2.665   5.741
13189TIP3   OH239509   0.266   3.441   6.028
13189TIP3    H139510   0.273   3.403   5.940
13189TIP3    H239511   0.271   3.535   6.013
13190TIP3   OH239512   4.055   1.596   2.993
13190TIP3    H139513   4.083   1.687   2.990
13190TIP3    H239514   4.087   1.558   2.911
13191TIP3   OH239515   7.490   6.560   1.007
13191TIP3    H139516   7.467   6.495   0.940
13191TIP3    H239517   7.527   6.509   1.079
13192TIP3   OH239518   1.781   3.308   1.535
13192TIP3    H139519   1.791   3.228   1.586
13192TIP3    H239520   1.850   3.303   1.469
13193TIP3   OH239521   8.006   3.264   4.450
13193TIP3    H139522   7.992   3.338   4.509
13193TIP3    H239523   7.936   3.202   4.471
13194TIP3   OH239524   4.399   0.686   2.233
13194TIP3    H139525   4.309   0.674   2.203
13194TIP3    H239526   4.426   0.770   2.195
13195TIP3   OH239527   2.028   0.293   3.647
13195TIP3    H139528   2.081   0.222   3.609
13195TIP3    H239529   1.981   0.330   3.573
13196TIP3   OH239530   6.353   1.385   1.895
13196TIP3    H139531   6.432   1.397   1.947
13196TIP3    H239532   6.290   1.345   1.955
13197TIP3   OH239533   2.883   3.317   2.747
13197TIP3    H139534   2.912   3.404   2.773
13197TIP3    H239535   2.933   3.299   2.667
13198TIP3   OH239536   0.825   6.950   3.660
13198TIP3    H139537   0.769   6.877   3.687
13198TIP3    H239538   0.888   6.960   3.732
13199TIP3   OH239539   0.238   3.761   0.521
13199TIP3    H139540   0.333   3.766   0.513
13199TIP3    H239541   0.217   3.668   0.509
13200TIP3   OH239542   0.843   4.416   3.452
13200TIP3    H139543   0.935   4.415   3.478
13200TIP3    H239544   0.841   4.370   3.369
13201TIP3   OH239545   2.740   4.402   2.375
13201TIP3    H139546   2.650   4.396   2.342
13201TIP3    H239547   2.737   4.357   2.460
13202TIP3   OH239548   5.010   0.922   2.112
13202TIP3    H139549   5.101   0.952   2.124
13202TIP3    H239550   4.969   0.936   2.197
13203TIP3   OH239551   3.961   5.198   4.843
13203TIP3    H139552   4.045   5.236   4.820
13203TIP3    H239553   3.979   5.144   4.920
13204TIP3   OH239554   7.055   3.136   3.110
13204TIP3    H139555   7.065   3.060   3.167
13204TIP3    H239556   7.140   3.145   3.067
13205TIP3   OH239557   3.084   6.370   5.376
13205TIP3    H139558   2.995   6.374   5.340
13205TIP3    H239559   3.102   6.277   5.384
13206TIP3   OH239560   6.969   3.288   5.744
13206TIP3    H139561   6.981   3.193   5.741
13206TIP3    H239562   6.877   3.300   5.768
13207TIP3   OH239563   6.512   2.069   4.780
13207TIP3    H139564   6.450   2.003   4.812
13207TIP3    H239565   6.474   2.097   4.696
13208TIP3   OH239566   5.625   0.869   3.882
13208TIP3    H139567   5.572   0.866   3.802
13208TIP3    H239568   5.670   0.784   3.884
13209TIP3   OH239569   3.972   4.172   2.498
13209TIP3    H139570   4.021   4.157   2.417
13209TIP3    H239571   3.969   4.087   2.541
13210TIP3   OH239572   0.761   0.112   2.063
13210TIP3    H139573   0.828   0.105   1.995
13210TIP3    H239574   0.681   0.133   2.015
13211TIP3   OH239575   8.036   4.729   4.228
13211TIP3    H139576   8.046   4.808   4.281
13211TIP3    H239577   8.124   4.693   4.220
13212TIP3   OH239578   1.980   5.098   1.839
13212TIP3    H139579   1.918   5.103   1.766
13212TIP3    H239580   2.040   5.027   1.815
13213TIP3   OH239581   0.444   4.305   2.654
13213TIP3    H139582   0.365   4.325   2.604
13213TIP3    H239583   0.514   4.303   2.589
13214TIP3   OH239584   1.198   0.710   1.243
13214TIP3    H139585   1.220   0.748   1.158
13214TIP3    H239586   1.184   0.617   1.224
13215TIP3   OH239587   8.277   2.277   3.195
13215TIP3    H139588   8.266   2.367   3.165
13215TIP3    H239589   8.285   2.226   3.114
13216TIP3   OH239590   2.908   5.504   2.477
13216TIP3    H139591   2.940   5.585   2.516
13216TIP3    H239592   2.817   5.496   2.506
13217TIP3   OH239593   7.570   4.879   6.600
13217TIP3    H139594   7.550   4.912   6.687
13217TIP3    H239595   7.628   4.804   6.615
13218TIP3   OH239596   1.888   7.437   1.817
13218TIP3    H139597   1.890   7.344   1.838
13218TIP3    H239598   1.969   7.472   1.855
13219TIP3   OH239599   6.431   2.806   3.648
13219TIP3    H139600   6.510   2.761   3.681
13219TIP3    H239601   6.359   2.750   3.676
13220TIP3   OH239602   6.660   4.004   4.303
13220TIP3    H139603   6.586   3.966   4.351
13220TIP3    H239604   6.689   4.077   4.358
13221TIP3   OH239605   1.210   6.926   5.003
13221TIP3    H139606   1.221   6.861   4.933
13221TIP3    H239607   1.149   6.885   5.065
13222TIP3   OH239608   2.182   5.511   2.655
13222TIP3    H139609   2.247   5.581   2.647
13222TIP3    H239610   2.130   5.518   2.574
13223TIP3   OH239611   1.979   7.667   6.607
13223TIP3    H139612   1.933   7.729   6.663
13223TIP3    H239613   2.028   7.611   6.668
13224TIP3   OH239614   6.254   1.653   1.462
13224TIP3    H139615   6.286   1.611   1.541
13224TIP3    H239616   6.164   1.680   1.483
13225TIP3   OH239617   5.793   2.069   5.921
13225TIP3    H139618   5.805   2.130   5.849
13225TIP3    H239619   5.698   2.067   5.936
13226TIP3   OH239620   3.786   6.589   2.350
13226TIP3    H139621   3.703   6.631   2.370
13226TIP3    H239622   3.786   6.509   2.404
13227TIP3   OH239623   8.276   6.974   3.503
13227TIP3    H139624   8.250   6.887   3.474
13227TIP3    H239625   8.278   7.027   3.424
13228TIP3   OH239626   4.674   6.925   1.388
13228TIP3    H139627   4.714   6.976   1.458
13228TIP3    H239628   4.688   6.834   1.413
13229TIP3   OH239629   0.230   3.117   1.694
13229TIP3    H139630   0.147   3.165   1.690
13229TIP3    H239631   0.219   3.045   1.633
13230TIP3   OH239632   4.401   3.448   6.265
13230TIP3    H139633   4.455   3.427   6.342
13230TIP3    H239634   4.335   3.379   6.262
13231TIP3   OH239635   0.836   7.076   0.579
13231TIP3    H139636   0.854   7.168   0.598
13231TIP3    H239637   0.904   7.052   0.515
13232TIP3   OH239638   1.872   1.392   5.389
13232TIP3    H139639   1.892   1.339   5.466
13232TIP3    H239640   1.819   1.334   5.333
13233TIP3   OH239641   6.244   1.147   4.987
13233TIP3    H139642   6.235   1.224   4.931
13233TIP3    H239643   6.156   1.113   4.996
13234TIP3   OH239644   4.426   0.845   1.299
13234TIP3    H139645   4.466   0.761   1.276
13234TIP3    H239646   4.476   0.876   1.374
13235TIP3   OH239647   3.110   2.545   4.079
13235TIP3    H139648   3.017   2.527   4.090
13235TIP3    H239649   3.145   2.552   4.168
13236TIP3   OH239650   3.800   1.742   1.639
13236TIP3    H139651   3.841   1.713   1.721
13236TIP3    H239652   3.831   1.680   1.574
13237TIP3   OH239653   2.712   2.621   2.185
13237TIP3    H139654   2.806   2.619   2.200
13237TIP3    H239655   2.686   2.529   2.180
13238TIP3   OH239656   0.605   2.523   1.620
13238TIP3    H139657   0.547   2.491   1.551
13238TIP3    H239658   0.694   2.510   1.585
13239TIP3   OH239659   4.780   4.513   5.256
13239TIP3    H139660   4.696   4.537   5.217
13239TIP3    H239661   4.842   4.575   5.218
13240TIP3   OH239662   5.096   3.226   3.015
13240TIP3    H139663   5.183   3.200   2.984
13240TIP3    H239664   5.048   3.246   2.934
13241TIP3   OH239665   3.715   0.377   6.386
13241TIP3    H139666   3.627   0.340   6.374
13241TIP3    H239667   3.704   0.444   6.453
13242TIP3   OH239668   7.484   0.308   6.513
13242TIP3    H139669   7.486   0.384   6.455
13242TIP3    H239670   7.550   0.327   6.580
13243TIP3   OH239671   2.981   2.120   6.583
13243TIP3    H139672   3.015   2.178   6.515
13243TIP3    H239673   2.960   2.178   6.656
13244TIP3   OH239674   5.744   6.078   1.340
13244TIP3    H139675   5.697   6.103   1.419
13244TIP3    H239676   5.678   6.037   1.285
13245TIP3   OH239677   7.265   1.032   5.845
13245TIP3    H139678   7.244   1.035   5.939
13245TIP3    H239679   7.269   0.939   5.824
13246TIP3   OH239680   5.183   6.149   5.652
13246TIP3    H139681   5.152   6.190   5.571
13246TIP3    H239682   5.249   6.209   5.686
13247TIP3   OH239683   2.643   0.693   5.157
13247TIP3    H139684   2.654   0.641   5.237
13247TIP3    H239685   2.611   0.778   5.187
13248TIP3   OH239686   6.492   6.229   3.148
13248TIP3    H139687   6.583   6.235   3.117
13248TIP3    H239688   6.455   6.316   3.132
13249TIP3   OH239689   4.834   7.006   5.326
13249TIP3    H139690   4.827   6.922   5.371
13249TIP3    H239691   4.744   7.028   5.303
13250TIP3   OH239692   3.804   0.995   0.372
13250TIP3    H139693   3.870   0.927   0.360
13250TIP3    H239694   3.810   1.049   0.294
13251TIP3   OH239695   7.254   7.504   6.756
13251TIP3    H139696   7.258   7.575   6.692
13251TIP3    H239697   7.332   7.515   6.810
13252TIP3   OH239698   7.138   6.331   5.797
13252TIP3    H139699   7.181   6.403   5.750
13252TIP3    H239700   7.051   6.365   5.817
13253TIP3   OH239701   4.390   1.583   3.979
13253TIP3    H139702   4.403   1.669   4.019
13253TIP3    H239703   4.324   1.597   3.911
13254TIP3   OH239704   6.632   0.874   1.355
13254TIP3    H139705   6.641   0.806   1.422
13254TIP3    H239706   6.653   0.956   1.401
13255TIP3   OH239707   3.805   4.226   2.084
13255TIP3    H139708   3.818   4.156   2.148
13255TIP3    H239709   3.808   4.307   2.136
13256TIP3   OH239710   1.226   6.839   5.450
13256TIP3    H139711   1.257   6.801   5.367
13256TIP3    H239712   1.281   6.916   5.463
13257TIP3   OH239713   3.617   0.683   3.264
13257TIP3    H139714   3.654   0.606   3.307
13257TIP3    H239715   3.678   0.703   3.194
13258TIP3   OH239716   1.824   5.595   0.534
13258TIP3    H139717   1.859   5.546   0.608
13258TIP3    H239718   1.804   5.682   0.571
13259TIP3   OH239719   4.060   3.309   4.040
13259TIP3    H139720   4.027   3.307   3.950
13259TIP3    H239721   4.120   3.235   4.045
13260TIP3   OH239722   6.869   4.612   4.768
13260TIP3    H139723   6.795   4.648   4.719
13260TIP3    H239724   6.879   4.672   4.843
13261TIP3   OH239725   6.365   7.352   2.511
13261TIP3    H139726   6.369   7.447   2.527
13261TIP3    H239727   6.451   7.331   2.472
13262TIP3   OH239728   5.426   2.130   4.435
13262TIP3    H139729   5.377   2.133   4.516
13262TIP3    H239730   5.364   2.097   4.370
13263TIP3   OH239731   2.117   1.424   5.960
13263TIP3    H139732   2.126   1.502   5.906
13263TIP3    H239733   2.037   1.382   5.928
13264TIP3   OH239734   6.695   3.312   6.667
13264TIP3    H139735   6.621   3.261   6.700
13264TIP3    H239736   6.769   3.285   6.723
13265TIP3   OH239737   8.266   2.564   6.618
13265TIP3    H139738   8.202   2.531   6.681
13265TIP3    H239739   8.350   2.533   6.650
13266TIP3   OH239740   5.187   2.484   0.551
13266TIP3    H139741   5.155   2.399   0.583
13266TIP3    H239742   5.154   2.489   0.461
13267TIP3   OH239743   6.043   5.151   4.854
13267TIP3    H139744   6.130   5.188   4.864
13267TIP3    H239745   5.989   5.225   4.825
13268TIP3   OH239746   0.232   5.191   1.288
13268TIP3    H139747   0.189   5.275   1.271
13268TIP3    H239748   0.307   5.212   1.342
13269TIP3   OH239749   5.470   2.337   0.810
13269TIP3    H139750   5.444   2.409   0.752
13269TIP3    H239751   5.425   2.260   0.775
13270TIP3   OH239752   4.758   6.700   5.753
13270TIP3    H139753   4.679   6.741   5.789
13270TIP3    H239754   4.831   6.747   5.794
13271TIP3   OH239755   4.281   4.014   1.356
13271TIP3    H139756   4.255   3.922   1.358
13271TIP3    H239757   4.213   4.060   1.405
13272TIP3   OH239758   6.696   2.927   6.226
13272TIP3    H139759   6.737   3.004   6.186
13272TIP3    H239760   6.736   2.852   6.181
13273TIP3   OH239761   0.647   5.416   2.323
13273TIP3    H139762   0.564   5.459   2.342
13273TIP3    H239763   0.711   5.487   2.319
13274TIP3   OH239764   3.884   2.833   1.468
13274TIP3    H139765   3.950   2.785   1.416
13274TIP3    H239766   3.931   2.908   1.503
13275TIP3   OH239767   1.641   7.787   3.110
13275TIP3    H139768   1.702   7.735   3.162
13275TIP3    H239769   1.569   7.807   3.169
13276TIP3   OH239770   5.287   1.974   5.896
13276TIP3    H139771   5.265   2.060   5.860
13276TIP3    H239772   5.209   1.949   5.946
13277TIP3   OH239773   2.272   6.928   5.045
13277TIP3    H139774   2.297   6.836   5.053
13277TIP3    H239775   2.252   6.939   4.952
13278TIP3   OH239776   1.573   5.976   2.574
13278TIP3    H139777   1.491   5.935   2.546
13278TIP3    H239778   1.594   5.934   2.658
13279TIP3   OH239779   0.435   0.757   1.737
13279TIP3    H139780   0.376   0.829   1.716
13279TIP3    H239781   0.392   0.711   1.810
13280TIP3   OH239782   2.765   7.688   3.287
13280TIP3    H139783   2.753   7.772   3.331
13280TIP3    H239784   2.678   7.648   3.286
13281TIP3   OH239785   6.350   3.162   1.761
13281TIP3    H139786   6.372   3.114   1.841
13281TIP3    H239787   6.292   3.102   1.713
13282TIP3   OH239788   3.624   7.590   5.938
13282TIP3    H139789   3.662   7.597   5.851
13282TIP3    H239790   3.658   7.666   5.985
13283TIP3   OH239791   3.875   2.817   2.571
13283TIP3    H139792   3.800   2.837   2.628
13283TIP3    H239793   3.930   2.760   2.624
13284TIP3   OH239794   5.304   4.803   0.559
13284TIP3    H139795   5.276   4.894   0.565
13284TIP3    H239796   5.224   4.752   0.572
13285TIP3   OH239797   4.092   5.530   5.414
13285TIP3    H139798   4.084   5.473   5.337
13285TIP3    H239799   4.180   5.512   5.447
13286TIP3   OH239800   0.588   6.445   2.729
13286TIP3    H139801   0.541   6.518   2.770
13286TIP3    H239802   0.617   6.481   2.645
13287TIP3   OH239803   0.487   1.615   0.185
13287TIP3    H139804   0.484   1.619   0.090
13287TIP3    H239805   0.395   1.609   0.212
13288TIP3   OH239806   5.524   0.715   2.464
13288TIP3    H139807   5.518   0.725   2.369
13288TIP3    H239808   5.433   0.704   2.492
13289TIP3   OH239809   6.139   1.539   3.424
13289TIP3    H139810   6.098   1.523   3.339
13289TIP3    H239811   6.123   1.459   3.474
13290TIP3   OH239812   7.575   6.270   4.427
13290TIP3    H139813   7.670   6.267   4.412
13290TIP3    H239814   7.539   6.298   4.343
13291TIP3   OH239815   7.355   3.490   0.822
13291TIP3    H139816   7.314   3.537   0.750
13291TIP3    H239817   7.446   3.522   0.823
13292TIP3   OH239818   7.800   3.022   0.769
13292TIP3    H139819   7.752   2.954   0.722
13292TIP3    H239820   7.792   2.997   0.861
13293TIP3   OH239821   2.389   5.220   5.378
13293TIP3    H139822   2.316   5.165   5.406
13293TIP3    H239823   2.352   5.307   5.367
13294TIP3   OH239824   6.006   5.487   2.168
13294TIP3    H139825   5.988   5.547   2.096
13294TIP3    H239826   6.082   5.525   2.212
13295TIP3   OH239827   3.846   1.859   4.810
13295TIP3    H139828   3.828   1.953   4.803
13295TIP3    H239829   3.841   1.842   4.904
13296TIP3   OH239830   1.444   1.699   5.474
13296TIP3    H139831   1.491   1.728   5.395
13296TIP3    H239832   1.498   1.628   5.509
13297TIP3   OH239833   1.672   1.332   1.565
13297TIP3    H139834   1.631   1.247   1.552
13297TIP3    H239835   1.733   1.342   1.491
13298TIP3   OH239836   3.677   5.007   2.769
13298TIP3    H139837   3.760   5.005   2.815
13298TIP3    H239838   3.671   4.922   2.725
13299TIP3   OH239839   2.555   7.665   5.609
13299TIP3    H139840   2.523   7.754   5.624
13299TIP3    H239841   2.622   7.652   5.677
13300TIP3   OH239842   0.564   5.506   5.868
13300TIP3    H139843   0.650   5.466   5.881
13300TIP3    H239844   0.582   5.591   5.827
13301TIP3   OH239845   4.947   6.401   5.530
13301TIP3    H139846   4.986   6.489   5.536
13301TIP3    H239847   5.007   6.352   5.473
13302TIP3   OH239848   7.481   1.057   5.271
13302TIP3    H139849   7.394   1.052   5.311
13302TIP3    H239850   7.491   0.974   5.226
13303TIP3   OH239851   2.620   3.233   2.859
13303TIP3    H139852   2.699   3.255   2.810
13303TIP3    H239853   2.566   3.185   2.797
13304TIP3   OH239854   4.122   5.679   2.305
13304TIP3    H139855   4.084   5.757   2.345
13304TIP3    H239856   4.074   5.606   2.345
13305TIP3   OH239857   1.268   4.131   1.292
13305TIP3    H139858   1.264   4.170   1.379
13305TIP3    H239859   1.179   4.100   1.276
13306TIP3   OH239860   1.574   3.868   0.836
13306TIP3    H139861   1.491   3.823   0.818
13306TIP3    H239862   1.640   3.800   0.829
13307TIP3   OH239863   1.881   2.981   2.518
13307TIP3    H139864   1.853   3.024   2.437
13307TIP3    H239865   1.799   2.950   2.557
13308TIP3   OH239866   7.097   2.096   6.141
13308TIP3    H139867   7.081   2.006   6.170
13308TIP3    H239868   7.099   2.092   6.046
13309TIP3   OH239869   1.604   0.410   4.171
13309TIP3    H139870   1.569   0.381   4.087
13309TIP3    H239871   1.527   0.437   4.221
13310TIP3   OH239872   2.437   4.947   0.780
13310TIP3    H139873   2.498   4.873   0.776
13310TIP3    H239874   2.464   5.004   0.708
13311TIP3   OH239875   4.710   4.503   5.633
13311TIP3    H139876   4.682   4.452   5.708
13311TIP3    H239877   4.629   4.524   5.586
13312TIP3   OH239878   3.518   5.442   2.997
13312TIP3    H139879   3.503   5.413   2.907
13312TIP3    H239880   3.508   5.537   2.994
13313TIP3   OH239881   7.630   4.464   0.792
13313TIP3    H139882   7.624   4.369   0.784
13313TIP3    H239883   7.541   4.492   0.816
13314TIP3   OH239884   2.787   3.821   0.045
13314TIP3    H139885   2.695   3.808   0.024
13314TIP3    H239886   2.815   3.737   0.083
13315TIP3   OH239887   3.238   0.057   4.928
13315TIP3    H139888   3.294   0.128   4.896
13315TIP3    H239889   3.214   0.008   4.849
13316TIP3   OH239890   8.104   4.272   1.311
13316TIP3    H139891   8.176   4.335   1.318
13316TIP3    H239892   8.038   4.317   1.259
13317TIP3   OH239893   1.231   2.124   4.002
13317TIP3    H139894   1.139   2.115   4.024
13317TIP3    H239895   1.278   2.109   4.084
13318TIP3   OH239896   6.967   1.451   6.665
13318TIP3    H139897   6.916   1.526   6.634
13318TIP3    H239898   7.013   1.484   6.742
13319TIP3   OH239899   6.965   3.808   1.403
13319TIP3    H139900   6.916   3.789   1.483
13319TIP3    H239901   7.055   3.786   1.423
13320TIP3   OH239902   2.856   1.526   5.383
13320TIP3    H139903   2.905   1.605   5.407
13320TIP3    H239904   2.918   1.454   5.397
13321TIP3   OH239905   8.195   0.870   2.647
13321TIP3    H139906   8.257   0.827   2.588
13321TIP3    H239907   8.228   0.851   2.734
13322TIP3   OH239908   2.628   4.028   2.637
13322TIP3    H139909   2.599   4.092   2.702
13322TIP3    H239910   2.705   4.068   2.597
13323TIP3   OH239911   5.938   1.369   0.795
13323TIP3    H139912   5.970   1.283   0.765
13323TIP3    H239913   5.853   1.379   0.752
13324TIP3   OH239914   2.668   2.022   2.610
13324TIP3    H139915   2.714   2.104   2.627
13324TIP3    H239916   2.684   1.969   2.689
13325TIP3   OH239917   6.786   6.272   2.545
13325TIP3    H139918   6.744   6.190   2.520
13325TIP3    H239919   6.817   6.257   2.634
13326TIP3   OH239920   7.874   4.659   2.740
13326TIP3    H139921   7.960   4.662   2.699
13326TIP3    H239922   7.869   4.739   2.792
13327TIP3   OH239923   8.063   5.214   5.820
13327TIP3    H139924   8.135   5.203   5.882
13327TIP3    H239925   7.986   5.231   5.874
13328TIP3   OH239926   2.166   6.229   0.098
13328TIP3    H139927   2.140   6.316   0.067
13328TIP3    H239928   2.242   6.206   0.045
13329TIP3   OH239929   8.011   5.086   0.906
13329TIP3    H139930   7.940   5.022   0.895
13329TIP3    H239931   8.059   5.083   0.824
13330TIP3   OH239932   8.206   4.634   0.502
13330TIP3    H139933   8.275   4.698   0.485
13330TIP3    H239934   8.236   4.555   0.456
13331TIP3   OH239935   0.811   2.991   4.921
13331TIP3    H139936   0.808   2.902   4.886
13331TIP3    H239937   0.719   3.019   4.924
13332TIP3   OH239938   2.261   2.115   3.804
13332TIP3    H139939   2.196   2.185   3.800
13332TIP3    H239940   2.210   2.035   3.820
13333TIP3   OH239941   0.772   5.342   3.339
13333TIP3    H139942   0.808   5.334   3.427
13333TIP3    H239943   0.780   5.435   3.317
13334TIP3   OH239944   4.735   5.899   1.983
13334TIP3    H139945   4.819   5.904   1.937
13334TIP3    H239946   4.678   5.961   1.938
13335TIP3   OH239947   0.514   3.285   5.158
13335TIP3    H139948   0.524   3.360   5.217
13335TIP3    H239949   0.550   3.211   5.207
13336TIP3   OH239950   1.063   5.470   3.019
13336TIP3    H139951   1.137   5.422   3.056
13336TIP3    H239952   1.103   5.543   2.972
13337TIP3   OH239953   6.357   1.662   0.234
13337TIP3    H139954   6.356   1.731   0.300
13337TIP3    H239955   6.265   1.645   0.215
13338TIP3   OH239956   1.310   1.686   3.116
13338TIP3    H139957   1.249   1.663   3.186
13338TIP3    H239958   1.298   1.619   3.049
13339TIP3   OH239959   1.821   1.550   5.921
13339TIP3    H139960   1.847   1.590   6.004
13339TIP3    H239961   1.825   1.622   5.858
13340TIP3   OH239962   7.942   5.792   0.977
13340TIP3    H139963   7.876   5.723   0.977
13340TIP3    H239964   7.894   5.871   0.954
13341TIP3   OH239965   0.043   3.182   2.021
13341TIP3    H139966   0.060   3.276   2.017
13341TIP3    H239967  -0.032   3.173   2.079
13342TIP3   OH239968   7.323   6.738   3.995
13342TIP3    H139969   7.409   6.778   3.978
13342TIP3    H239970   7.327   6.711   4.087
13343TIP3   OH239971   4.952   4.414   6.703
13343TIP3    H139972   5.001   4.475   6.757
13343TIP3    H239973   5.001   4.332   6.709
13344TIP3   OH239974   2.291   4.891   4.537
13344TIP3    H139975   2.360   4.956   4.548
13344TIP3    H239976   2.268   4.865   4.627
13345TIP3   OH239977   7.229   0.411   5.788
13345TIP3    H139978   7.140   0.396   5.758
13345TIP3    H239979   7.243   0.505   5.776
13346TIP3   OH239980   0.788   1.511   6.004
13346TIP3    H139981   0.816   1.548   5.920
13346TIP3    H239982   0.799   1.581   6.067
13347TIP3   OH239983   2.932   6.494   2.064
13347TIP3    H139984   3.024   6.505   2.040
13347TIP3    H239985   2.931   6.420   2.124
13348TIP3   OH239986   2.803   5.110   2.824
13348TIP3    H139987   2.807   5.021   2.791
13348TIP3    H239988   2.718   5.143   2.795
13349TIP3   OH239989   1.905   1.753   5.678
13349TIP3    H139990   1.920   1.792   5.592
13349TIP3    H239991   1.978   1.783   5.732
13350TIP3   OH239992   1.132   0.657   2.563
13350TIP3    H139993   1.199   0.720   2.536
13350TIP3    H239994   1.152   0.639   2.655
13351TIP3   OH239995   6.575   4.720   5.412
13351TIP3    H139996   6.570   4.628   5.437
13351TIP3    H239997   6.518   4.764   5.476
13352TIP3   OH239998   7.520   6.831   5.339
13352TIP3    H139999   7.478   6.917   5.334
13352TIP3    H240000   7.511   6.805   5.431
13353TIP3   OH240001   6.531   3.321   5.026
13353TIP3    H140002   6.447   3.347   4.988
13353TIP3    H240003   6.590   3.313   4.950
13354TIP3   OH240004   6.206   3.197   2.562
13354TIP3    H140005   6.129   3.141   2.545
13354TIP3    H240006   6.266   3.177   2.489
13355TIP3   OH240007   7.859   1.446   6.220
13355TIP3    H140008   7.898   1.440   6.133
13355TIP3    H240009   7.841   1.539   6.233
13356TIP3   OH240010   1.829   5.845   3.189
13356TIP3    H140011   1.829   5.780   3.119
13356TIP3    H240012   1.750   5.897   3.174
13357TIP3   OH240013   8.014   2.740   5.543
13357TIP3    H140014   8.030   2.651   5.576
13357TIP3    H240015   7.924   2.760   5.571
13358TIP3   OH240016   4.245   7.405   0.339
13358TIP3    H140017   4.284   7.400   0.426
13358TIP3    H240018   4.309   7.364   0.281
13359TIP3   OH240019   3.325   0.315   5.963
13359TIP3    H140020   3.327   0.220   5.950
13359TIP3    H240021   3.417   0.339   5.975
13360TIP3   OH240022   2.868   3.135   4.317
13360TIP3    H140023   2.868   3.049   4.276
13360TIP3    H240024   2.953   3.172   4.296
13361TIP3   OH240025   6.300   2.742   3.074
13361TIP3    H140026   6.240   2.797   3.023
13361TIP3    H240027   6.341   2.684   3.010
13362TIP3   OH240028   5.867   5.169   3.666
13362TIP3    H140029   5.801   5.230   3.699
13362TIP3    H240030   5.828   5.132   3.587
13363TIP3   OH240031   3.459   3.624   6.509
13363TIP3    H140032   3.467   3.607   6.415
13363TIP3    H240033   3.428   3.542   6.546
13364TIP3   OH240034   5.394   2.751   5.310
13364TIP3    H140035   5.402   2.717   5.399
13364TIP3    H240036   5.476   2.798   5.294
13365TIP3   OH240037   5.798   5.840   1.669
13365TIP3    H140038   5.855   5.792   1.610
13365TIP3    H240039   5.832   5.820   1.757
13366TIP3   OH240040   7.373   5.391   5.672
13366TIP3    H140041   7.433   5.429   5.608
13366TIP3    H240042   7.409   5.304   5.690
13367TIP3   OH240043   4.927   5.319   3.300
13367TIP3    H140044   4.855   5.256   3.310
13367TIP3    H240045   4.975   5.289   3.223
13368TIP3   OH240046   6.263   3.139   5.095
13368TIP3    H140047   6.277   3.100   5.009
13368TIP3    H240048   6.288   3.231   5.084
13369TIP3   OH240049   7.049   0.558   6.518
13369TIP3    H140050   7.049   0.610   6.599
13369TIP3    H240051   7.104   0.608   6.458
13370TIP3   OH240052   6.774   2.457   1.727
13370TIP3    H140053   6.710   2.445   1.657
13370TIP3    H240054   6.778   2.371   1.770
13371TIP3   OH240055   3.066   2.890   1.418
13371TIP3    H140056   3.003   2.886   1.489
13371TIP3    H240057   3.024   2.843   1.345
13372TIP3   OH240058   6.297   5.599   4.424
13372TIP3    H140059   6.350   5.636   4.495
13372TIP3    H240060   6.240   5.536   4.468
13373TIP3   OH240061   2.759   1.072   3.573
13373TIP3    H140062   2.709   1.092   3.652
13373TIP3    H240063   2.726   0.987   3.545
13374TIP3   OH240064   2.918   5.054   3.394
13374TIP3    H140065   2.900   5.035   3.486
13374TIP3    H240066   2.976   5.130   3.396
13375TIP3   OH240067   4.853   0.646   3.600
13375TIP3    H140068   4.921   0.590   3.562
13375TIP3    H240069   4.879   0.657   3.692
13376TIP3   OH240070   3.848   5.839   5.907
13376TIP3    H140071   3.918   5.776   5.885
13376TIP3    H240072   3.858   5.908   5.841
13377TIP3   OH240073   3.606   0.360   4.501
13377TIP3    H140074   3.518   0.396   4.506
13377TIP3    H240075   3.600   0.289   4.437
13378TIP3   OH240076   7.001   6.788   3.559
13378TIP3    H140077   7.004   6.883   3.564
13378TIP3    H240078   7.026   6.759   3.647
13379TIP3   OH240079   0.738   2.270   2.654
13379TIP3    H140080   0.822   2.232   2.629
13379TIP3    H240081   0.685   2.195   2.681
13380TIP3   OH240082   1.332   3.477   6.261
13380TIP3    H140083   1.241   3.480   6.234
13380TIP3    H240084   1.381   3.513   6.187
13381TIP3   OH240085   4.707   5.779   5.037
13381TIP3    H140086   4.630   5.798   5.090
13381TIP3    H240087   4.763   5.856   5.047
13382TIP3   OH240088   6.391   5.858   3.632
13382TIP3    H140089   6.451   5.785   3.617
13382TIP3    H240090   6.445   5.936   3.624
13383TIP3   OH240091   6.138   0.364   6.164
13383TIP3    H140092   6.147   0.298   6.096
13383TIP3    H240093   6.085   0.433   6.124
13384TIP3   OH240094   1.977   3.318   2.262
13384TIP3    H140095   2.063   3.300   2.223
13384TIP3    H240096   1.996   3.334   2.354
13385TIP3   OH240097   4.245   7.125   3.526
13385TIP3    H140098   4.295   7.096   3.602
13385TIP3    H240099   4.282   7.076   3.452
13386TIP3   OH240100   4.469   2.821   2.280
13386TIP3    H140101   4.469   2.900   2.334
13386TIP3    H240102   4.516   2.847   2.200
13387TIP3   OH240103   3.076   0.613   4.709
13387TIP3    H140104   3.167   0.585   4.699
13387TIP3    H240105   3.048   0.640   4.622
13388TIP3   OH240106   2.503   4.595   5.477
13388TIP3    H140107   2.567   4.619   5.544
13388TIP3    H240108   2.480   4.677   5.435
13389TIP3   OH240109   8.180   2.193   6.245
13389TIP3    H140110   8.244   2.191   6.174
13389TIP3    H240111   8.229   2.227   6.320
13390TIP3   OH240112   1.905   2.878   0.615
13390TIP3    H140113   1.882   2.834   0.697
13390TIP3    H240114   1.986   2.925   0.635
13391TIP3   OH240115   5.525   5.142   1.856
13391TIP3    H140116   5.516   5.047   1.847
13391TIP3    H240117   5.435   5.175   1.855
13392TIP3   OH240118   7.317   3.357   2.472
13392TIP3    H140119   7.341   3.449   2.484
13392TIP3    H240120   7.399   3.310   2.479
13393TIP3   OH240121   4.428   5.501   5.925
13393TIP3    H140122   4.506   5.539   5.883
13393TIP3    H240123   4.457   5.414   5.953
13394TIP3   OH240124   6.200   2.932   3.976
13394TIP3    H140125   6.291   2.903   3.979
13394TIP3    H240126   6.166   2.913   4.063
13395TIP3   OH240127   6.381   7.619   4.772
13395TIP3    H140128   6.312   7.552   4.779
13395TIP3    H240129   6.461   7.569   4.757
13396TIP3   OH240130   0.327   2.227   5.505
13396TIP3    H140131   0.410   2.270   5.525
13396TIP3    H240132   0.295   2.194   5.589
13397TIP3   OH240133   3.178   6.944   1.856
13397TIP3    H140134   3.102   6.927   1.912
13397TIP3    H240135   3.180   7.039   1.847
13398TIP3   OH240136   3.196   2.310   2.316
13398TIP3    H140137   3.114   2.356   2.336
13398TIP3    H240138   3.229   2.281   2.401
13399TIP3   OH240139   0.301   6.886   5.621
13399TIP3    H140140   0.354   6.854   5.694
13399TIP3    H240141   0.211   6.877   5.652
13400TIP3   OH240142   0.738   4.471   0.482
13400TIP3    H140143   0.749   4.514   0.397
13400TIP3    H240144   0.791   4.392   0.476
13401TIP3   OH240145   3.785   6.950   4.691
13401TIP3    H140146   3.702   6.996   4.706
13401TIP3    H240147   3.769   6.860   4.720
13402TIP3   OH240148   2.637   5.051   0.638
13402TIP3    H140149   2.692   5.043   0.716
13402TIP3    H240150   2.695   5.087   0.571
13403TIP3   OH240151   1.533   0.209   1.431
13403TIP3    H140152   1.486   0.147   1.375
13403TIP3    H240153   1.609   0.234   1.379
13404TIP3   OH240154   7.328   2.535   2.903
13404TIP3    H140155   7.404   2.508   2.852
13404TIP3    H240156   7.256   2.482   2.868
13405TIP3   OH240157   7.841   5.471   1.950
13405TIP3    H140158   7.910   5.513   1.898
13405TIP3    H240159   7.888   5.423   2.018
13406TIP3   OH240160   3.767   6.746   3.923
13406TIP3    H140161   3.714   6.821   3.897
13406TIP3    H240162   3.779   6.756   4.017
13407TIP3   OH240163   6.514   3.339   6.105
13407TIP3    H140164   6.486   3.311   6.192
13407TIP3    H240165   6.434   3.367   6.061
13408TIP3   OH240166   2.615   3.714   1.175
13408TIP3    H140167   2.623   3.658   1.097
13408TIP3    H240168   2.597   3.801   1.139
13409TIP3   OH240169   3.228   1.526   1.804
13409TIP3    H140170   3.183   1.522   1.719
13409TIP3    H240171   3.202   1.445   1.848
13410TIP3   OH240172   3.073   5.126   2.695
13410TIP3    H140173   3.008   5.101   2.760
13410TIP3    H240174   3.148   5.069   2.711
13411TIP3   OH240175   7.163   5.964   6.030
13411TIP3    H140176   7.245   5.996   6.067
13411TIP3    H240177   7.167   5.989   5.937
13412TIP3   OH240178   5.117   2.811   5.244
13412TIP3    H140179   5.200   2.789   5.285
13412TIP3    H240180   5.090   2.893   5.286
13413TIP3   OH240181   3.979   2.279   4.778
13413TIP3    H140182   3.888   2.255   4.763
13413TIP3    H240183   4.002   2.233   4.859
13414TIP3   OH240184   6.569   1.010   0.116
13414TIP3    H140185   6.596   1.069   0.187
13414TIP3    H240186   6.557   1.067   0.040
13415TIP3   OH240187   7.975   2.702   2.128
13415TIP3    H140188   8.046   2.765   2.138
13415TIP3    H240189   7.970   2.687   2.033
13416TIP3   OH240190   5.391   4.512   1.194
13416TIP3    H140191   5.457   4.519   1.125
13416TIP3    H240192   5.404   4.589   1.248
13417TIP3   OH240193   6.642   4.996   3.204
13417TIP3    H140194   6.701   4.977   3.131
13417TIP3    H240195   6.654   4.923   3.265
13418TIP3   OH240196   7.716   2.445   6.219
13418TIP3    H140197   7.805   2.415   6.199
13418TIP3    H240198   7.699   2.412   6.307
13419TIP3   OH240199   5.359   7.442   3.101
13419TIP3    H140200   5.330   7.352   3.113
13419TIP3    H240201   5.454   7.438   3.112
13420TIP3   OH240202   2.984   7.320   4.905
13420TIP3    H140203   2.893   7.328   4.935
13420TIP3    H240204   3.036   7.342   4.982
13421TIP3   OH240205   0.098   7.024   6.320
13421TIP3    H140206   0.167   6.964   6.348
13421TIP3    H240207   0.018   6.971   6.323
13422TIP3   OH240208   3.524   0.521   0.264
13422TIP3    H140209   3.578   0.480   0.332
13422TIP3    H240210   3.563   0.607   0.251
13423TIP3   OH240211   3.317   7.610   2.093
13423TIP3    H140212   3.271   7.566   2.165
13423TIP3    H240213   3.300   7.703   2.107
13424TIP3   OH240214   6.888   4.478   3.046
13424TIP3    H140215   6.859   4.449   3.132
13424TIP3    H240216   6.962   4.536   3.064
13425TIP3   OH240217   0.231   0.414   0.033
13425TIP3    H140218   0.143   0.413   0.072
13425TIP3    H240219   0.223   0.361  -0.046
13426TIP3   OH240220   3.692   2.055   2.183
13426TIP3    H140221   3.661   2.143   2.208
13426TIP3    H240222   3.678   2.002   2.261
13427TIP3   OH240223   2.760   2.700   2.885
13427TIP3    H140224   2.779   2.606   2.880
13427TIP3    H240225   2.689   2.708   2.948
13428TIP3   OH240226   1.681   5.267   1.390
13428TIP3    H140227   1.751   5.262   1.325
13428TIP3    H240228   1.670   5.360   1.406
13429TIP3   OH240229   2.250   0.114   0.870
13429TIP3    H140230   2.210   0.171   0.805
13429TIP3    H240231   2.341   0.104   0.841
13430TIP3   OH240232   8.190   1.355   1.991
13430TIP3    H140233   8.261   1.396   2.040
13430TIP3    H240234   8.128   1.324   2.058
13431TIP3   OH240235   0.108   2.910   0.648
13431TIP3    H140236   0.071   2.850   0.712
13431TIP3    H240237   0.117   2.858   0.568
13432TIP3   OH240238   6.682   3.209   0.424
13432TIP3    H140239   6.711   3.260   0.500
13432TIP3    H240240   6.752   3.221   0.359
13433TIP3   OH240241   0.017   4.168   3.324
13433TIP3    H140242   0.017   4.254   3.281
13433TIP3    H240243   0.101   4.164   3.371
13434TIP3   OH240244   5.533   7.564   5.428
13434TIP3    H140245   5.459   7.606   5.384
13434TIP3    H240246   5.608   7.618   5.405
13435TIP3   OH240247   7.577   2.374   3.381
13435TIP3    H140248   7.508   2.440   3.389
13435TIP3    H240249   7.588   2.341   3.470
13436TIP3   OH240250   5.553   5.933   0.061
13436TIP3    H140251   5.534   5.869   0.130
13436TIP3    H240252   5.554   5.881  -0.019
13437TIP3   OH240253   6.827   7.478   3.163
13437TIP3    H140254   6.919   7.500   3.177
13437TIP3    H240255   6.811   7.497   3.071
13438TIP3   OH240256   4.063   1.580   1.213
13438TIP3    H140257   4.124   1.513   1.185
13438TIP3    H240258   3.977   1.538   1.208
13439TIP3   OH240259   6.557   1.643   2.538
13439TIP3    H140260   6.625   1.692   2.491
13439TIP3    H240261   6.494   1.710   2.565
13440TIP3   OH240262   0.196   3.792   2.972
13440TIP3    H140263   0.113   3.834   2.950
13440TIP3    H240264   0.184   3.700   2.949
13441TIP3   OH240265   2.248   3.818   5.736
13441TIP3    H140266   2.157   3.842   5.721
13441TIP3    H240267   2.259   3.733   5.693
13442TIP3   OH240268   7.871   4.360   2.746
13442TIP3    H140269   7.890   4.448   2.778
13442TIP3    H240270   7.949   4.309   2.769
13443TIP3   OH240271   3.815   1.451   3.349
13443TIP3    H140272   3.895   1.426   3.302
13443TIP3    H240273   3.747   1.395   3.311
13444TIP3   OH240274   5.747   3.281   2.210
13444TIP3    H140275   5.661   3.286   2.169
13444TIP3    H240276   5.785   3.368   2.196
13445TIP3   OH240277   6.754   0.516   2.107
13445TIP3    H140278   6.699   0.501   2.184
13445TIP3    H240279   6.828   0.456   2.118
13446TIP3   OH240280   5.224   3.245   1.040
13446TIP3    H140281   5.134   3.226   1.064
13446TIP3    H240282   5.225   3.243   0.944
13447TIP3   OH240283   7.363   2.888   1.535
13447TIP3    H140284   7.436   2.921   1.587
13447TIP3    H240285   7.375   2.793   1.534
13448TIP3   OH240286   1.757   2.083   3.673
13448TIP3    H140287   1.679   2.048   3.631
13448TIP3    H240288   1.812   2.114   3.601
13449TIP3   OH240289   2.153   1.493   6.545
13449TIP3    H140290   2.062   1.468   6.563
13449TIP3    H240291   2.157   1.500   6.450
13450TIP3   OH240292   3.007   3.780   2.299
13450TIP3    H140293   2.925   3.829   2.286
13450TIP3    H240294   2.981   3.688   2.289
13451TIP3   OH240295   3.515   6.301   2.355
13451TIP3    H140296   3.486   6.393   2.357
13451TIP3    H240297   3.452   6.257   2.298
13452TIP3   OH240298   6.919   3.405   3.433
13452TIP3    H140299   6.955   3.494   3.442
13452TIP3    H240300   6.825   3.416   3.447
13453TIP3   OH240301   4.930   4.179   2.346
13453TIP3    H140302   4.948   4.093   2.308
13453TIP3    H240303   4.840   4.172   2.379
13454TIP3   OH240304   4.032   1.339   3.746
13454TIP3    H140305   4.118   1.331   3.787
13454TIP3    H240306   3.970   1.340   3.819
13455TIP3   OH240307   1.799   5.188   1.627
13455TIP3    H140308   1.789   5.190   1.532
13455TIP3    H240309   1.858   5.261   1.647
13456TIP3   OH240310   3.318   7.085   2.970
13456TIP3    H140311   3.270   7.083   2.887
13456TIP3    H240312   3.395   7.139   2.951
13457TIP3   OH240313   1.501   0.952   3.325
13457TIP3    H140314   1.431   1.008   3.290
13457TIP3    H240315   1.459   0.867   3.339
13458TIP3   OH240316   2.731   2.680   0.963
13458TIP3    H140317   2.689   2.605   1.005
13458TIP3    H240318   2.824   2.658   0.961
13459TIP3   OH240319   5.901   1.320   1.087
13459TIP3    H140320   5.864   1.300   1.001
13459TIP3    H240321   5.934   1.410   1.078
13460TIP3   OH240322   5.532   5.894   3.876
13460TIP3    H140323   5.514   5.816   3.928
13460TIP3    H240324   5.490   5.966   3.923
13461TIP3   OH240325   7.222   0.775   0.984
13461TIP3    H140326   7.128   0.766   0.972
13461TIP3    H240327   7.260   0.715   0.919
13462TIP3   OH240328   5.839   1.639   2.236
13462TIP3    H140329   5.922   1.626   2.190
13462TIP3    H240330   5.810   1.550   2.257
13463TIP3   OH240331   8.122   2.511   4.372
13463TIP3    H140332   8.122   2.598   4.333
13463TIP3    H240333   8.160   2.524   4.459
13464TIP3   OH240334   6.232   6.213   5.225
13464TIP3    H140335   6.297   6.143   5.220
13464TIP3    H240336   6.149   6.167   5.234
13465TIP3   OH240337   0.574   1.092   4.551
13465TIP3    H140338   0.545   1.076   4.461
13465TIP3    H240339   0.515   1.040   4.605
13466TIP3   OH240340   4.030   0.961   5.974
13466TIP3    H140341   4.125   0.974   5.972
13466TIP3    H240342   4.019   0.866   5.977
13467TIP3   OH240343   8.077   7.138   6.710
13467TIP3    H140344   8.131   7.214   6.732
13467TIP3    H240345   8.002   7.144   6.769
13468TIP3   OH240346   6.076   2.830   2.947
13468TIP3    H140347   6.048   2.758   2.891
13468TIP3    H240348   5.998   2.884   2.958
13469TIP3   OH240349   5.116   0.973   0.640
13469TIP3    H140350   5.144   1.065   0.639
13469TIP3    H240351   5.097   0.955   0.732
13470TIP3   OH240352   1.556   5.716   0.531
13470TIP3    H140353   1.638   5.763   0.548
13470TIP3    H240354   1.554   5.647   0.597
13471TIP3   OH240355   5.890   0.088   0.953
13471TIP3    H140356   5.837   0.041   1.017
13471TIP3    H240357   5.866   0.180   0.963
13472TIP3   OH240358   6.842   0.191   4.524
13472TIP3    H140359   6.872   0.223   4.609
13472TIP3    H240360   6.898   0.115   4.507
13473TIP3   OH240361   4.560   1.222   0.227
13473TIP3    H140362   4.646   1.260   0.243
13473TIP3    H240363   4.558   1.204   0.133
13474TIP3   OH240364   1.502   2.988   6.750
13474TIP3    H140365   1.524   2.915   6.807
13474TIP3    H240366   1.427   3.030   6.793
13475TIP3   OH240367   3.317   1.324   0.436
13475TIP3    H140368   3.279   1.236   0.436
13475TIP3    H240369   3.396   1.317   0.488
13476TIP3   OH240370   4.079   2.854   3.822
13476TIP3    H140371   4.051   2.815   3.739
13476TIP3    H240372   3.997   2.875   3.868
13477TIP3   OH240373   3.321   2.603   3.907
13477TIP3    H140374   3.241   2.579   3.953
13477TIP3    H240375   3.385   2.536   3.932
13478TIP3   OH240376   7.515   2.220   4.805
13478TIP3    H140377   7.588   2.249   4.749
13478TIP3    H240378   7.552   2.220   4.893
13479TIP3   OH240379   4.381   2.451   4.391
13479TIP3    H140380   4.313   2.427   4.327
13479TIP3    H240381   4.387   2.375   4.449
13480TIP3   OH240382   2.735   6.313   3.068
13480TIP3    H140383   2.745   6.391   3.123
13480TIP3    H240384   2.680   6.254   3.119
13481TIP3   OH240385   8.214   3.413   0.642
13481TIP3    H140386   8.130   3.448   0.613
13481TIP3    H240387   8.200   3.319   0.648
13482TIP3   OH240388   5.552   1.690   6.116
13482TIP3    H140389   5.523   1.646   6.036
13482TIP3    H240390   5.641   1.658   6.130
13483TIP3   OH240391   0.911   4.948   3.554
13483TIP3    H140392   0.827   4.978   3.520
13483TIP3    H240393   0.915   4.855   3.530
13484TIP3   OH240394   2.174   2.358   1.113
13484TIP3    H140395   2.262   2.348   1.077
13484TIP3    H240396   2.116   2.339   1.040
13485TIP3   OH240397   2.456   7.646   5.085
13485TIP3    H140398   2.418   7.571   5.039
13485TIP3    H240399   2.381   7.693   5.121
13486TIP3   OH240400   1.112   5.743   0.844
13486TIP3    H140401   1.078   5.711   0.928
13486TIP3    H240402   1.207   5.745   0.857
13487TIP3   OH240403   0.398   6.524   0.992
13487TIP3    H140404   0.367   6.481   1.072
13487TIP3    H240405   0.319   6.558   0.951
13488TIP3   OH240406   4.852   6.596   6.642
13488TIP3    H140407   4.938   6.633   6.662
13488TIP3    H240408   4.826   6.638   6.560
13489TIP3   OH240409   3.911   0.704   3.307
13489TIP3    H140410   3.896   0.794   3.278
13489TIP3    H240411   3.890   0.706   3.401
13490TIP3   OH240412   5.106   5.211   3.764
13490TIP3    H140413   5.124   5.304   3.778
13490TIP3    H240414   5.154   5.190   3.684
13491TIP3   OH240415   3.858   1.786   2.217
13491TIP3    H140416   3.799   1.845   2.263
13491TIP3    H240417   3.853   1.704   2.267
13492TIP3   OH240418   1.472   4.198   2.970
13492TIP3    H140419   1.479   4.290   2.945
13492TIP3    H240420   1.488   4.149   2.889
13493TIP3   OH240421   4.982   0.818   5.208
13493TIP3    H140422   4.980   0.852   5.119
13493TIP3    H240423   5.052   0.867   5.251
13494TIP3   OH240424   7.333   0.643   3.842
13494TIP3    H140425   7.303   0.732   3.864
13494TIP3    H240426   7.298   0.627   3.755
13495TIP3   OH240427   4.107   4.670   2.827
13495TIP3    H140428   4.121   4.758   2.792
13495TIP3    H240429   4.034   4.636   2.776
13496TIP3   OH240430   0.240   1.755   5.077
13496TIP3    H140431   0.230   1.699   5.154
13496TIP3    H240432   0.154   1.754   5.035
13497TIP3   OH240433   1.686   1.723   3.829
13497TIP3    H140434   1.661   1.772   3.751
13497TIP3    H240435   1.781   1.733   3.835
13498TIP3   OH240436   7.489   2.240   5.241
13498TIP3    H140437   7.495   2.176   5.170
13498TIP3    H240438   7.479   2.187   5.320
13499TIP3   OH240439   4.302   3.842   0.896
13499TIP3    H140440   4.256   3.926   0.893
13499TIP3    H240441   4.388   3.860   0.858
13500TIP3   OH240442   7.996   6.345   4.874
13500TIP3    H140443   8.028   6.255   4.865
13500TIP3    H240444   7.966   6.368   4.786
13501TIP3   OH240445   3.421   5.132   5.450
13501TIP3    H140446   3.443   5.136   5.357
13501TIP3    H240447   3.492   5.080   5.489
13502TIP3   OH240448   5.308   5.936   4.222
13502TIP3    H140449   5.348   5.957   4.306
13502TIP3    H240450   5.289   5.842   4.228
13503TIP3   OH240451   4.154   4.572   4.765
13503TIP3    H140452   4.185   4.508   4.702
13503TIP3    H240453   4.214   4.564   4.839
13504TIP3   OH240454   0.678   6.121   2.965
13504TIP3    H140455   0.743   6.113   2.895
13504TIP3    H240456   0.679   6.036   3.009
13505TIP3   OH240457   7.934   2.975   6.524
13505TIP3    H140458   8.014   2.941   6.562
13505TIP3    H240459   7.906   2.908   6.462
13506TIP3   OH240460   2.745   5.489   6.590
13506TIP3    H140461   2.654   5.473   6.565
13506TIP3    H240462   2.745   5.485   6.686
13507TIP3   OH240463   5.459   4.493   6.247
13507TIP3    H140464   5.418   4.416   6.207
13507TIP3    H240465   5.451   4.561   6.180
13508TIP3   OH240466   2.688   4.985   5.493
13508TIP3    H140467   2.596   4.970   5.516
13508TIP3    H240468   2.686   5.055   5.428
13509TIP3   OH240469   1.647   1.775   1.383
13509TIP3    H140470   1.634   1.738   1.470
13509TIP3    H240471   1.739   1.756   1.362
13510TIP3   OH240472   3.593   4.327   6.749
13510TIP3    H140473   3.689   4.326   6.760
13510TIP3    H240474   3.563   4.248   6.794
13511TIP3   OH240475   3.619   1.377   4.294
13511TIP3    H140476   3.576   1.297   4.323
13511TIP3    H240477   3.569   1.404   4.217
13512TIP3   OH240478   3.940   1.982   0.873
13512TIP3    H140479   3.959   1.944   0.959
13512TIP3    H240480   3.897   2.066   0.893
13513TIP3   OH240481   8.044   4.387   5.497
13513TIP3    H140482   8.045   4.362   5.405
13513TIP3    H240483   8.088   4.315   5.542
13514TIP3   OH240484   2.333   5.742   2.580
13514TIP3    H140485   2.412   5.793   2.601
13514TIP3    H240486   2.291   5.791   2.510
13515TIP3   OH240487   5.094   1.736   0.915
13515TIP3    H140488   5.063   1.747   1.005
13515TIP3    H240489   5.034   1.788   0.862
13516TIP3   OH240490   5.519   7.745   6.266
13516TIP3    H140491   5.444   7.789   6.225
13516TIP3    H240492   5.568   7.815   6.309
13517TIP3   OH240493   0.332   4.548   2.941
13517TIP3    H140494   0.421   4.573   2.917
13517TIP3    H240495   0.342   4.490   3.016
13518TIP3   OH240496   2.924   0.650   6.651
13518TIP3    H140497   2.863   0.723   6.659
13518TIP3    H240498   3.001   0.676   6.702
13519TIP3   OH240499   7.329   1.755   5.271
13519TIP3    H140500   7.351   1.733   5.180
13519TIP3    H240501   7.272   1.683   5.299
13520TIP3   OH240502   1.736   1.628   0.059
13520TIP3    H140503   1.693   1.634   0.144
13520TIP3    H240504   1.688   1.560   0.012
13521TIP3   OH240505   1.340   4.055   0.977
13521TIP3    H140506   1.258   4.103   0.992
13521TIP3    H240507   1.317   3.988   0.913
13522TIP3   OH240508   1.524   4.406   6.307
13522TIP3    H140509   1.607   4.403   6.259
13522TIP3    H240510   1.460   4.434   6.242
13523TIP3   OH240511   6.729   2.259   5.952
13523TIP3    H140512   6.667   2.191   5.980
13523TIP3    H240513   6.781   2.216   5.884
13524TIP3   OH240514   2.157   0.902   3.088
13524TIP3    H140515   2.229   0.841   3.070
13524TIP3    H240516   2.191   0.961   3.154
13525TIP3   OH240517   2.472   3.243   2.165
13525TIP3    H140518   2.403   3.289   2.212
13525TIP3    H240519   2.553   3.280   2.200
13526TIP3   OH240520   6.541   0.650   0.236
13526TIP3    H140521   6.461   0.602   0.259
13526TIP3    H240522   6.581   0.597   0.168
13527TIP3   OH240523   5.161   4.910   2.037
13527TIP3    H140524   5.211   4.856   2.098
13527TIP3    H240525   5.173   4.999   2.069
13528TIP3   OH240526   6.609   6.087   4.799
13528TIP3    H140527   6.546   6.159   4.790
13528TIP3    H240528   6.683   6.127   4.844
13529TIP3   OH240529   0.777   3.669   2.952
13529TIP3    H140530   0.720   3.659   2.875
13529TIP3    H240531   0.738   3.612   3.018
13530TIP3   OH240532   1.642   4.543   5.055
13530TIP3    H140533   1.585   4.594   5.112
13530TIP3    H240534   1.604   4.455   5.055
13531TIP3   OH240535   0.809   2.889   0.182
13531TIP3    H140536   0.771   2.917   0.099
13531TIP3    H240537   0.778   2.955   0.245
13532TIP3   OH240538   0.725   0.438   1.213
13532TIP3    H140539   0.813   0.454   1.248
13532TIP3    H240540   0.735   0.447   1.118
13533TIP3   OH240541   7.147   5.216   3.030
13533TIP3    H140542   7.083   5.242   3.096
13533TIP3    H240543   7.186   5.136   3.064
13534TIP3   OH240544   1.660   3.064   4.144
13534TIP3    H140545   1.709   3.074   4.226
13534TIP3    H240546   1.683   2.976   4.113
13535TIP3   OH240547   0.796   5.065   4.195
13535TIP3    H140548   0.794   4.982   4.146
13535TIP3    H240549   0.863   5.052   4.262
13536TIP3   OH240550   3.451   5.294   6.279
13536TIP3    H140551   3.413   5.327   6.198
13536TIP3    H240552   3.448   5.199   6.270
13537TIP3   OH240553   3.988   4.707   4.563
13537TIP3    H140554   4.060   4.729   4.504
13537TIP3    H240555   4.030   4.661   4.636
13538TIP3   OH240556   0.792   1.214   2.151
13538TIP3    H140557   0.736   1.282   2.113
13538TIP3    H240558   0.739   1.175   2.220
13539TIP3   OH240559   0.045   2.325   3.679
13539TIP3    H140560   0.103   2.250   3.691
13539TIP3    H240561   0.100   2.401   3.696
13540TIP3   OH240562   6.365   3.991   5.088
13540TIP3    H140563   6.295   3.963   5.029
13540TIP3    H240564   6.322   4.053   5.147
13541TIP3   OH240565   0.900   3.826   5.565
13541TIP3    H140566   0.972   3.889   5.572
13541TIP3    H240567   0.941   3.746   5.531
13542TIP3   OH240568   7.517   1.487   5.089
13542TIP3    H140569   7.557   1.438   5.017
13542TIP3    H240570   7.438   1.437   5.110
13543TIP3   OH240571   5.678   6.064   0.380
13543TIP3    H140572   5.618   6.130   0.349
13543TIP3    H240573   5.625   5.984   0.388
13544TIP3   OH240574   5.061   3.611   6.445
13544TIP3    H140575   5.059   3.613   6.349
13544TIP3    H240576   5.019   3.694   6.471
13545TIP3   OH240577   0.968   0.658   0.894
13545TIP3    H140578   0.901   0.697   0.951
13545TIP3    H240579   0.920   0.597   0.838
13546TIP3   OH240580   3.047   6.224   1.200
13546TIP3    H140581   3.006   6.174   1.270
13546TIP3    H240582   3.048   6.164   1.125
13547TIP3   OH240583   7.573   5.428   0.396
13547TIP3    H140584   7.629   5.502   0.371
13547TIP3    H240585   7.634   5.357   0.414
13548TIP3   OH240586   2.730   5.818   4.643
13548TIP3    H140587   2.696   5.808   4.732
13548TIP3    H240588   2.810   5.766   4.642
13549TIP3   OH240589   4.827   2.422   0.875
13549TIP3    H140590   4.800   2.346   0.823
13549TIP3    H240591   4.910   2.449   0.837
13550TIP3   OH240592   3.602   0.031   2.451
13550TIP3    H140593   3.660  -0.043   2.468
13550TIP3    H240594   3.627   0.096   2.517
13551TIP3   OH240595   8.221   6.857   0.792
13551TIP3    H140596   8.259   6.792   0.731
13551TIP3    H240597   8.183   6.804   0.862
13552TIP3   OH240598   3.264   5.074   5.680
13552TIP3    H140599   3.171   5.071   5.655
13552TIP3    H240600   3.310   5.094   5.599
13553TIP3   OH240601   1.400   4.144   6.250
13553TIP3    H140602   1.309   4.174   6.254
13553TIP3    H240603   1.451   4.225   6.247
13554TIP3   OH240604   4.171   6.428   5.889
13554TIP3    H140605   4.148   6.516   5.860
13554TIP3    H240606   4.230   6.395   5.820
13555TIP3   OH240607   5.244   7.729   1.749
13555TIP3    H140608   5.164   7.691   1.714
13555TIP3    H240609   5.275   7.664   1.813
13556TIP3   OH240610   0.676   3.929   3.942
13556TIP3    H140611   0.736   3.998   3.969
13556TIP3    H240612   0.597   3.976   3.914
13557TIP3   OH240613   1.240   0.115   0.528
13557TIP3    H140614   1.175   0.109   0.458
13557TIP3    H240615   1.259   0.025   0.551
13558TIP3   OH240616   0.755   7.545   3.153
13558TIP3    H140617   0.689   7.478   3.134
13558TIP3    H240618   0.710   7.628   3.140
13559TIP3   OH240619   0.237   0.231   6.536
13559TIP3    H140620   0.215   0.274   6.618
13559TIP3    H240621   0.161   0.176   6.517
13560TIP3   OH240622   1.232   1.712   0.433
13560TIP3    H140623   1.243   1.765   0.354
13560TIP3    H240624   1.261   1.768   0.504
13561TIP3   OH240625   0.294   6.662   6.227
13561TIP3    H140626   0.277   6.714   6.148
13561TIP3    H240627   0.333   6.724   6.289
13562TIP3   OH240628   0.199   0.809   5.814
13562TIP3    H140629   0.211   0.716   5.792
13562TIP3    H240630   0.261   0.824   5.885
13563TIP3   OH240631   0.238   1.643   2.729
13563TIP3    H140632   0.177   1.578   2.695
13563TIP3    H240633   0.198   1.673   2.811
13564TIP3   OH240634   2.936   7.134   1.660
13564TIP3    H140635   3.017   7.096   1.625
13564TIP3    H240636   2.937   7.225   1.629
13565TIP3   OH240637   6.026   5.917   6.541
13565TIP3    H140638   6.002   5.935   6.632
13565TIP3    H240639   6.002   5.997   6.494
13566TIP3   OH240640   4.083   0.541   4.746
13566TIP3    H140641   4.016   0.474   4.756
13566TIP3    H240642   4.156   0.510   4.800
13567TIP3   OH240643   0.842   5.169   4.902
13567TIP3    H140644   0.817   5.260   4.883
13567TIP3    H240645   0.938   5.172   4.912
13568TIP3   OH240646   4.934   6.384   4.033
13568TIP3    H140647   4.972   6.384   4.121
13568TIP3    H240648   4.889   6.468   4.026
13569TIP3   OH240649   0.317   4.078   4.510
13569TIP3    H140650   0.296   4.170   4.525
13569TIP3    H240651   0.377   4.055   4.580
13570TIP3   OH240652   7.496   6.627   2.627
13570TIP3    H140653   7.551   6.609   2.551
13570TIP3    H240654   7.557   6.643   2.699
13571TIP3   OH240655   0.261   3.974   4.824
13571TIP3    H140656   0.331   4.014   4.772
13571TIP3    H240657   0.278   3.880   4.820
13572TIP3   OH240658   7.836   2.344   2.363
13572TIP3    H140659   7.926   2.368   2.341
13572TIP3    H240660   7.782   2.405   2.313
13573TIP3   OH240661   7.834   0.914   0.263
13573TIP3    H140662   7.781   0.882   0.335
13573TIP3    H240663   7.789   0.883   0.184
13574TIP3   OH240664   2.198   6.885   2.816
13574TIP3    H140665   2.173   6.945   2.887
13574TIP3    H240666   2.202   6.941   2.738
13575TIP3   OH240667   4.051   7.094   0.956
13575TIP3    H140668   4.036   7.121   1.047
13575TIP3    H240669   4.119   7.027   0.962
13576TIP3   OH240670   8.217   3.358   4.896
13576TIP3    H140671   8.232   3.437   4.844
13576TIP3    H240672   8.302   3.315   4.900
13577TIP3   OH240673   2.999   6.667   3.723
13577TIP3    H140674   3.015   6.690   3.814
13577TIP3    H240675   3.086   6.665   3.683
13578TIP3   OH240676   5.919   2.186   2.313
13578TIP3    H140677   5.826   2.172   2.334
13578TIP3    H240678   5.921   2.202   2.219
13579TIP3   OH240679   4.387   1.118   1.800
13579TIP3    H140680   4.370   1.203   1.839
13579TIP3    H240681   4.478   1.099   1.823
13580TIP3   OH240682   5.063   6.798   2.048
13580TIP3    H140683   5.092   6.780   1.958
13580TIP3    H240684   5.087   6.719   2.097
13581TIP3   OH240685   7.006   6.960   3.929
13581TIP3    H140686   6.998   7.007   3.846
13581TIP3    H240687   7.063   6.886   3.908
13582TIP3   OH240688   4.432   7.045   4.029
13582TIP3    H140689   4.467   6.985   4.095
13582TIP3    H240690   4.443   7.132   4.068
13583TIP3   OH240691   8.251   0.253   2.395
13583TIP3    H140692   8.182   0.194   2.366
13583TIP3    H240693   8.206   0.336   2.412
13584TIP3   OH240694   0.194   3.700   5.236
13584TIP3    H140695   0.150   3.749   5.167
13584TIP3    H240696   0.170   3.608   5.219
13585TIP3   OH240697   3.262   2.307   5.918
13585TIP3    H140698   3.320   2.257   5.975
13585TIP3    H240699   3.286   2.281   5.829
13586TIP3   OH240700   2.251   3.124   2.015
13586TIP3    H140701   2.234   3.110   2.108
13586TIP3    H240702   2.341   3.157   2.012
13587TIP3   OH240703   3.418   3.060   6.376
13587TIP3    H140704   3.452   3.026   6.293
13587TIP3    H240705   3.371   3.139   6.352
13588TIP3   OH240706   7.275   0.553   4.350
13588TIP3    H140707   7.343   0.485   4.353
13588TIP3    H240708   7.230   0.545   4.434
13589TIP3   OH240709   2.198   0.350   1.825
13589TIP3    H140710   2.186   0.437   1.864
13589TIP3    H240711   2.250   0.302   1.889
13590TIP3   OH240712   6.994   3.752   6.491
13590TIP3    H140713   6.916   3.708   6.527
13590TIP3    H240714   7.020   3.697   6.417
13591TIP3   OH240715   4.507   7.009   3.597
13591TIP3    H140716   4.594   7.042   3.573
13591TIP3    H240717   4.521   6.915   3.609
13592TIP3   OH240718   1.223   2.860   2.291
13592TIP3    H140719   1.295   2.848   2.353
13592TIP3    H240720   1.246   2.805   2.217
13593TIP3   OH240721   7.782   5.244   2.151
13593TIP3    H140722   7.750   5.163   2.190
13593TIP3    H240723   7.784   5.307   2.224
13594TIP3   OH240724   2.510   7.426   5.474
13594TIP3    H140725   2.444   7.365   5.508
13594TIP3    H240726   2.514   7.496   5.538
13595TIP3   OH240727   2.656   1.557   2.511
13595TIP3    H140728   2.582   1.537   2.569
13595TIP3    H240729   2.655   1.486   2.446
13596TIP3   OH240730   3.587   7.232   1.974
13596TIP3    H140731   3.512   7.174   1.990
13596TIP3    H240732   3.622   7.204   1.890
13597TIP3   OH240733   7.417   4.781   4.811
13597TIP3    H140734   7.436   4.688   4.820
13597TIP3    H240735   7.323   4.786   4.793
13598TIP3   OH240736   3.251   1.256   3.608
13598TIP3    H140737   3.320   1.193   3.630
13598TIP3    H240738   3.174   1.201   3.593
13599TIP3   OH240739   3.805   5.865   6.379
13599TIP3    H140740   3.754   5.904   6.308
13599TIP3    H240741   3.896   5.875   6.351
13600TIP3   OH240742   0.914   0.024   0.838
13600TIP3    H140743   0.878  -0.063   0.856
13600TIP3    H240744   1.008   0.009   0.826
13601TIP3   OH240745   1.611   4.618   3.142
13601TIP3    H140746   1.612   4.708   3.110
13601TIP3    H240747   1.518   4.600   3.157
13602TIP3   OH240748   3.589   6.917   1.366
13602TIP3    H140749   3.540   6.875   1.296
13602TIP3    H240750   3.571   7.010   1.356
13603TIP3   OH240751   3.368   7.303   6.156
13603TIP3    H140752   3.357   7.221   6.203
13603TIP3    H240753   3.295   7.358   6.186
13604TIP3   OH240754   6.258   0.067   1.839
13604TIP3    H140755   6.310   0.042   1.915
13604TIP3    H240756   6.280   0.159   1.823
13605TIP3   OH240757   4.286   3.765   1.242
13605TIP3    H140758   4.261   3.682   1.281
13605TIP3    H240759   4.359   3.744   1.183
13606TIP3   OH240760   3.259   5.177   1.170
13606TIP3    H140761   3.324   5.167   1.100
13606TIP3    H240762   3.292   5.122   1.241
13607TIP3   OH240763   1.762   2.143   5.022
13607TIP3    H140764   1.730   2.060   4.986
13607TIP3    H240765   1.712   2.210   4.976
13608TIP3   OH240766   1.744   3.397   0.881
13608TIP3    H140767   1.752   3.315   0.833
13608TIP3    H240768   1.722   3.370   0.971
13609TIP3   OH240769   4.806   0.985   4.774
13609TIP3    H140770   4.768   1.070   4.749
13609TIP3    H240771   4.834   0.997   4.864
13610TIP3   OH240772   0.097   1.139   0.929
13610TIP3    H140773   0.117   1.190   0.850
13610TIP3    H240774   0.116   1.199   1.001
13611TIP3   OH240775   3.368   4.615   4.837
13611TIP3    H140776   3.416   4.562   4.774
13611TIP3    H240777   3.414   4.602   4.920
13612TIP3   OH240778   2.408   4.494   2.220
13612TIP3    H140779   2.319   4.470   2.195
13612TIP3    H240780   2.442   4.416   2.264
13613TIP3   OH240781   0.454   1.119   1.344
13613TIP3    H140782   0.539   1.142   1.383
13613TIP3    H240783   0.409   1.203   1.335
13614TIP3   OH240784   5.590   5.302   2.629
13614TIP3    H140785   5.630   5.361   2.565
13614TIP3    H240786   5.650   5.302   2.704
13615TIP3   OH240787   3.680   4.414   2.611
13615TIP3    H140788   3.706   4.365   2.690
13615TIP3    H240789   3.676   4.348   2.542
13616TIP3   OH240790   3.945   2.384   5.955
13616TIP3    H140791   3.990   2.411   6.035
13616TIP3    H240792   4.012   2.390   5.887
13617TIP3   OH240793   2.959   0.068   2.113
13617TIP3    H140794   2.903   0.056   2.036
13617TIP3    H240795   3.038   0.108   2.078
13618TIP3   OH240796   7.161   3.726   3.625
13618TIP3    H140797   7.191   3.637   3.645
13618TIP3    H240798   7.076   3.714   3.583
13619TIP3   OH240799   6.810   5.849   0.855
13619TIP3    H140800   6.888   5.829   0.906
13619TIP3    H240801   6.756   5.904   0.913
13620TIP3   OH240802   7.769   2.812   5.279
13620TIP3    H140803   7.828   2.885   5.297
13620TIP3    H240804   7.707   2.812   5.351
13621TIP3   OH240805   4.251   0.115   0.477
13621TIP3    H140806   4.275   0.044   0.536
13621TIP3    H240807   4.212   0.181   0.534
13622TIP3   OH240808   1.320   4.402   6.116
13622TIP3    H140809   1.308   4.335   6.049
13622TIP3    H240810   1.341   4.481   6.067
13623TIP3   OH240811   7.377   3.652   1.137
13623TIP3    H140812   7.350   3.563   1.115
13623TIP3    H240813   7.387   3.651   1.232
13624TIP3   OH240814   0.071   0.476   3.792
13624TIP3    H140815   0.044   0.421   3.719
13624TIP3    H240816  -0.006   0.484   3.847
13625TIP3   OH240817   5.968   0.690   6.600
13625TIP3    H140818   5.918   0.770   6.588
13625TIP3    H240819   6.035   0.712   6.664
13626TIP3   OH240820   4.408   0.454   1.669
13626TIP3    H140821   4.415   0.410   1.585
13626TIP3    H240822   4.342   0.522   1.655
13627TIP3   OH240823   4.140   7.426   3.903
13627TIP3    H140824   4.174   7.514   3.921
13627TIP3    H240825   4.162   7.375   3.981
13628TIP3   OH240826   3.491   0.915   6.247
13628TIP3    H140827   3.535   0.887   6.166
13628TIP3    H240828   3.398   0.910   6.227
13629TIP3   OH240829   0.479   5.195   2.202
13629TIP3    H140830   0.514   5.224   2.287
13629TIP3    H240831   0.444   5.275   2.162
13630TIP3   OH240832   4.133   5.766   5.199
13630TIP3    H140833   4.163   5.778   5.109
13630TIP3    H240834   4.210   5.785   5.252
13631TIP3   OH240835   4.451   1.260   1.469
13631TIP3    H140836   4.362   1.225   1.460
13631TIP3    H240837   4.476   1.286   1.381
13632TIP3   OH240838   2.473   1.994   2.155
13632TIP3    H140839   2.520   2.016   2.075
13632TIP3    H240840   2.481   1.898   2.162
13633TIP3   OH240841   5.390   7.275   3.860
13633TIP3    H140842   5.418   7.207   3.799
13633TIP3    H240843   5.334   7.229   3.923
13634TIP3   OH240844   3.504   6.416   1.674
13634TIP3    H140845   3.569   6.455   1.733
13634TIP3    H240846   3.448   6.489   1.648
13635TIP3   OH240847   5.258   1.791   1.704
13635TIP3    H140848   5.349   1.817   1.688
13635TIP3    H240849   5.225   1.856   1.765
13636TIP3   OH240850   3.614   5.224   3.765
13636TIP3    H140851   3.555   5.231   3.689
13636TIP3    H240852   3.648   5.312   3.778
13637TIP3   OH240853   2.608   0.873   4.609
13637TIP3    H140854   2.520   0.904   4.591
13637TIP3    H240855   2.665   0.930   4.557
13638TIP3   OH240856   4.648   1.115   2.009
13638TIP3    H140857   4.601   1.033   2.024
13638TIP3    H240858   4.701   1.099   1.931
13639TIP3   OH240859   6.457   4.010   5.876
13639TIP3    H140860   6.414   4.089   5.909
13639TIP3    H240861   6.547   4.016   5.909
13640TIP3   OH240862   6.010   2.442   5.945
13640TIP3    H140863   6.035   2.360   5.988
13640TIP3    H240864   6.074   2.506   5.975
13641TIP3   OH240865   1.016   3.463   0.349
13641TIP3    H140866   1.097   3.514   0.341
13641TIP3    H240867   0.963   3.511   0.412
13642TIP3   OH240868   0.720   0.752   1.398
13642TIP3    H140869   0.801   0.712   1.428
13642TIP3    H240870   0.746   0.838   1.367
13643TIP3   OH240871   1.087   0.884   0.127
13643TIP3    H140872   1.020   0.821   0.156
13643TIP3    H240873   1.104   0.937   0.205
13644TIP3   OH240874   5.629   0.533   0.356
13644TIP3    H140875   5.667   0.534   0.444
13644TIP3    H240876   5.552   0.589   0.363
13645TIP3   OH240877   6.748   1.155   6.023
13645TIP3    H140878   6.684   1.084   6.035
13645TIP3    H240879   6.779   1.143   5.933
13646TIP3   OH240880   4.163   4.763   0.712
13646TIP3    H140881   4.206   4.726   0.635
13646TIP3    H240882   4.143   4.687   0.767
13647TIP3   OH240883   1.400   6.184   4.398
13647TIP3    H140884   1.350   6.118   4.446
13647TIP3    H240885   1.382   6.165   4.306
13648TIP3   OH240886   0.514   1.907   6.629
13648TIP3    H140887   0.547   1.845   6.694
13648TIP3    H240888   0.477   1.979   6.681
13649TIP3   OH240889   4.915   0.180   0.322
13649TIP3    H140890   4.978   0.249   0.341
13649TIP3    H240891   4.930   0.115   0.391
13650TIP3   OH240892   2.291   4.529   3.002
13650TIP3    H140893   2.231   4.522   3.076
13650TIP3    H240894   2.252   4.474   2.934
13651TIP3   OH240895   6.567   0.992   5.217
13651TIP3    H140896   6.657   0.993   5.185
13651TIP3    H240897   6.570   0.939   5.297
13652TIP3   OH240898   2.889   0.825   4.995
13652TIP3    H140899   2.800   0.790   4.999
13652TIP3    H240900   2.879   0.911   4.954
13653TIP3   OH240901   4.815   7.055   0.491
13653TIP3    H140902   4.804   7.099   0.407
13653TIP3    H240903   4.758   7.103   0.552
13654TIP3   OH240904   5.368   7.285   1.907
13654TIP3    H140905   5.423   7.327   1.842
13654TIP3    H240906   5.427   7.222   1.951
13655TIP3   OH240907   5.722   3.314   1.123
13655TIP3    H140908   5.803   3.307   1.073
13655TIP3    H240909   5.747   3.353   1.206
13656TIP3   OH240910   6.180   6.528   3.052
13656TIP3    H140911   6.274   6.521   3.068
13656TIP3    H240912   6.146   6.439   3.063
13657TIP3   OH240913   0.401   6.662   2.548
13657TIP3    H140914   0.410   6.568   2.535
13657TIP3    H240915   0.419   6.701   2.463
13658TIP3   OH240916   1.515   2.579   0.610
13658TIP3    H140917   1.496   2.671   0.591
13658TIP3    H240918   1.597   2.561   0.564
13659TIP3   OH240919   4.678   6.489   4.159
13659TIP3    H140920   4.691   6.405   4.202
13659TIP3    H240921   4.644   6.546   4.228
13660TIP3   OH240922   7.595   1.250   2.897
13660TIP3    H140923   7.615   1.298   2.816
13660TIP3    H240924   7.678   1.252   2.946
13661TIP3   OH240925   0.997   1.229   4.169
13661TIP3    H140926   0.992   1.300   4.233
13661TIP3    H240927   1.032   1.271   4.090
13662TIP3   OH240928   4.984   0.238   2.277
13662TIP3    H140929   5.042   0.203   2.345
13662TIP3    H240930   5.008   0.188   2.199
13663TIP3   OH240931   7.296   3.872   5.537
13663TIP3    H140932   7.347   3.795   5.564
13663TIP3    H240933   7.207   3.853   5.564
13664TIP3   OH240934   3.169   3.079   1.774
13664TIP3    H140935   3.091   3.035   1.809
13664TIP3    H240936   3.168   3.060   1.681
13665TIP3   OH240937   0.077   2.566   4.573
13665TIP3    H140938   0.171   2.563   4.591
13665TIP3    H240939   0.055   2.659   4.571
13666TIP3   OH240940   5.782   1.532   6.212
13666TIP3    H140941   5.746   1.452   6.173
13666TIP3    H240942   5.876   1.528   6.192
13667TIP3   OH240943   5.215   5.145   5.387
13667TIP3    H140944   5.182   5.079   5.449
13667TIP3    H240945   5.232   5.096   5.307
13668TIP3   OH240946   2.003   6.595   3.615
13668TIP3    H140947   1.978   6.621   3.704
13668TIP3    H240948   2.022   6.678   3.571
13669TIP3   OH240949   1.405   6.630   4.241
13669TIP3    H140950   1.495   6.645   4.270
13669TIP3    H240951   1.372   6.561   4.298
13670TIP3   OH240952   5.823   4.843   4.339
13670TIP3    H140953   5.811   4.844   4.244
13670TIP3    H240954   5.879   4.768   4.356
13671TIP3   OH240955   1.852   3.971   6.175
13671TIP3    H140956   1.761   3.944   6.188
13671TIP3    H240957   1.902   3.910   6.229
13672TIP3   OH240958   4.776   7.417   6.664
13672TIP3    H140959   4.764   7.495   6.717
13672TIP3    H240960   4.866   7.389   6.681
13673TIP3   OH240961   0.409   4.599   5.398
13673TIP3    H140962   0.353   4.667   5.435
13673TIP3    H240963   0.492   4.643   5.380
13674TIP3   OH240964   0.022   6.668   3.933
13674TIP3    H140965   0.057   6.721   3.862
13674TIP3    H240966   0.009   6.581   3.894
13675TIP3   OH240967   7.717   1.511   4.861
13675TIP3    H140968   7.760   1.436   4.820
13675TIP3    H240969   7.641   1.528   4.806
13676TIP3   OH240970   7.390   6.023   3.282
13676TIP3    H140971   7.422   6.077   3.209
13676TIP3    H240972   7.300   6.000   3.257
13677TIP3   OH240973   6.681   0.782   4.337
13677TIP3    H140974   6.696   0.780   4.242
13677TIP3    H240975   6.592   0.751   4.348
13678TIP3   OH240976   6.604   6.248   5.238
13678TIP3    H140977   6.631   6.277   5.151
13678TIP3    H240978   6.534   6.185   5.222
13679TIP3   OH240979   6.644   5.659   6.127
13679TIP3    H140980   6.579   5.682   6.194
13679TIP3    H240981   6.726   5.652   6.174
13680TIP3   OH240982   1.149   6.686   4.617
13680TIP3    H140983   1.089   6.759   4.628
13680TIP3    H240984   1.215   6.717   4.555
13681TIP3   OH240985   2.260   4.281   3.461
13681TIP3    H140986   2.181   4.326   3.432
13681TIP3    H240987   2.332   4.334   3.427
13682TIP3   OH240988   5.200   7.180   0.495
13682TIP3    H140989   5.113   7.196   0.533
13682TIP3    H240990   5.185   7.179   0.401
13683TIP3   OH240991   5.740   0.745   1.957
13683TIP3    H140992   5.670   0.750   1.893
13683TIP3    H240993   5.809   0.800   1.921
13684TIP3   OH240994   5.613   5.301   0.460
13684TIP3    H140995   5.646   5.222   0.503
13684TIP3    H240996   5.538   5.327   0.513
13685TIP3   OH240997   0.523   1.711   1.995
13685TIP3    H140998   0.548   1.764   2.070
13685TIP3    H240999   0.542   1.766   1.919
13686TIP3   OH241000   4.434   4.294   4.286
13686TIP3    H141001   4.444   4.343   4.367
13686TIP3    H241002   4.445   4.202   4.312
13687TIP3   OH241003   7.256   2.743   6.171
13687TIP3    H141004   7.183   2.740   6.233
13687TIP3    H241005   7.294   2.830   6.182
13688TIP3   OH241006   5.624   1.591   2.941
13688TIP3    H141007   5.601   1.498   2.932
13688TIP3    H241008   5.579   1.619   3.021
13689TIP3   OH241009   1.947   0.297   4.730
13689TIP3    H141010   1.857   0.318   4.754
13689TIP3    H241011   1.940   0.220   4.675
13690TIP3   OH241012   6.901   3.625   3.242
13690TIP3    H141013   6.810   3.597   3.240
13690TIP3    H241014   6.941   3.582   3.167
13691TIP3   OH241015   0.635   6.368   0.554
13691TIP3    H141016   0.712   6.424   0.571
13691TIP3    H241017   0.599   6.351   0.640
13692TIP3   OH241018   4.294   3.446   4.106
13692TIP3    H141019   4.224   3.394   4.065
13692TIP3    H241020   4.351   3.471   4.033
13693TIP3   OH241021   1.878   5.610   5.972
13693TIP3    H141022   1.804   5.553   5.951
13693TIP3    H241023   1.892   5.662   5.894
13694TIP3   OH241024   8.115   4.687   2.625
13694TIP3    H141025   8.105   4.661   2.533
13694TIP3    H241026   8.170   4.766   2.622
13695TIP3   OH241027   5.967   4.118   1.263
13695TIP3    H141028   5.965   4.151   1.173
13695TIP3    H241029   5.936   4.191   1.316
13696TIP3   OH241030   8.017   0.947   5.932
13696TIP3    H141031   7.990   1.021   5.987
13696TIP3    H241032   8.112   0.949   5.934
13697TIP3   OH241033   8.099   3.233   4.177
13697TIP3    H141034   8.125   3.315   4.134
13697TIP3    H241035   8.053   3.262   4.256
13698TIP3   OH241036   0.640   6.503   5.692
13698TIP3    H141037   0.687   6.457   5.762
13698TIP3    H241038   0.570   6.550   5.737
13699TIP3   OH241039   0.964   7.364   5.308
13699TIP3    H141040   0.991   7.279   5.274
13699TIP3    H241041   0.927   7.344   5.395
13700TIP3   OH241042   0.595   5.533   0.877
13700TIP3    H141043   0.652   5.608   0.858
13700TIP3    H241044   0.631   5.462   0.824
13701TIP3   OH241045   6.775   1.273   4.722
13701TIP3    H141046   6.792   1.223   4.643
13701TIP3    H241047   6.859   1.316   4.742
13702TIP3   OH241048   7.624   2.799   4.966
13702TIP3    H141049   7.565   2.737   4.924
13702TIP3    H241050   7.711   2.765   4.949
13703TIP3   OH241051   5.880   1.978   4.159
13703TIP3    H141052   5.830   1.926   4.096
13703TIP3    H241053   5.885   1.924   4.237
13704TIP3   OH241054   1.056   0.396   0.568
13704TIP3    H141055   1.083   0.485   0.546
13704TIP3    H241056   1.097   0.341   0.502
13705TIP3   OH241057   3.324   1.235   3.343
13705TIP3    H141058   3.326   1.325   3.310
13705TIP3    H241059   3.306   1.244   3.436
13706TIP3   OH241060   8.106   3.594   3.045
13706TIP3    H141061   8.187   3.542   3.051
13706TIP3    H241062   8.133   3.682   3.072
13707TIP3   OH241063   5.549   7.165   5.669
13707TIP3    H141064   5.644   7.164   5.657
13707TIP3    H241065   5.515   7.206   5.590
13708TIP3   OH241066   5.847   7.241   2.687
13708TIP3    H141067   5.941   7.260   2.685
13708TIP3    H241068   5.807   7.321   2.722
13709TIP3   OH241069   1.365   0.067   1.655
13709TIP3    H141070   1.396   0.133   1.593
13709TIP3    H241071   1.442   0.041   1.705
13710TIP3   OH241072   2.513   5.254   2.298
13710TIP3    H141073   2.475   5.320   2.240
13710TIP3    H241074   2.457   5.178   2.289
13711TIP3   OH241075   5.566   7.355   3.441
13711TIP3    H141076   5.600   7.428   3.389
13711TIP3    H241077   5.636   7.337   3.504
13712TIP3   OH241078   4.614   0.305   5.968
13712TIP3    H141079   4.596   0.322   5.876
13712TIP3    H241080   4.674   0.230   5.967
13713TIP3   OH241081   1.179   4.996   5.988
13713TIP3    H141082   1.162   5.083   5.952
13713TIP3    H241083   1.114   4.986   6.057
13714TIP3   OH241084   6.760   5.462   5.100
13714TIP3    H141085   6.788   5.401   5.031
13714TIP3    H241086   6.827   5.453   5.168
13715TIP3   OH241087   5.179   0.355   3.792
13715TIP3    H141088   5.125   0.360   3.871
13715TIP3    H241089   5.146   0.277   3.746
13716TIP3   OH241090   4.623   3.602   5.285
13716TIP3    H141091   4.560   3.546   5.331
13716TIP3    H241092   4.624   3.568   5.195
13717TIP3   OH241093   0.866   0.949   2.956
13717TIP3    H141094   0.829   0.939   3.043
13717TIP3    H241095   0.863   1.043   2.939
13718TIP3   OH241096   1.609   2.742   1.334
13718TIP3    H141097   1.620   2.799   1.410
13718TIP3    H241098   1.583   2.802   1.264
13719TIP3   OH241099   3.655   5.653   0.906
13719TIP3    H141100   3.692   5.667   0.819
13719TIP3    H241101   3.719   5.693   0.965
13720TIP3   OH241102   2.986   5.224   3.076
13720TIP3    H141103   3.002   5.244   2.984
13720TIP3    H241104   3.063   5.172   3.102
13721TIP3   OH241105   4.543   1.083   4.387
13721TIP3    H141106   4.604   1.069   4.315
13721TIP3    H241107   4.457   1.065   4.350
13722TIP3   OH241108   2.385   3.566   5.436
13722TIP3    H141109   2.367   3.472   5.441
13722TIP3    H241110   2.481   3.572   5.434
13723TIP3   OH241111   2.640   0.264   2.243
13723TIP3    H141112   2.710   0.225   2.191
13723TIP3    H241113   2.560   0.237   2.198
13724TIP3   OH241114   4.716   4.375   4.765
13724TIP3    H141115   4.734   4.314   4.837
13724TIP3    H241116   4.621   4.369   4.753
13725TIP3   OH241117   6.029   5.554   4.023
13725TIP3    H141118   6.036   5.596   3.938
13725TIP3    H241119   5.989   5.469   4.005
13726TIP3   OH241120   7.839   0.935   4.609
13726TIP3    H141121   7.747   0.915   4.628
13726TIP3    H241122   7.867   0.991   4.681
13727TIP3   OH241123   6.162   4.514   0.619
13727TIP3    H141124   6.195   4.542   0.704
13727TIP3    H241125   6.141   4.595   0.573
13728TIP3   OH241126   1.323   5.967   3.459
13728TIP3    H141127   1.414   5.996   3.461
13728TIP3    H241128   1.285   6.004   3.539
13729TIP3   OH241129   5.913   6.246   4.581
13729TIP3    H141130   5.951   6.230   4.667
13729TIP3    H241131   5.985   6.284   4.530
13730TIP3   OH241132   1.025   2.824   6.732
13730TIP3    H141133   1.084   2.866   6.670
13730TIP3    H241134   1.078   2.753   6.770
13731TIP3   OH241135   4.984   3.734   4.571
13731TIP3    H141136   4.911   3.748   4.511
13731TIP3    H241137   5.062   3.759   4.522
13732TIP3   OH241138   7.325   1.890   6.256
13732TIP3    H141139   7.343   1.804   6.292
13732TIP3    H241140   7.241   1.880   6.210
13733TIP3   OH241141   5.166   6.918   2.442
13733TIP3    H141142   5.200   6.993   2.491
13733TIP3    H241143   5.111   6.956   2.374
13734TIP3   OH241144   0.107   0.817   1.498
13734TIP3    H141145   0.108   0.911   1.480
13734TIP3    H241146   0.140   0.777   1.418
13735TIP3   OH241147   3.451   4.365   5.148
13735TIP3    H141148   3.474   4.454   5.119
13735TIP3    H241149   3.533   4.329   5.181
13736TIP3   OH241150   3.819   6.548   2.088
13736TIP3    H141151   3.848   6.574   2.176
13736TIP3    H241152   3.875   6.596   2.028
13737TIP3   OH241153   2.187   6.681   4.534
13737TIP3    H141154   2.214   6.640   4.452
13737TIP3    H241155   2.143   6.762   4.508
13738TIP3   OH241156   7.836   6.542   6.158
13738TIP3    H141157   7.826   6.577   6.069
13738TIP3    H241158   7.752   6.500   6.177
13739TIP3   OH241159   1.052   2.986   0.992
13739TIP3    H141160   1.081   3.041   1.065
13739TIP3    H241161   1.015   2.908   1.034
13740TIP3   OH241162   6.313   1.473   3.126
13740TIP3    H141163   6.290   1.560   3.093
13740TIP3    H241164   6.276   1.412   3.062
13741TIP3   OH241165   3.554   1.074   1.641
13741TIP3    H141166   3.581   1.050   1.730
13741TIP3    H241167   3.634   1.064   1.589
13742TIP3   OH241168   7.468   5.391   0.787
13742TIP3    H141169   7.501   5.481   0.785
13742TIP3    H241170   7.539   5.339   0.824
13743TIP3   OH241171   3.888   5.532   1.934
13743TIP3    H141172   3.854   5.494   2.014
13743TIP3    H241173   3.892   5.626   1.952
13744TIP3   OH241174   3.658   2.843   3.518
13744TIP3    H141175   3.676   2.922   3.570
13744TIP3    H241176   3.679   2.770   3.576
13745TIP3   OH241177   2.032   2.970   5.851
13745TIP3    H141178   1.956   2.913   5.852
13745TIP3    H241179   2.081   2.946   5.930
13746TIP3   OH241180   5.746   1.829   0.239
13746TIP3    H141181   5.775   1.875   0.160
13746TIP3    H241182   5.657   1.801   0.219
13747TIP3   OH241183   3.747   1.176   4.892
13747TIP3    H141184   3.826   1.135   4.924
13747TIP3    H241185   3.775   1.227   4.816
13748TIP3   OH241186   1.781   4.066   1.489
13748TIP3    H141187   1.729   4.014   1.550
13748TIP3    H241188   1.828   4.000   1.437
13749TIP3   OH241189   5.384   3.135   0.821
13749TIP3    H141190   5.328   3.098   0.753
13749TIP3    H241191   5.433   3.061   0.855
13750TIP3   OH241192   6.965   6.847   1.997
13750TIP3    H141193   6.945   6.940   1.994
13750TIP3    H241194   6.881   6.803   1.984
13751TIP3   OH241195   6.943   2.944   3.541
13751TIP3    H141196   6.877   2.931   3.609
13751TIP3    H241197   6.903   2.909   3.461
13752TIP3   OH241198   1.115   7.572   5.673
13752TIP3    H141199   1.063   7.518   5.732
13752TIP3    H241200   1.204   7.569   5.710
13753TIP3   OH241201   2.252   3.063   2.613
13753TIP3    H141202   2.234   3.072   2.520
13753TIP3    H241203   2.174   3.020   2.649
13754TIP3   OH241204   4.814   4.270   2.738
13754TIP3    H141205   4.740   4.303   2.789
13754TIP3    H241206   4.827   4.336   2.670
13755TIP3   OH241207   7.862   1.203   1.886
13755TIP3    H141208   7.789   1.241   1.933
13755TIP3    H241209   7.873   1.258   1.809
13756TIP3   OH241210   2.691   2.778   0.678
13756TIP3    H141211   2.745   2.701   0.658
13756TIP3    H241212   2.626   2.746   0.740
13757TIP3   OH241213   3.157   1.008   4.666
13757TIP3    H141214   3.154   0.957   4.746
13757TIP3    H241215   3.199   0.951   4.602
13758TIP3   OH241216   5.312   4.567   6.606
13758TIP3    H141217   5.362   4.487   6.592
13758TIP3    H241218   5.250   4.570   6.533
13759TIP3   OH241219   3.267   4.248   0.593
13759TIP3    H141220   3.312   4.244   0.508
13759TIP3    H241221   3.269   4.158   0.626
13760TIP3   OH241222   1.190   1.942   6.133
13760TIP3    H141223   1.181   2.036   6.116
13760TIP3    H241224   1.208   1.936   6.226
13761TIP3   OH241225   4.980   5.482   3.507
13761TIP3    H141226   4.945   5.567   3.481
13761TIP3    H241227   4.977   5.430   3.427
13762TIP3   OH241228   1.505   4.216   5.024
13762TIP3    H141229   1.443   4.208   4.951
13762TIP3    H241230   1.455   4.191   5.101
13763TIP3   OH241231   3.577   2.087   3.731
13763TIP3    H141232   3.521   2.161   3.708
13763TIP3    H241233   3.658   2.102   3.683
13764TIP3   OH241234   5.611   0.591   3.871
13764TIP3    H141235   5.674   0.606   3.801
13764TIP3    H241236   5.540   0.541   3.830
13765TIP3   OH241237   3.360   5.808   3.694
13765TIP3    H141238   3.415   5.884   3.714
13765TIP3    H241239   3.420   5.733   3.698
13766TIP3   OH241240   4.286   0.720   4.434
13766TIP3    H141241   4.295   0.732   4.340
13766TIP3    H241242   4.374   0.698   4.464
13767TIP3   OH241243   2.632   2.939   5.148
13767TIP3    H141244   2.581   3.006   5.103
13767TIP3    H241245   2.592   2.856   5.121
13768TIP3   OH241246   5.635   0.479   1.765
13768TIP3    H141247   5.559   0.429   1.794
13768TIP3    H241248   5.599   0.563   1.735
13769TIP3   OH241249   7.226   7.570   1.607
13769TIP3    H141250   7.182   7.620   1.539
13769TIP3    H241251   7.157   7.549   1.670
13770TIP3   OH241252   4.502   2.728   0.850
13770TIP3    H141253   4.585   2.738   0.803
13770TIP3    H241254   4.513   2.647   0.900
13771TIP3   OH241255   1.304   2.634   1.234
13771TIP3    H141256   1.269   2.546   1.247
13771TIP3    H241257   1.355   2.652   1.313
13772TIP3   OH241258   2.566   7.422   3.502
13772TIP3    H141259   2.649   7.431   3.455
13772TIP3    H241260   2.519   7.504   3.482
13773TIP3   OH241261   4.680   5.382   1.008
13773TIP3    H141262   4.706   5.298   1.045
13773TIP3    H241263   4.596   5.366   0.966
13774TIP3   OH241264   5.770   6.974   3.201
13774TIP3    H141265   5.800   6.968   3.291
13774TIP3    H241266   5.699   7.039   3.203
13775TIP3   OH241267   2.771   0.208   5.476
13775TIP3    H141268   2.738   0.274   5.537
13775TIP3    H241269   2.812   0.259   5.406
13776TIP3   OH241270   6.589   6.567   0.395
13776TIP3    H141271   6.498   6.536   0.403
13776TIP3    H241272   6.583   6.662   0.403
13777TIP3   OH241273   0.617   7.198   1.970
13777TIP3    H141274   0.695   7.225   1.922
13777TIP3    H241275   0.620   7.247   2.052
13778TIP3   OH241276   2.719   2.504   3.310
13778TIP3    H141277   2.692   2.544   3.393
13778TIP3    H241278   2.736   2.412   3.332
13779TIP3   OH241279   4.188   0.057   3.260
13779TIP3    H141280   4.179   0.119   3.188
13779TIP3    H241281   4.130   0.091   3.329
13780TIP3   OH241282   3.500   7.147   4.245
13780TIP3    H141283   3.501   7.157   4.340
13780TIP3    H241284   3.572   7.203   4.214
13781TIP3   OH241285   5.294   3.303   5.722
13781TIP3    H141286   5.255   3.364   5.660
13781TIP3    H241287   5.372   3.348   5.755
13782TIP3   OH241288   7.767   1.902   2.329
13782TIP3    H141289   7.719   1.883   2.248
13782TIP3    H241290   7.815   1.822   2.348
13783TIP3   OH241291   5.588   3.315   3.031
13783TIP3    H141292   5.673   3.276   3.053
13783TIP3    H241293   5.608   3.406   3.012
13784TIP3   OH241294   5.727   3.915   3.623
13784TIP3    H141295   5.794   3.848   3.611
13784TIP3    H241296   5.666   3.901   3.551
13785TIP3   OH241297   4.806   1.579   3.684
13785TIP3    H141298   4.879   1.541   3.733
13785TIP3    H241299   4.794   1.519   3.610
13786TIP3   OH241300   5.538   3.390   4.193
13786TIP3    H141301   5.492   3.375   4.110
13786TIP3    H241302   5.625   3.353   4.179
13787TIP3   OH241303   0.290   3.899   1.931
13787TIP3    H141304   0.316   3.826   1.875
13787TIP3    H241305   0.304   3.977   1.877
13788TIP3   OH241306   6.951   6.142   0.561
13788TIP3    H141307   6.867   6.188   0.571
13788TIP3    H241308   6.930   6.050   0.577
13789TIP3   OH241309   1.421   1.972   1.991
13789TIP3    H141310   1.420   2.052   2.045
13789TIP3    H241311   1.467   1.908   2.045
13790TIP3   OH241312   8.077   6.492   4.053
13790TIP3    H141313   8.011   6.541   4.005
13790TIP3    H241314   8.136   6.460   3.985
13791TIP3   OH241315   2.880   3.785   4.915
13791TIP3    H141316   2.920   3.702   4.940
13791TIP3    H241317   2.936   3.819   4.845
13792TIP3   OH241318   6.493   6.723   2.983
13792TIP3    H141319   6.485   6.787   3.054
13792TIP3    H241320   6.588   6.712   2.973
13793TIP3   OH241321   4.116   5.101   1.860
13793TIP3    H141322   4.184   5.109   1.792
13793TIP3    H241323   4.162   5.063   1.935
13794TIP3   OH241324   3.390   5.137   4.658
13794TIP3    H141325   3.307   5.098   4.633
13794TIP3    H241326   3.430   5.164   4.575
13795TIP3   OH241327   7.027   1.344   4.119
13795TIP3    H141328   6.966   1.324   4.190
13795TIP3    H241329   6.989   1.302   4.042
13796TIP3   OH241330   4.739   2.745   2.501
13796TIP3    H141331   4.690   2.827   2.497
13796TIP3    H241332   4.696   2.688   2.438
13797TIP3   OH241333   4.780   4.993   5.985
13797TIP3    H141334   4.852   5.045   6.020
13797TIP3    H241335   4.729   4.968   6.062
13798TIP3   OH241336   1.932   3.087   1.389
13798TIP3    H141337   1.993   3.160   1.398
13798TIP3    H241338   1.954   3.047   1.305
13799TIP3   OH241339   4.966   4.438   1.777
13799TIP3    H141340   5.017   4.516   1.795
13799TIP3    H241341   4.888   4.447   1.832
13800TIP3   OH241342   7.487   6.510   5.122
13800TIP3    H141343   7.439   6.592   5.109
13800TIP3    H241344   7.549   6.506   5.050
13801TIP3   OH241345   6.049   5.440   4.783
13801TIP3    H141346   5.970   5.389   4.763
13801TIP3    H241347   6.044   5.515   4.724
13802TIP3   OH241348   0.196   7.092   5.942
13802TIP3    H141349   0.184   7.160   6.008
13802TIP3    H241350   0.289   7.094   5.921
13803TIP3   OH241351   2.885   1.210   4.347
13803TIP3    H141352   2.976   1.195   4.319
13803TIP3    H241353   2.874   1.154   4.423
13804TIP3   OH241354   2.660   0.103   3.922
13804TIP3    H141355   2.680   0.057   3.841
13804TIP3    H241356   2.667   0.037   3.991
13805TIP3   OH241357   5.096   0.746   2.927
13805TIP3    H141358   5.190   0.737   2.940
13805TIP3    H241359   5.085   0.755   2.832
13806TIP3   OH241360   1.460   0.331   6.052
13806TIP3    H141361   1.497   0.247   6.077
13806TIP3    H241362   1.433   0.371   6.135
13807TIP3   OH241363   1.237   1.876   1.518
13807TIP3    H141364   1.144   1.895   1.528
13807TIP3    H241365   1.258   1.818   1.591
13808TIP3   OH241366   5.785   6.394   5.949
13808TIP3    H141367   5.870   6.358   5.974
13808TIP3    H241368   5.747   6.424   6.032
13809TIP3   OH241369   6.558   6.483   1.527
13809TIP3    H141370   6.627   6.518   1.470
13809TIP3    H241371   6.605   6.436   1.595
13810TIP3   OH241372   4.304   2.899   2.771
13810TIP3    H141373   4.322   2.811   2.738
13810TIP3    H241374   4.281   2.950   2.693
13811TIP3   OH241375   1.556   6.805   4.054
13811TIP3    H141376   1.606   6.730   4.022
13811TIP3    H241377   1.498   6.769   4.120
13812TIP3   OH241378   3.759   4.305   6.466
13812TIP3    H141379   3.675   4.327   6.425
13812TIP3    H241380   3.741   4.307   6.560
13813TIP3   OH241381   3.605   1.176   2.543
13813TIP3    H141382   3.528   1.204   2.592
13813TIP3    H241383   3.587   1.085   2.520
13814TIP3   OH241384   5.979   5.500   5.818
13814TIP3    H141385   6.023   5.415   5.808
13814TIP3    H241386   5.979   5.516   5.912
13815TIP3   OH241387   2.658   4.810   1.822
13815TIP3    H141388   2.731   4.834   1.765
13815TIP3    H241389   2.632   4.893   1.863
13816TIP3   OH241390   6.277   4.574   3.792
13816TIP3    H141391   6.198   4.620   3.764
13816TIP3    H241392   6.268   4.485   3.757
13817TIP3   OH241393   7.895   3.155   3.998
13817TIP3    H141394   7.967   3.186   4.053
13817TIP3    H241395   7.906   3.203   3.915
13818TIP3   OH241396   5.886   3.118   4.446
13818TIP3    H141397   5.897   3.029   4.413
13818TIP3    H241398   5.957   3.168   4.404
13819TIP3   OH241399   1.961   0.600   3.618
13819TIP3    H141400   1.933   0.519   3.574
13819TIP3    H241401   1.880   0.649   3.631
13820TIP3   OH241402   3.987   0.017   5.888
13820TIP3    H141403   4.038  -0.051   5.844
13820TIP3    H241404   4.040   0.042   5.963
13821TIP3   OH241405   3.344   0.070   1.461
13821TIP3    H141406   3.280   0.011   1.501
13821TIP3    H241407   3.429   0.033   1.486
13822TIP3   OH241408   2.735   4.501   6.461
13822TIP3    H141409   2.782   4.546   6.532
13822TIP3    H241410   2.740   4.561   6.387
13823TIP3   OH241411   1.583   1.491   5.219
13823TIP3    H141412   1.604   1.579   5.250
13823TIP3    H241413   1.667   1.456   5.188
13824TIP3   OH241414   1.932   0.098   6.059
13824TIP3    H141415   1.960   0.099   5.967
13824TIP3    H241416   1.972   0.019   6.095
13825TIP3   OH241417   0.646   5.717   3.726
13825TIP3    H141418   0.600   5.726   3.809
13825TIP3    H241419   0.694   5.634   3.733
13826TIP3   OH241420   1.365   2.848   4.004
13826TIP3    H141421   1.335   2.925   4.052
13826TIP3    H241422   1.392   2.882   3.919
13827TIP3   OH241423   7.918   5.758   4.702
13827TIP3    H141424   7.958   5.690   4.757
13827TIP3    H241425   7.916   5.720   4.614
13828TIP3   OH241426   5.299   4.028   6.333
13828TIP3    H141427   5.371   3.972   6.303
13828TIP3    H241428   5.333   4.071   6.411
13829TIP3   OH241429   4.558   7.679   5.250
13829TIP3    H141430   4.473   7.723   5.254
13829TIP3    H241431   4.548   7.602   5.306
13830TIP3   OH241432   6.438   6.388   2.470
13830TIP3    H141433   6.393   6.311   2.436
13830TIP3    H241434   6.519   6.393   2.418
13831TIP3   OH241435   8.169   3.645   5.363
13831TIP3    H141436   8.200   3.668   5.275
13831TIP3    H241437   8.127   3.560   5.352
13832TIP3   OH241438   5.999   5.979   1.467
13832TIP3    H141439   5.918   6.019   1.438
13832TIP3    H241440   6.019   5.913   1.400
13833TIP3   OH241441   7.184   6.740   6.269
13833TIP3    H141442   7.170   6.805   6.339
13833TIP3    H241443   7.185   6.656   6.314
13834TIP3   OH241444   4.485   3.102   6.044
13834TIP3    H141445   4.468   3.188   6.006
13834TIP3    H241446   4.440   3.041   5.986
13835TIP3   OH241447   6.386   1.182   6.657
13835TIP3    H141448   6.438   1.184   6.737
13835TIP3    H241449   6.445   1.220   6.590
13836TIP3   OH241450   5.744   5.609   0.861
13836TIP3    H141451   5.752   5.554   0.939
13836TIP3    H241452   5.655   5.593   0.829
13837TIP3   OH241453   1.971   5.755   4.408
13837TIP3    H141454   1.968   5.659   4.411
13837TIP3    H241455   1.893   5.783   4.455
13838TIP3   OH241456   8.217   1.853   6.222
13838TIP3    H141457   8.142   1.902   6.257
13838TIP3    H241458   8.282   1.856   6.292
13839TIP3   OH241459   0.256   3.621   3.575
13839TIP3    H141460   0.318   3.681   3.534
13839TIP3    H241461   0.186   3.612   3.510
13840TIP3   OH241462   2.948   0.608   1.712
13840TIP3    H141463   2.894   0.529   1.708
13840TIP3    H241464   2.910   0.665   1.645
13841TIP3   OH241465   7.214   7.759   4.441
13841TIP3    H141466   7.231   7.667   4.459
13841TIP3    H241467   7.127   7.760   4.403
13842TIP3   OH241468   1.768   5.967   2.389
13842TIP3    H141469   1.724   6.013   2.318
13842TIP3    H241470   1.700   5.954   2.455
13843TIP3   OH241471   6.314   2.602   3.806
13843TIP3    H141472   6.233   2.573   3.766
13843TIP3    H241473   6.307   2.574   3.898
13844TIP3   OH241474   1.180   5.792   3.769
13844TIP3    H141475   1.128   5.723   3.730
13844TIP3    H241476   1.263   5.751   3.792
13845TIP3   OH241477   2.115   5.702   4.128
13845TIP3    H141478   2.075   5.779   4.170
13845TIP3    H241479   2.113   5.635   4.196
13846TIP3   OH241480   0.888   2.464   5.615
13846TIP3    H141481   0.979   2.448   5.588
13846TIP3    H241482   0.871   2.397   5.682
13847TIP3   OH241483   2.388   6.028   0.318
13847TIP3    H141484   2.412   5.988   0.401
13847TIP3    H241485   2.470   6.059   0.280
13848TIP3   OH241486   4.056   1.362   0.678
13848TIP3    H141487   4.039   1.346   0.771
13848TIP3    H241488   4.149   1.384   0.674
13849TIP3   OH241489   7.128   2.192   3.941
13849TIP3    H141490   7.157   2.109   3.902
13849TIP3    H241491   7.208   2.246   3.943
13850TIP3   OH241492   3.008   5.127   5.278
13850TIP3    H141493   3.086   5.169   5.241
13850TIP3    H241494   3.006   5.156   5.369
13851TIP3   OH241495   4.877   6.173   2.106
13851TIP3    H141496   4.878   6.079   2.124
13851TIP3    H241497   4.938   6.210   2.170
13852TIP3   OH241498   5.461   6.946   4.494
13852TIP3    H141499   5.502   6.884   4.433
13852TIP3    H241500   5.377   6.968   4.452
13853TIP3   OH241501   0.825   1.007   4.862
13853TIP3    H141502   0.908   1.045   4.832
13853TIP3    H241503   0.763   1.080   4.862
13854TIP3   OH241504   6.350   2.617   0.267
13854TIP3    H141505   6.269   2.662   0.294
13854TIP3    H241506   6.369   2.652   0.180
13855TIP3   OH241507   7.955   7.044   4.876
13855TIP3    H141508   7.891   7.109   4.905
13855TIP3    H241509   8.032   7.059   4.930
13856TIP3   OH241510   6.179   1.847   4.534
13856TIP3    H141511   6.095   1.835   4.491
13856TIP3    H241512   6.225   1.764   4.520
13857TIP3   OH241513   3.980   5.002   3.622
13857TIP3    H141514   3.895   4.959   3.621
13857TIP3    H241515   4.040   4.937   3.658
13858TIP3   OH241516   7.881   6.792   5.722
13858TIP3    H141517   7.966   6.800   5.679
13858TIP3    H241518   7.822   6.846   5.670
13859TIP3   OH241519   5.597   4.617   6.434
13859TIP3    H141520   5.590   4.712   6.436
13859TIP3    H241521   5.522   4.587   6.383
13860TIP3   OH241522   5.128   4.471   5.706
13860TIP3    H141523   5.192   4.463   5.636
13860TIP3    H241524   5.073   4.545   5.681
13861TIP3   OH241525   2.183   2.825   2.988
13861TIP3    H141526   2.165   2.731   2.988
13861TIP3    H241527   2.107   2.864   3.030
13862TIP3   OH241528   4.951   4.278   0.208
13862TIP3    H141529   5.041   4.274   0.175
13862TIP3    H241530   4.898   4.244   0.135
13863TIP3   OH241531   2.864   5.039   4.389
13863TIP3    H141532   2.789   5.057   4.332
13863TIP3    H241533   2.901   4.958   4.354
13864TIP3   OH241534   5.114   3.239   0.509
13864TIP3    H141535   5.093   3.199   0.425
13864TIP3    H241536   5.076   3.326   0.505
13865TIP3   OH241537   3.046   7.433   6.491
13865TIP3    H141538   3.007   7.446   6.578
13865TIP3    H241539   3.006   7.501   6.437
13866TIP3   OH241540   1.668   5.096   6.502
13866TIP3    H141541   1.573   5.084   6.495
13866TIP3    H241542   1.703   5.046   6.429
13867TIP3   OH241543   2.499   2.026   0.148
13867TIP3    H141544   2.410   1.996   0.168
13867TIP3    H241545   2.553   1.984   0.215
13868TIP3   OH241546   4.161   1.910   2.381
13868TIP3    H141547   4.217   1.833   2.371
13868TIP3    H241548   4.221   1.982   2.401
13869TIP3   OH241549   4.139   3.226   5.751
13869TIP3    H141550   4.059   3.210   5.701
13869TIP3    H241551   4.205   3.171   5.710
13870TIP3   OH241552   0.064   0.390   1.373
13870TIP3    H141553   0.041   0.325   1.438
13870TIP3    H241554   0.153   0.366   1.345
13871TIP3   OH241555   4.766   7.127   3.526
13871TIP3    H141556   4.788   7.186   3.454
13871TIP3    H241557   4.795   7.173   3.605
13872TIP3   OH241558   3.416   1.164   5.727
13872TIP3    H141559   3.329   1.188   5.695
13872TIP3    H241560   3.443   1.090   5.673
13873TIP3   OH241561   4.379   4.392   1.590
13873TIP3    H141562   4.391   4.486   1.606
13873TIP3    H241563   4.286   4.377   1.608
13874TIP3   OH241564   1.740   6.584   6.659
13874TIP3    H141565   1.686   6.573   6.580
13874TIP3    H241566   1.759   6.678   6.661
13875TIP3   OH241567   8.281   4.062   2.202
13875TIP3    H141568   8.324   4.125   2.259
13875TIP3    H241569   8.196   4.046   2.243
13876TIP3   OH241570   8.293   1.713   3.614
13876TIP3    H141571   8.200   1.718   3.638
13876TIP3    H241572   8.295   1.653   3.540
13877TIP3   OH241573   6.090   1.618   0.158
13877TIP3    H141574   6.094   1.525   0.135
13877TIP3    H241575   6.009   1.627   0.208
13878TIP3   OH241576   0.731   2.488   3.915
13878TIP3    H141577   0.659   2.466   3.974
13878TIP3    H241578   0.810   2.470   3.966
13879TIP3   OH241579   5.532   0.457   4.884
13879TIP3    H141580   5.488   0.541   4.893
13879TIP3    H241581   5.483   0.398   4.941
13880TIP3   OH241582   3.112   2.549   5.861
13880TIP3    H141583   3.096   2.549   5.955
13880TIP3    H241584   3.178   2.481   5.847
13881TIP3   OH241585   3.764   7.403   4.739
13881TIP3    H141586   3.789   7.321   4.697
13881TIP3    H241587   3.814   7.404   4.821
13882TIP3   OH241588   0.745   4.054   5.461
13882TIP3    H141589   0.810   4.065   5.391
13882TIP3    H241590   0.787   3.993   5.523
13883TIP3   OH241591   5.558   3.181   4.962
13883TIP3    H141592   5.612   3.110   4.926
13883TIP3    H241593   5.508   3.214   4.887
13884TIP3   OH241594   8.209   3.057   2.749
13884TIP3    H141595   8.241   2.995   2.815
13884TIP3    H241596   8.144   3.008   2.699
13885TIP3   OH241597   0.004   7.183   1.322
13885TIP3    H141598  -0.067   7.233   1.364
13885TIP3    H241599   0.016   7.226   1.238
13886TIP3   OH241600   0.005   6.551   6.185
13886TIP3    H141601   0.095   6.583   6.195
13886TIP3    H241602  -0.017   6.571   6.094
13887TIP3   OH241603   5.291   4.623   3.721
13887TIP3    H141604   5.327   4.542   3.755
13887TIP3    H241605   5.209   4.636   3.769
13888TIP3   OH241606   2.131   5.130   3.984
13888TIP3    H141607   2.089   5.180   3.914
13888TIP3    H241608   2.217   5.106   3.948
13889TIP3   OH241609   6.704   6.249   1.164
13889TIP3    H141610   6.619   6.290   1.183
13889TIP3    H241611   6.694   6.214   1.075
13890TIP3   OH241612   2.765   3.542   2.553
13890TIP3    H141613   2.781   3.568   2.462
13890TIP3    H241614   2.853   3.536   2.591
13891TIP3   OH241615   2.958   0.324   5.320
13891TIP3    H141616   2.949   0.378   5.398
13891TIP3    H241617   3.008   0.248   5.349
13892TIP3   OH241618   0.417   0.551   2.137
13892TIP3    H141619   0.359   0.585   2.069
13892TIP3    H241620   0.382   0.463   2.156
13893TIP3   OH241621   3.684   5.827   3.073
13893TIP3    H141622   3.607   5.880   3.094
13893TIP3    H241623   3.688   5.829   2.977
13894TIP3   OH241624   4.259   0.045   4.080
13894TIP3    H141625   4.218   0.117   4.031
13894TIP3    H241626   4.203  -0.030   4.064
13895TIP3   OH241627   1.978   6.360   0.562
13895TIP3    H141628   1.930   6.432   0.520
13895TIP3    H241629   2.070   6.384   0.551
13896TIP3   OH241630   6.095   0.034   6.673
13896TIP3    H141631   6.086  -0.019   6.752
13896TIP3    H241632   6.013   0.021   6.625
13897TIP3   OH241633   7.480   6.794   5.056
13897TIP3    H141634   7.486   6.880   5.015
13897TIP3    H241635   7.491   6.810   5.149
13898TIP3   OH241636   6.243   4.459   1.360
13898TIP3    H141637   6.291   4.381   1.389
13898TIP3    H241638   6.199   4.491   1.440
13899TIP3   OH241639   0.485   6.228   3.319
13899TIP3    H141640   0.575   6.247   3.290
13899TIP3    H241641   0.454   6.312   3.353
13900TIP3   OH241642   5.812   0.827   2.627
13900TIP3    H141643   5.726   0.858   2.655
13900TIP3    H241644   5.824   0.866   2.541
13901TIP3   OH241645   6.137   5.206   2.162
13901TIP3    H141646   6.109   5.277   2.105
13901TIP3    H241647   6.071   5.138   2.150
13902TIP3   OH241648   5.183   4.818   1.434
13902TIP3    H141649   5.155   4.897   1.480
13902TIP3    H241650   5.129   4.817   1.354
13903TIP3   OH241651   1.507   5.225   3.520
13903TIP3    H141652   1.529   5.276   3.598
13903TIP3    H241653   1.508   5.288   3.449
13904TIP3   OH241654   5.040   2.137   6.483
13904TIP3    H141655   5.037   2.232   6.473
13904TIP3    H241656   5.095   2.122   6.560
13905TIP3   OH241657   3.235   7.603   3.426
13905TIP3    H141658   3.319   7.636   3.395
13905TIP3    H241659   3.174   7.619   3.354
13906TIP3   OH241660   6.438   0.562   2.709
13906TIP3    H141661   6.512   0.547   2.768
13906TIP3    H241662   6.368   0.507   2.744
13907TIP3   OH241663   4.905   2.141   1.820
13907TIP3    H141664   4.985   2.192   1.808
13907TIP3    H241665   4.835   2.206   1.816
13908TIP3   OH241666   5.584   7.347   2.459
13908TIP3    H141667   5.529   7.393   2.523
13908TIP3    H241668   5.550   7.258   2.458
13909TIP3   OH241669   8.086   2.383   3.853
13909TIP3    H141670   8.170   2.429   3.855
13909TIP3    H241671   8.108   2.292   3.836
13910TIP3   OH241672   0.835   7.265   5.549
13910TIP3    H141673   0.758   7.209   5.557
13910TIP3    H241674   0.803   7.353   5.566
13911TIP3   OH241675   6.096   1.448   6.119
13911TIP3    H141676   6.071   1.475   6.031
13911TIP3    H241677   6.141   1.524   6.156
13912TIP3   OH241678   7.864   3.277   0.312
13912TIP3    H141679   7.934   3.236   0.262
13912TIP3    H241680   7.892   3.271   0.403
13913TIP3   OH241681   4.228   5.747   6.507
13913TIP3    H141682   4.237   5.819   6.569
13913TIP3    H241683   4.201   5.672   6.560
13914TIP3   OH241684   5.724   1.676   4.523
13914TIP3    H141685   5.776   1.667   4.603
13914TIP3    H241686   5.686   1.764   4.529
13915TIP3   OH241687   3.879   4.664   6.615
13915TIP3    H141688   3.903   4.721   6.688
13915TIP3    H241689   3.862   4.579   6.655
13916TIP3   OH241690   3.177   7.672   6.158
13916TIP3    H141691   3.099   7.715   6.191
13916TIP3    H241692   3.154   7.579   6.155
13917TIP3   OH241693   4.569   3.844   5.077
13917TIP3    H141694   4.607   3.915   5.129
13917TIP3    H241695   4.573   3.768   5.135
13918TIP3   OH241696   6.966   5.238   4.957
13918TIP3    H141697   7.037   5.301   4.968
13918TIP3    H241698   7.006   5.153   4.974
13919TIP3   OH241699   3.251   4.511   2.429
13919TIP3    H141700   3.326   4.483   2.377
13919TIP3    H241701   3.281   4.505   2.520
13920TIP3   OH241702   7.118   6.506   2.369
13920TIP3    H141703   7.166   6.437   2.324
13920TIP3    H241704   7.147   6.587   2.327
13921TIP3   OH241705   7.349   5.602   5.846
13921TIP3    H141706   7.375   5.525   5.796
13921TIP3    H241707   7.298   5.655   5.784
13922TIP3   OH241708   2.944   5.686   4.959
13922TIP3    H141709   2.972   5.752   4.896
13922TIP3    H241710   2.900   5.619   4.906
13923TIP3   OH241711   4.108   0.787   4.644
13923TIP3    H141712   4.097   0.705   4.693
13923TIP3    H241713   4.182   0.770   4.586
13924TIP3   OH241714   6.914   6.832   0.421
13924TIP3    H141715   6.987   6.892   0.412
13924TIP3    H241716   6.910   6.785   0.338
13925TIP3   OH241717   5.587   5.989   1.582
13925TIP3    H141718   5.513   5.947   1.624
13925TIP3    H241719   5.661   5.929   1.595
13926TIP3   OH241720   1.767   3.160   4.409
13926TIP3    H141721   1.700   3.129   4.470
13926TIP3    H241722   1.824   3.217   4.461
13927TIP3   OH241723   3.793   6.802   1.818
13927TIP3    H141724   3.737   6.858   1.871
13927TIP3    H241725   3.782   6.835   1.729
13928TIP3   OH241726   7.936   4.746   3.889
13928TIP3    H141727   7.952   4.840   3.887
13928TIP3    H241728   7.842   4.737   3.874
13929TIP3   OH241729   0.349   6.905   4.181
13929TIP3    H141730   0.306   6.969   4.125
13929TIP3    H241731   0.433   6.888   4.139
13930TIP3   OH241732   0.211   5.126   5.830
13930TIP3    H141733   0.159   5.177   5.893
13930TIP3    H241734   0.147   5.090   5.769
13931TIP3   OH241735   3.050   7.540   4.683
13931TIP3    H141736   3.065   7.459   4.732
13931TIP3    H241737   2.956   7.557   4.692
13932TIP3   OH241738   2.517   1.824   4.140
13932TIP3    H141739   2.609   1.838   4.118
13932TIP3    H241740   2.507   1.862   4.227
13933TIP3   OH241741   7.017   5.481   0.870
13933TIP3    H141742   6.979   5.474   0.783
13933TIP3    H241743   6.944   5.506   0.927
13934TIP3   OH241744   0.203   1.568   6.371
13934TIP3    H141745   0.238   1.479   6.373
13934TIP3    H241746   0.108   1.556   6.362
13935TIP3   OH241747   5.424   7.486   4.580
13935TIP3    H141748   5.458   7.575   4.575
13935TIP3    H241749   5.333   7.496   4.609
13936TIP3   OH241750   2.458   4.866   6.727
13936TIP3    H141751   2.423   4.836   6.643
13936TIP3    H241752   2.406   4.819   6.793
13937TIP3   OH241753   2.725   0.227   1.464
13937TIP3    H141754   2.636   0.257   1.447
13937TIP3    H241755   2.780   0.301   1.438
13938TIP3   OH241756   1.788   7.409   4.003
13938TIP3    H141757   1.758   7.382   3.916
13938TIP3    H241758   1.798   7.504   3.996
13939TIP3   OH241759   4.732   4.395   3.404
13939TIP3    H141760   4.748   4.486   3.429
13939TIP3    H241761   4.766   4.344   3.477
13940TIP3   OH241762   6.436   2.005   6.205
13940TIP3    H141763   6.395   2.066   6.266
13940TIP3    H241764   6.414   1.918   6.239
13941TIP3   OH241765   6.926   5.438   1.660
13941TIP3    H141766   6.968   5.395   1.585
13941TIP3    H241767   6.837   5.402   1.662
13942TIP3   OH241768   1.764   2.187   6.735
13942TIP3    H141769   1.694   2.185   6.801
13942TIP3    H241770   1.737   2.122   6.670
13943TIP3   OH241771   6.223   3.451   2.035
13943TIP3    H141772   6.290   3.460   1.967
13943TIP3    H241773   6.209   3.540   2.066
13944TIP3   OH241774   7.085   6.330   3.394
13944TIP3    H141775   7.073   6.383   3.316
13944TIP3    H241776   7.102   6.241   3.362
13945TIP3   OH241777   3.861   1.340   4.704
13945TIP3    H141778   3.792   1.401   4.678
13945TIP3    H241779   3.940   1.394   4.711
13946TIP3   OH241780   7.923   7.485   2.638
13946TIP3    H141781   7.863   7.420   2.674
13946TIP3    H241782   7.956   7.446   2.557
13947TIP3   OH241783   3.138   6.846   1.275
13947TIP3    H141784   3.063   6.817   1.328
13947TIP3    H241785   3.210   6.791   1.305
13948TIP3   OH241786   2.066   3.647   0.272
13948TIP3    H141787   2.019   3.566   0.257
13948TIP3    H241788   2.091   3.644   0.364
13949TIP3   OH241789   7.167   0.023   1.150
13949TIP3    H141790   7.254   0.060   1.167
13949TIP3    H241791   7.145  -0.024   1.230
13950TIP3   OH241792   5.813   3.189   5.403
13950TIP3    H141793   5.762   3.179   5.483
13950TIP3    H241794   5.749   3.177   5.332
13951TIP3   OH241795   7.284   2.213   3.193
13951TIP3    H141796   7.332   2.295   3.206
13951TIP3    H241797   7.192   2.240   3.184
13952TIP3   OH241798   1.595   6.827   4.864
13952TIP3    H141799   1.549   6.824   4.781
13952TIP3    H241800   1.679   6.868   4.844
13953TIP3   OH241801   2.811   0.470   2.047
13953TIP3    H141802   2.865   0.460   2.125
13953TIP3    H241803   2.741   0.530   2.073
13954TIP3   OH241804   3.050   1.241   2.698
13954TIP3    H141805   3.094   1.173   2.749
13954TIP3    H241806   3.088   1.234   2.611
13955TIP3   OH241807   4.084   2.081   4.130
13955TIP3    H141808   3.994   2.057   4.108
13955TIP3    H241809   4.077   2.172   4.161
13956TIP3   OH241810   5.757   4.092   1.530
13956TIP3    H141811   5.838   4.134   1.558
13956TIP3    H241812   5.728   4.145   1.455
13957TIP3   OH241813   0.937   3.879   1.266
13957TIP3    H141814   0.899   3.811   1.209
13957TIP3    H241815   1.029   3.854   1.274
13958TIP3   OH241816   6.566   2.928   2.790
13958TIP3    H141817   6.625   2.924   2.866
13958TIP3    H241818   6.496   2.986   2.817
13959TIP3   OH241819   0.536   7.242   2.332
13959TIP3    H141820   0.461   7.284   2.375
13959TIP3    H241821   0.575   7.312   2.280
13960TIP3   OH241822   6.682   4.367   3.553
13960TIP3    H141823   6.612   4.307   3.528
13960TIP3    H241824   6.640   4.430   3.612
13961TIP3   OH241825   0.087   4.832   4.620
13961TIP3    H141826   0.102   4.824   4.714
13961TIP3    H241827  -0.008   4.835   4.611
13962TIP3   OH241828   2.974   1.737   0.174
13962TIP3    H141829   2.968   1.827   0.207
13962TIP3    H241830   2.973   1.683   0.253
13963TIP3   OH241831   1.690   7.303   0.665
13963TIP3    H141832   1.694   7.387   0.618
13963TIP3    H241833   1.686   7.328   0.757
13964TIP3   OH241834   3.426   7.310   4.777
13964TIP3    H141835   3.363   7.376   4.747
13964TIP3    H241836   3.455   7.342   4.862
13965TIP3   OH241837   2.335   4.598   4.909
13965TIP3    H141838   2.371   4.623   4.994
13965TIP3    H241839   2.301   4.509   4.922
13966TIP3   OH241840   0.304   4.965   2.596
13966TIP3    H141841   0.340   4.880   2.624
13966TIP3    H241842   0.269   5.003   2.677
13967TIP3   OH241843   4.701   3.719   0.150
13967TIP3    H141844   4.784   3.759   0.177
13967TIP3    H241845   4.693   3.641   0.205
13968TIP3   OH241846   8.061   5.460   6.073
13968TIP3    H141847   7.985   5.409   6.047
13968TIP3    H241848   8.101   5.488   5.990
13969TIP3   OH241849   4.772   4.073   1.815
13969TIP3    H141850   4.765   3.990   1.862
13969TIP3    H241851   4.792   4.137   1.883
13970TIP3   OH241852   8.219   2.979   5.783
13970TIP3    H141853   8.132   3.018   5.777
13970TIP3    H241854   8.244   2.993   5.875
13971TIP3   OH241855   2.150   1.050   6.669
13971TIP3    H141856   2.215   1.113   6.640
13971TIP3    H241857   2.133   0.996   6.593
13972TIP3   OH241858   6.345   6.459   0.399
13972TIP3    H141859   6.304   6.389   0.349
13972TIP3    H241860   6.295   6.463   0.480
13973TIP3   OH241861   5.626   0.881   5.955
13973TIP3    H141862   5.609   0.974   5.940
13973TIP3    H241863   5.704   0.863   5.903
13974TIP3   OH241864   2.433   2.613   4.276
13974TIP3    H141865   2.402   2.682   4.217
13974TIP3    H241866   2.524   2.635   4.294
13975TIP3   OH241867   7.945   5.053   3.982
13975TIP3    H141868   8.027   5.021   4.017
13975TIP3    H241869   7.964   5.142   3.952
13976TIP3   OH241870   4.377   0.267   0.299
13976TIP3    H141871   4.463   0.226   0.292
13976TIP3    H241872   4.340   0.232   0.379
13977TIP3   OH241873   5.453   7.742   3.799
13977TIP3    H141874   5.383   7.704   3.746
13977TIP3    H241875   5.417   7.748   3.887
13978TIP3   OH241876   5.086   0.403   1.032
13978TIP3    H141877   4.998   0.369   1.015
13978TIP3    H241878   5.122   0.420   0.945
13979TIP3   OH241879   3.816   6.800   4.251
13979TIP3    H141880   3.850   6.871   4.197
13979TIP3    H241881   3.740   6.838   4.295
13980TIP3   OH241882   6.990   2.846   3.068
13980TIP3    H141883   6.909   2.860   3.117
13980TIP3    H241884   6.976   2.763   3.022
13981TIP3   OH241885   1.841   7.575   3.066
13981TIP3    H141886   1.893   7.498   3.086
13981TIP3    H241887   1.867   7.600   2.978
13982TIP3   OH241888   8.102   1.235   5.239
13982TIP3    H141889   8.190   1.271   5.233
13982TIP3    H241890   8.099   1.194   5.326
13983TIP3   OH241891   7.023   5.281   3.952
13983TIP3    H141892   6.951   5.326   3.909
13983TIP3    H241893   7.003   5.288   4.046
13984TIP3   OH241894   5.326   1.768   3.041
13984TIP3    H141895   5.412   1.745   3.076
13984TIP3    H241896   5.289   1.827   3.107
13985TIP3   OH241897   1.340   2.790   0.494
13985TIP3    H141898   1.386   2.791   0.410
13985TIP3    H241899   1.253   2.757   0.473
13986TIP3   OH241900   4.411   4.862   5.440
13986TIP3    H141901   4.353   4.834   5.369
13986TIP3    H241902   4.498   4.865   5.399
13987TIP3   OH241903   7.755   6.763   4.924
13987TIP3    H141904   7.748   6.670   4.905
13987TIP3    H241905   7.683   6.781   4.984
13988TIP3   OH241906   2.845   1.567   3.060
13988TIP3    H141907   2.754   1.549   3.035
13988TIP3    H241908   2.866   1.499   3.124
13989TIP3   OH241909   7.629   1.077   6.429
13989TIP3    H141910   7.627   1.015   6.501
13989TIP3    H241911   7.606   1.161   6.469
13990TIP3   OH241912   3.955   4.257   1.239
13990TIP3    H141913   3.919   4.169   1.246
13990TIP3    H241914   3.898   4.301   1.176
13991TIP3   OH241915   4.344   3.916   6.066
13991TIP3    H141916   4.314   3.967   6.141
13991TIP3    H241917   4.279   3.846   6.056
13992TIP3   OH241918   3.527   6.615   5.887
13992TIP3    H141919   3.462   6.672   5.927
13992TIP3    H241920   3.477   6.559   5.828
13993TIP3   OH241921   7.193   3.095   0.450
13993TIP3    H141922   7.107   3.120   0.485
13993TIP3    H241923   7.256   3.146   0.502
13994TIP3   OH241924   5.654   7.718   1.223
13994TIP3    H141925   5.627   7.771   1.148
13994TIP3    H241926   5.587   7.649   1.228
13995TIP3   OH241927   0.740   6.802   4.392
13995TIP3    H141928   0.676   6.743   4.432
13995TIP3    H241929   0.700   6.889   4.400
13996TIP3   OH241930   1.256   4.103   0.138
13996TIP3    H141931   1.348   4.108   0.162
13996TIP3    H241932   1.246   4.165   0.066
13997TIP3   OH241933   0.773   1.659   6.588
13997TIP3    H141934   0.837   1.722   6.554
13997TIP3    H241935   0.730   1.706   6.660
13998TIP3   OH241936   1.094   3.434   3.450
13998TIP3    H141937   1.078   3.381   3.528
13998TIP3    H241938   1.059   3.520   3.472
13999TIP3   OH241939   2.712   6.499   0.253
13999TIP3    H141940   2.765   6.437   0.203
13999TIP3    H241941   2.623   6.463   0.250
14000TIP3   OH241942   6.115   7.575   4.539
14000TIP3    H141943   6.085   7.578   4.448
14000TIP3    H241944   6.193   7.631   4.540
14001TIP3   OH241945   6.219   4.008   2.729
14001TIP3    H141946   6.128   3.988   2.705
14001TIP3    H241947   6.214   4.094   2.771
14002TIP3   OH241948   8.089   5.818   2.794
14002TIP3    H141949   7.994   5.803   2.789
14002TIP3    H241950   8.116   5.773   2.874
14003TIP3   OH241951   5.770   4.363   2.594
14003TIP3    H141952   5.786   4.457   2.591
14003TIP3    H241953   5.841   4.329   2.648
14004TIP3   OH241954   3.053   1.825   3.865
14004TIP3    H141955   3.062   1.804   3.958
14004TIP3    H241956   3.142   1.846   3.837
14005TIP3   OH241957   3.759   6.343   2.505
14005TIP3    H141958   3.690   6.327   2.441
14005TIP3    H241959   3.716   6.334   2.590
14006TIP3   OH241960   3.241   0.879   0.678
14006TIP3    H141961   3.169   0.886   0.615
14006TIP3    H241962   3.199   0.883   0.764
14007TIP3   OH241963   2.576   1.086   0.908
14007TIP3    H141964   2.490   1.120   0.883
14007TIP3    H241965   2.559   1.034   0.986
14008TIP3   OH241966   3.443   0.180   5.713
14008TIP3    H141967   3.415   0.141   5.797
14008TIP3    H241968   3.386   0.138   5.648
14009TIP3   OH241969   3.114   2.826   6.355
14009TIP3    H141970   3.087   2.916   6.338
14009TIP3    H241971   3.046   2.772   6.317
14010TIP3   OH241972   4.924   0.027   5.516
14010TIP3    H141973   4.941  -0.067   5.506
14010TIP3    H241974   4.865   0.048   5.443
14011TIP3   OH241975   8.109   6.202   4.252
14011TIP3    H141976   8.043   6.210   4.184
14011TIP3    H241977   8.114   6.108   4.269
14012TIP3   OH241978   7.333   2.721   1.809
14012TIP3    H141979   7.275   2.709   1.884
14012TIP3    H241980   7.306   2.806   1.773
14013TIP3   OH241981   3.285   3.318   0.353
14013TIP3    H141982   3.263   3.263   0.428
14013TIP3    H241983   3.381   3.324   0.355
14014TIP3   OH241984   2.650   0.039   5.840
14014TIP3    H141985   2.575   0.094   5.865
14014TIP3    H241986   2.716   0.102   5.811
14015TIP3   OH241987   7.312   1.573   6.199
14015TIP3    H141988   7.382   1.604   6.256
14015TIP3    H241989   7.355   1.558   6.115
14016TIP3   OH241990   5.551   6.576   4.500
14016TIP3    H141991   5.505   6.495   4.477
14016TIP3    H241992   5.534   6.635   4.426
14017TIP3   OH241993   5.903   7.459   1.682
14017TIP3    H141994   5.888   7.463   1.588
14017TIP3    H241995   5.894   7.366   1.704
14018TIP3   OH241996   7.046   4.664   6.581
14018TIP3    H141997   6.950   4.664   6.586
14018TIP3    H241998   7.071   4.753   6.604
14019TIP3   OH241999   6.756   1.294   2.025
14019TIP3    H142000   6.837   1.340   2.004
14019TIP3    H242001   6.695   1.363   2.050
14020TIP3   OH242002   5.231   2.193   6.682
14020TIP3    H142003   5.259   2.113   6.727
14020TIP3    H242004   5.296   2.204   6.612
14021TIP3   OH242005   6.349   1.873   5.410
14021TIP3    H142006   6.439   1.903   5.399
14021TIP3    H242007   6.331   1.820   5.333
14022TIP3   OH242008   3.707   0.674   5.741
14022TIP3    H142009   3.617   0.658   5.768
14022TIP3    H242010   3.722   0.611   5.670
14023TIP3   OH242011   7.630   7.665   4.676
14023TIP3    H142012   7.652   7.606   4.748
14023TIP3    H242013   7.709   7.667   4.621
14024TIP3   OH242014   7.003   5.095   5.611
14024TIP3    H142015   6.919   5.054   5.593
14024TIP3    H242016   7.014   5.160   5.541
14025TIP3   OH242017   5.410   6.925   2.321
14025TIP3    H142018   5.327   6.878   2.334
14025TIP3    H242019   5.477   6.859   2.339
14026TIP3   OH242020   6.591   3.158   3.798
14026TIP3    H142021   6.634   3.164   3.883
14026TIP3    H242022   6.641   3.092   3.750
14027TIP3   OH242023   7.665   3.403   4.747
14027TIP3    H142024   7.664   3.386   4.841
14027TIP3    H242025   7.637   3.494   4.738
14028TIP3   OH242026   3.228   5.788   2.748
14028TIP3    H142027   3.222   5.809   2.655
14028TIP3    H242028   3.202   5.696   2.754
14029TIP3   OH242029   7.142   1.801   0.527
14029TIP3    H142030   7.179   1.728   0.478
14029TIP3    H242031   7.217   1.852   0.556
14030TIP3   OH242032   7.136   7.667   5.846
14030TIP3    H142033   7.095   7.601   5.902
14030TIP3    H242034   7.136   7.747   5.898
14031TIP3   OH242035   2.699   4.677   6.191
14031TIP3    H142036   2.785   4.654   6.157
14031TIP3    H242037   2.716   4.749   6.253
14032TIP3   OH242038   4.805   1.578   5.468
14032TIP3    H142039   4.820   1.604   5.376
14032TIP3    H242040   4.868   1.508   5.483
14033TIP3   OH242041   4.317   3.677   3.502
14033TIP3    H142042   4.351   3.718   3.423
14033TIP3    H242043   4.229   3.714   3.513
14034TIP3   OH242044   0.448   6.908   1.612
14034TIP3    H142045   0.436   7.000   1.587
14034TIP3    H242046   0.542   6.893   1.602
14035TIP3   OH242047   3.749   5.297   1.875
14035TIP3    H142048   3.792   5.376   1.842
14035TIP3    H242049   3.656   5.320   1.879
14036TIP3   OH242050   0.806   7.720   5.446
14036TIP3    H142051   0.782   7.787   5.383
14036TIP3    H242052   0.893   7.745   5.477
14037TIP3   OH242053   5.027   4.892   5.774
14037TIP3    H142054   4.952   4.951   5.786
14037TIP3    H242055   4.998   4.809   5.810
14038TIP3   OH242056   5.738   1.050   0.162
14038TIP3    H142057   5.753   1.128   0.108
14038TIP3    H242058   5.824   1.010   0.171
14039TIP3   OH242059   6.378   6.065   2.158
14039TIP3    H142060   6.416   6.153   2.150
14039TIP3    H242061   6.315   6.060   2.087
14040TIP3   OH242062   5.405   7.675   0.214
14040TIP3    H142063   5.439   7.761   0.239
14040TIP3    H242064   5.314   7.675   0.245
14041TIP3   OH242065   2.745   2.302   3.651
14041TIP3    H142066   2.792   2.384   3.660
14041TIP3    H242067   2.766   2.272   3.562
14042TIP3   OH242068   0.335   0.801   6.731
14042TIP3    H142069   0.390   0.855   6.673
14042TIP3    H242070   0.378   0.808   6.816
14043TIP3   OH242071   2.953   5.977   5.195
14043TIP3    H142072   3.033   6.028   5.179
14043TIP3    H242073   2.909   5.975   5.110
14044TIP3   OH242074   6.194   5.127   5.559
14044TIP3    H142075   6.117   5.070   5.558
14044TIP3    H242076   6.268   5.068   5.552
14045TIP3   OH242077   6.879   2.143   5.322
14045TIP3    H142078   6.952   2.085   5.300
14045TIP3    H242079   6.920   2.215   5.370
14046TIP3   OH242080   0.526   2.875   3.268
14046TIP3    H142081   0.493   2.792   3.233
14046TIP3    H242082   0.621   2.861   3.277
14047TIP3   OH242083   6.021   4.855   3.533
14047TIP3    H142084   6.041   4.763   3.515
14047TIP3    H242085   5.926   4.862   3.521
14048TIP3   OH242086   1.517   0.260   0.018
14048TIP3    H142087   1.518   0.165   0.033
14048TIP3    H242088   1.606   0.280  -0.010
14049TIP3   OH242089   5.340   6.946   1.778
14049TIP3    H142090   5.401   6.912   1.713
14049TIP3    H242091   5.394   6.960   1.856
14050TIP3   OH242092   2.953   6.943   6.603
14050TIP3    H142093   2.893   6.896   6.662
14050TIP3    H242094   2.966   6.883   6.529
14051TIP3   OH242095   5.246   2.439   4.146
14051TIP3    H142096   5.170   2.391   4.178
14051TIP3    H242097   5.253   2.413   4.054
14052TIP3   OH242098   5.891   6.420   2.593
14052TIP3    H142099   5.958   6.385   2.535
14052TIP3    H242100   5.931   6.497   2.634
14053TIP3   OH242101   6.538   1.102   4.780
14053TIP3    H142102   6.484   1.150   4.842
14053TIP3    H242103   6.612   1.160   4.762
14054TIP3   OH242104   7.290   3.482   3.920
14054TIP3    H142105   7.260   3.493   3.829
14054TIP3    H242106   7.337   3.398   3.919
14055TIP3   OH242107   7.149   6.849   0.589
14055TIP3    H142108   7.102   6.862   0.672
14055TIP3    H242109   7.240   6.873   0.609
14056TIP3   OH242110   4.468   7.023   0.539
14056TIP3    H142111   4.383   6.980   0.530
14056TIP3    H242112   4.473   7.048   0.631
14057TIP3   OH242113   5.868   3.895   6.772
14057TIP3    H142114   5.882   3.844   6.692
14057TIP3    H242115   5.778   3.875   6.798
14058TIP3   OH242116   3.687   3.953   0.490
14058TIP3    H142117   3.594   3.932   0.500
14058TIP3    H242118   3.688   4.043   0.457
14059TIP3   OH242119   0.348   1.420   1.629
14059TIP3    H142120   0.400   1.443   1.552
14059TIP3    H242121   0.258   1.412   1.595
14060TIP3   OH242122   3.517   7.336   5.861
14060TIP3    H142123   3.461   7.305   5.933
14060TIP3    H242124   3.540   7.426   5.886
14061TIP3   OH242125   5.728   5.458   2.461
14061TIP3    H142126   5.685   5.511   2.394
14061TIP3    H242127   5.797   5.514   2.495
14062TIP3   OH242128   0.235   7.657   1.248
14062TIP3    H142129   0.224   7.636   1.156
14062TIP3    H242130   0.245   7.752   1.251
14063TIP3   OH242131   0.244   0.990   3.780
14063TIP3    H142132   0.235   1.081   3.751
14063TIP3    H242133   0.163   0.948   3.753
14064TIP3   OH242134   0.065   0.708   2.842
14064TIP3    H142135   0.012   0.643   2.887
14064TIP3    H242136   0.155   0.682   2.860
14065TIP3   OH242137   2.321   3.985   4.349
14065TIP3    H142138   2.356   4.000   4.261
14065TIP3    H242139   2.382   4.029   4.408
14066TIP3   OH242140   5.691   3.249   5.636
14066TIP3    H142141   5.775   3.257   5.681
14066TIP3    H242142   5.637   3.319   5.674
14067TIP3   OH242143   0.486   7.717   1.639
14067TIP3    H142144   0.526   7.703   1.725
14067TIP3    H242145   0.392   7.707   1.655
14068TIP3   OH242146   4.286   7.645   1.317
14068TIP3    H142147   4.241   7.594   1.249
14068TIP3    H242148   4.247   7.615   1.399
14069TIP3   OH242149   2.457   4.500   1.044
14069TIP3    H142150   2.523   4.513   0.976
14069TIP3    H242151   2.380   4.469   0.996
14070TIP3   OH242152   3.490   0.422   4.198
14070TIP3    H142153   3.577   0.393   4.169
14070TIP3    H242154   3.430   0.361   4.155
14071TIP3   OH242155   2.173   2.886   4.790
14071TIP3    H142156   2.190   2.808   4.843
14071TIP3    H242157   2.252   2.898   4.737
14072TIP3   OH242158   3.527   4.216   2.096
14072TIP3    H142159   3.493   4.306   2.098
14072TIP3    H242160   3.611   4.224   2.050
14073TIP3   OH242161   4.266   6.130   2.182
14073TIP3    H142162   4.200   6.176   2.129
14073TIP3    H242163   4.306   6.198   2.235
14074TIP3   OH242164   1.904   0.040   4.611
14074TIP3    H142165   1.972  -0.026   4.604
14074TIP3    H242166   1.828   0.002   4.565
14075TIP3   OH242167   2.801   6.393   3.343
14075TIP3    H142168   2.710   6.419   3.337
14075TIP3    H242169   2.826   6.413   3.434
14076TIP3   OH242170   1.753   7.681   3.719
14076TIP3    H142171   1.777   7.610   3.659
14076TIP3    H242172   1.704   7.637   3.789
14077TIP3   OH242173   4.660   6.743   0.757
14077TIP3    H142174   4.602   6.706   0.690
14077TIP3    H242175   4.605   6.806   0.804
14078TIP3   OH242176   0.944   6.609   2.016
14078TIP3    H142177   1.004   6.545   1.978
14078TIP3    H242178   0.915   6.663   1.942
14079TIP3   OH242179   8.051   4.250   2.372
14079TIP3    H142180   8.135   4.256   2.418
14079TIP3    H242181   8.059   4.171   2.318
14080TIP3   OH242182   6.562   0.658   3.830
14080TIP3    H142183   6.644   0.615   3.854
14080TIP3    H242184   6.509   0.589   3.790
14081TIP3   OH242185   5.062   5.590   4.059
14081TIP3    H142186   4.981   5.568   4.013
14081TIP3    H242187   5.075   5.683   4.040
14082TIP3   OH242188   2.164   6.263   4.549
14082TIP3    H142189   2.105   6.307   4.487
14082TIP3    H242190   2.135   6.293   4.635
14083TIP3   OH242191   4.556   2.414   0.933
14083TIP3    H142192   4.552   2.329   0.891
14083TIP3    H242193   4.649   2.435   0.937
14084TIP3   OH242194   5.808   2.293   1.130
14084TIP3    H142195   5.749   2.262   1.198
14084TIP3    H242196   5.751   2.338   1.067
14085TIP3   OH242197   5.069   0.960   0.079
14085TIP3    H142198   4.994   0.989   0.130
14085TIP3    H242199   5.124   1.038   0.070
14086TIP3   OH242200   0.330   6.404   4.141
14086TIP3    H142201   0.313   6.490   4.181
14086TIP3    H242202   0.243   6.365   4.131
14087TIP3   OH242203   3.102   3.279   5.507
14087TIP3    H142204   3.113   3.309   5.597
14087TIP3    H242205   3.191   3.270   5.473
14088TIP3   OH242206   4.772   2.228   2.755
14088TIP3    H142207   4.772   2.316   2.793
14088TIP3    H242208   4.798   2.171   2.828
14089TIP3   OH242209   6.899   5.105   5.318
14089TIP3    H142210   6.950   5.080   5.241
14089TIP3    H242211   6.876   5.022   5.359
14090TIP3   OH242212   7.680   5.543   3.248
14090TIP3    H142213   7.754   5.537   3.188
14090TIP3    H242214   7.631   5.619   3.217
14091TIP3   OH242215   1.401   6.091   5.128
14091TIP3    H142216   1.393   6.014   5.183
14091TIP3    H242217   1.334   6.079   5.060
14092TIP3   OH242218   6.324   7.589   0.873
14092TIP3    H142219   6.377   7.533   0.816
14092TIP3    H242220   6.234   7.575   0.842
14093TIP3   OH242221   5.678   4.274   1.362
14093TIP3    H142222   5.741   4.346   1.369
14093TIP3    H242223   5.593   4.317   1.353
14094TIP3   OH242224   3.226   0.390   6.216
14094TIP3    H142225   3.236   0.371   6.123
14094TIP3    H242226   3.289   0.333   6.259
14095TIP3   OH242227   6.549   7.063   5.184
14095TIP3    H142228   6.465   7.019   5.192
14095TIP3    H242229   6.609   7.010   5.235
14096TIP3   OH242230   5.386   0.102   3.178
14096TIP3    H142231   5.325   0.098   3.252
14096TIP3    H242232   5.329   0.103   3.101
14097TIP3   OH242233   1.573   2.929   3.326
14097TIP3    H142234   1.590   2.927   3.231
14097TIP3    H242235   1.519   2.852   3.342
14098TIP3   OH242236   7.234   3.102   3.514
14098TIP3    H142237   7.158   3.046   3.531
14098TIP3    H242238   7.199   3.173   3.460
14099TIP3   OH242239   0.644   2.783   1.781
14099TIP3    H142240   0.733   2.810   1.760
14099TIP3    H242241   0.619   2.726   1.709
14100TIP3   OH242242   3.000   0.546   6.234
14100TIP3    H142243   2.982   0.517   6.323
14100TIP3    H242244   3.090   0.519   6.217
14101TIP3   OH242245   4.145   6.302   1.724
14101TIP3    H142246   4.163   6.209   1.733
14101TIP3    H242247   4.050   6.308   1.715
14102TIP3   OH242248   1.438   1.476   2.614
14102TIP3    H142249   1.381   1.411   2.654
14102TIP3    H242250   1.496   1.504   2.684
14103TIP3   OH242251   6.621   5.867   6.597
14103TIP3    H142252   6.566   5.789   6.590
14103TIP3    H242253   6.568   5.928   6.648
14104TIP3   OH242254   7.690   3.300   3.653
14104TIP3    H142255   7.644   3.244   3.590
14104TIP3    H242256   7.623   3.321   3.718
14105TIP3   OH242257   3.218   6.570   2.057
14105TIP3    H142258   3.303   6.577   2.013
14105TIP3    H242259   3.232   6.502   2.124
14106TIP3   OH242260   7.244   6.458   2.924
14106TIP3    H142261   7.237   6.466   2.829
14106TIP3    H242262   7.296   6.534   2.950
14107TIP3   OH242263   1.316   7.556   0.264
14107TIP3    H142264   1.282   7.585   0.180
14107TIP3    H242265   1.279   7.618   0.327
14108TIP3   OH242266   3.840   2.530   0.195
14108TIP3    H142267   3.751   2.498   0.181
14108TIP3    H242268   3.896   2.468   0.148
14109TIP3   OH242269   0.224   7.009   0.685
14109TIP3    H142270   0.189   6.921   0.701
14109TIP3    H242271   0.301   7.015   0.742
14110TIP3   OH242272   3.245   3.700   1.159
14110TIP3    H142273   3.322   3.687   1.214
14110TIP3    H242274   3.205   3.613   1.153
14111TIP3   OH242275   5.309   2.934   4.187
14111TIP3    H142276   5.311   2.925   4.282
14111TIP3    H242277   5.342   2.850   4.155
14112TIP3   OH242278   6.614   6.911   0.159
14112TIP3    H142279   6.690   6.957   0.194
14112TIP3    H242280   6.561   6.890   0.236
14113TIP3   OH242281   5.859   0.927   6.296
14113TIP3    H142282   5.868   0.833   6.285
14113TIP3    H242283   5.946   0.956   6.326
14114TIP3   OH242284   1.319   6.478   1.503
14114TIP3    H142285   1.310   6.536   1.428
14114TIP3    H242286   1.388   6.517   1.556
14115TIP3   OH242287   3.723   0.363   2.441
14115TIP3    H142288   3.692   0.311   2.515
14115TIP3    H242289   3.650   0.423   2.422
14116TIP3   OH242290   2.511   5.029   3.049
14116TIP3    H142291   2.501   4.958   3.112
14116TIP3    H242292   2.556   4.989   2.975
14117TIP3   OH242293   7.790   5.231   2.870
14117TIP3    H142294   7.728   5.274   2.811
14117TIP3    H242295   7.735   5.184   2.932
14118TIP3   OH242296   1.690   3.895   3.138
14118TIP3    H142297   1.692   3.982   3.178
14118TIP3    H242298   1.781   3.876   3.118
14119TIP3   OH242299   3.040   3.253   2.505
14119TIP3    H142300   3.062   3.177   2.451
14119TIP3    H242301   3.115   3.262   2.564
14120TIP3   OH242302   6.863   1.352   1.708
14120TIP3    H142303   6.869   1.266   1.748
14120TIP3    H242304   6.785   1.392   1.747
14121TIP3   OH242305   2.907   6.308   3.923
14121TIP3    H142306   2.819   6.281   3.896
14121TIP3    H242307   2.962   6.289   3.846
14122TIP3   OH242308   6.043   0.646   2.473
14122TIP3    H142309   5.948   0.656   2.485
14122TIP3    H242310   6.081   0.716   2.527
14123TIP3   OH242311   4.968   3.718   0.677
14123TIP3    H142312   5.042   3.771   0.648
14123TIP3    H242313   5.002   3.664   0.748
14124TIP3   OH242314   0.417   6.029   0.483
14124TIP3    H142315   0.386   6.070   0.564
14124TIP3    H242316   0.381   6.084   0.414
14125TIP3   OH242317   7.757   0.449   5.982
14125TIP3    H142318   7.791   0.360   5.975
14125TIP3    H242319   7.676   0.448   5.931
14126TIP3   OH242320   8.054   5.985   6.024
14126TIP3    H142321   8.057   6.005   5.931
14126TIP3    H242322   7.963   5.957   6.039
14127TIP3   OH242323   0.597   3.906   4.259
14127TIP3    H142324   0.582   3.999   4.278
14127TIP3    H242325   0.689   3.903   4.230
14128TIP3   OH242326   0.496   1.873   0.033
14128TIP3    H142327   0.417   1.901  -0.012
14128TIP3    H242328   0.535   1.954   0.067
14129TIP3   OH242329   3.398   4.010   5.565
14129TIP3    H142330   3.416   3.945   5.497
14129TIP3    H242331   3.306   4.032   5.552
14130TIP3   OH242332   1.919   5.784   6.157
14130TIP3    H142333   1.900   5.711   6.098
14130TIP3    H242334   1.837   5.800   6.204
14131TIP3   OH242335   2.527   0.935   5.297
14131TIP3    H142336   2.622   0.943   5.305
14131TIP3    H242337   2.496   1.025   5.288
14132TIP3   OH242338   5.247   1.166   6.378
14132TIP3    H142339   5.306   1.241   6.387
14132TIP3    H242340   5.258   1.117   6.459
14133TIP3   OH242341   2.748   0.956   2.029
14133TIP3    H142342   2.772   0.945   2.121
14133TIP3    H242343   2.742   0.867   1.995
14134TIP3   OH242344   3.297   0.290   1.688
14134TIP3    H142345   3.209   0.252   1.683
14134TIP3    H242346   3.354   0.228   1.643
14135TIP3   OH242347   7.910   6.286   4.094
14135TIP3    H142348   7.847   6.306   4.024
14135TIP3    H242349   7.977   6.354   4.087
14136TIP3   OH242350   1.341   5.497   5.005
14136TIP3    H142351   1.264   5.532   5.049
14136TIP3    H242352   1.378   5.572   4.958
14137TIP3   OH242353   4.706   2.509   5.523
14137TIP3    H142354   4.752   2.441   5.474
14137TIP3    H242355   4.769   2.538   5.589
14138TIP3   OH242356   7.974   4.018   5.847
14138TIP3    H142357   8.037   3.945   5.847
14138TIP3    H242358   7.981   4.054   5.935
14139TIP3   OH242359   1.312   3.651   5.301
14139TIP3    H142360   1.245   3.588   5.275
14139TIP3    H242361   1.323   3.636   5.395
14140TIP3   OH242362   2.131   7.560   0.885
14140TIP3    H142363   2.201   7.530   0.827
14140TIP3    H242364   2.080   7.621   0.831
14141TIP3   OH242365   3.918   2.945   5.720
14141TIP3    H142366   3.992   2.957   5.660
14141TIP3    H242367   3.840   2.960   5.666
14142TIP3   OH242368   1.755   0.639   2.013
14142TIP3    H142369   1.769   0.593   1.931
14142TIP3    H242370   1.842   0.652   2.049
14143TIP3   OH242371   4.287   3.775   3.155
14143TIP3    H142372   4.286   3.828   3.234
14143TIP3    H242373   4.319   3.834   3.087
14144TIP3   OH242374   0.219   3.055   6.688
14144TIP3    H142375   0.173   3.128   6.646
14144TIP3    H242376   0.285   3.097   6.744
14145TIP3   OH242377   1.882   2.530   4.727
14145TIP3    H142378   1.850   2.540   4.817
14145TIP3    H242379   1.942   2.604   4.714
14146TIP3   OH242380   6.967   5.087   0.556
14146TIP3    H142381   6.969   5.182   0.541
14146TIP3    H242382   6.980   5.049   0.469
14147TIP3   OH242383   4.529   2.140   5.969
14147TIP3    H142384   4.531   2.184   5.884
14147TIP3    H242385   4.600   2.181   6.018
14148TIP3   OH242386   5.744   5.113   3.415
14148TIP3    H142387   5.655   5.087   3.436
14148TIP3    H242388   5.785   5.033   3.382
14149TIP3   OH242389   4.967   1.632   6.453
14149TIP3    H142390   4.971   1.625   6.548
14149TIP3    H242391   4.887   1.587   6.428
14150TIP3   OH242392   0.975   3.814   2.541
14150TIP3    H142393   0.945   3.723   2.534
14150TIP3    H242394   0.999   3.823   2.633
14151TIP3   OH242395   6.296   6.969   6.068
14151TIP3    H142396   6.224   7.010   6.020
14151TIP3    H242397   6.374   6.988   6.016
14152TIP3   OH242398   2.166   1.670   0.668
14152TIP3    H142399   2.185   1.576   0.660
14152TIP3    H242400   2.154   1.684   0.762
14153TIP3   OH242401   4.866   1.908   1.649
14153TIP3    H142402   4.907   1.980   1.696
14153TIP3    H242403   4.854   1.840   1.715
14154TIP3   OH242404   2.976   6.731   6.434
14154TIP3    H142405   2.986   6.638   6.456
14154TIP3    H242406   2.934   6.731   6.348
14155TIP3   OH242407   2.170   1.744   3.178
14155TIP3    H142408   2.152   1.832   3.209
14155TIP3    H242409   2.199   1.756   3.087
14156TIP3   OH242410   2.758   0.704   6.354
14156TIP3    H142411   2.811   0.701   6.275
14156TIP3    H242412   2.814   0.746   6.419
14157TIP3   OH242413   1.900   0.940   3.241
14157TIP3    H142414   1.991   0.915   3.224
14157TIP3    H242415   1.907   1.004   3.312
14158TIP3   OH242416   7.761   6.224   2.511
14158TIP3    H142417   7.694   6.157   2.499
14158TIP3    H242418   7.736   6.270   2.591
14159TIP3   OH242419   7.815   0.174   5.937
14159TIP3    H142420   7.818   0.119   6.016
14159TIP3    H242421   7.783   0.115   5.869
14160TIP3   OH242422   6.123   3.313   1.248
14160TIP3    H142423   6.108   3.405   1.270
14160TIP3    H242424   6.191   3.285   1.308
14161TIP3   OH242425   6.380   5.283   6.055
14161TIP3    H142426   6.474   5.277   6.074
14161TIP3    H242427   6.365   5.214   5.990
14162TIP3   OH242428   5.972   2.456   5.232
14162TIP3    H142429   6.021   2.532   5.202
14162TIP3    H242430   6.039   2.395   5.263
14163TIP3   OH242431   6.615   6.622   4.347
14163TIP3    H142432   6.569   6.540   4.363
14163TIP3    H242433   6.549   6.690   4.360
14164TIP3   OH242434   2.185   1.833   5.557
14164TIP3    H142435   2.249   1.786   5.504
14164TIP3    H242436   2.239   1.885   5.617
14165TIP3   OH242437   8.178   5.052   2.060
14165TIP3    H142438   8.217   5.116   2.120
14165TIP3    H242439   8.151   5.104   1.985
14166TIP3   OH242440   1.552   5.656   5.328
14166TIP3    H142441   1.494   5.732   5.327
14166TIP3    H242442   1.627   5.683   5.380
14167TIP3   OH242443   3.785   4.102   1.451
14167TIP3    H142444   3.712   4.142   1.404
14167TIP3    H242445   3.836   4.057   1.384
14168TIP3   OH242446   0.498   7.205   5.846
14168TIP3    H142447   0.438   7.250   5.786
14168TIP3    H242448   0.552   7.275   5.882
14169TIP3   OH242449   1.387   3.177   5.683
14169TIP3    H142450   1.330   3.240   5.728
14169TIP3    H242451   1.376   3.197   5.590
14170TIP3   OH242452   6.650   1.162   6.382
14170TIP3    H142453   6.581   1.224   6.405
14170TIP3    H242454   6.713   1.167   6.454
14171TIP3   OH242455   2.224   4.350   2.789
14171TIP3    H142456   2.232   4.288   2.861
14171TIP3    H242457   2.203   4.296   2.713
14172TIP3   OH242458   7.771   3.227   1.987
14172TIP3    H142459   7.800   3.309   2.029
14172TIP3    H242460   7.732   3.256   1.905
14173TIP3   OH242461   5.076   3.614   4.981
14173TIP3    H142462   5.046   3.606   5.071
14173TIP3    H242463   5.170   3.599   4.986
14174TIP3   OH242464   2.831   7.790   2.442
14174TIP3    H142465   2.831   7.849   2.518
14174TIP3    H242466   2.787   7.711   2.473
14175TIP3   OH242467   3.079   6.320   4.629
14175TIP3    H142468   3.134   6.374   4.686
14175TIP3    H242469   3.027   6.384   4.580
14176TIP3   OH242470   5.452   5.907   0.532
14176TIP3    H142471   5.511   5.891   0.605
14176TIP3    H242472   5.426   5.998   0.541
14177TIP3   OH242473   0.242   7.408   3.489
14177TIP3    H142474   0.269   7.368   3.407
14177TIP3    H242475   0.162   7.361   3.514
14178TIP3   OH242476   2.087   4.456   2.104
14178TIP3    H142477   1.998   4.492   2.104
14178TIP3    H242478   2.076   4.363   2.124
14179TIP3   OH242479   5.913   5.798   2.283
14179TIP3    H142480   5.882   5.889   2.286
14179TIP3    H242481   5.877   5.763   2.201
14180TIP3   OH242482   5.001   0.493   3.266
14180TIP3    H142483   5.073   0.551   3.245
14180TIP3    H242484   4.927   0.552   3.282
14181TIP3   OH242485   5.977   1.193   1.916
14181TIP3    H142486   6.039   1.180   1.845
14181TIP3    H242487   5.892   1.175   1.877
14182TIP3   OH242488   3.453   2.693   3.034
14182TIP3    H142489   3.374   2.722   2.987
14182TIP3    H242490   3.459   2.750   3.110
14183TIP3   OH242491   5.562   1.571   0.648
14183TIP3    H142492   5.548   1.505   0.716
14183TIP3    H242493   5.473   1.596   0.621
14184TIP3   OH242494   2.821   7.061   0.573
14184TIP3    H142495   2.870   7.001   0.630
14184TIP3    H242496   2.730   7.034   0.584
14185TIP3   OH242497   6.370   7.100   6.589
14185TIP3    H142498   6.407   7.039   6.525
14185TIP3    H242499   6.301   7.050   6.632
14186TIP3   OH242500   8.241   0.682   3.500
14186TIP3    H142501   8.295   0.603   3.505
14186TIP3    H242502   8.237   0.703   3.407
14187TIP3   OH242503   2.289   1.418   0.677
14187TIP3    H142504   2.368   1.420   0.623
14187TIP3    H242505   2.232   1.356   0.633
14188TIP3   OH242506   5.766   5.040   2.204
14188TIP3    H142507   5.674   5.049   2.227
14188TIP3    H242508   5.811   5.102   2.262
14189TIP3   OH242509   7.337   2.567   2.165
14189TIP3    H142510   7.287   2.532   2.239
14189TIP3    H242511   7.280   2.634   2.127
14190TIP3   OH242512   5.112   3.414   6.723
14190TIP3    H142513   5.163   3.356   6.781
14190TIP3    H242514   5.023   3.378   6.726
14191TIP3   OH242515   5.449   6.160   3.516
14191TIP3    H142516   5.497   6.241   3.535
14191TIP3    H242517   5.400   6.142   3.595
14192TIP3   OH242518   7.512   4.089   4.620
14192TIP3    H142519   7.533   4.154   4.688
14192TIP3    H242520   7.452   4.135   4.562
14193TIP3   OH242521   2.587   5.772   6.052
14193TIP3    H142522   2.504   5.730   6.028
14193TIP3    H242523   2.607   5.828   5.977
14194TIP3   OH242524   2.299   2.322   1.382
14194TIP3    H142525   2.261   2.370   1.308
14194TIP3    H242526   2.308   2.232   1.350
14195TIP3   OH242527   6.214   3.296   5.315
14195TIP3    H142528   6.213   3.212   5.269
14195TIP3    H242529   6.160   3.354   5.260
14196TIP3   OH242530   7.842   5.026   2.609
14196TIP3    H142531   7.813   5.109   2.572
14196TIP3    H242532   7.917   5.001   2.554
14197TIP3   OH242533   2.864   1.289   5.680
14197TIP3    H142534   2.845   1.279   5.587
14197TIP3    H242535   2.782   1.319   5.719
14198TIP3   OH242536   5.361   2.191   3.970
14198TIP3    H142537   5.406   2.184   3.886
14198TIP3    H242538   5.285   2.246   3.952
14199TIP3   OH242539   2.267   6.643   3.123
14199TIP3    H142540   2.303   6.731   3.111
14199TIP3    H242541   2.339   6.584   3.100
14200TIP3   OH242542   2.407   1.811   0.719
14200TIP3    H142543   2.327   1.778   0.678
14200TIP3    H242544   2.406   1.775   0.808
14201TIP3   OH242545   1.369   1.864   4.374
14201TIP3    H142546   1.394   1.902   4.459
14201TIP3    H242547   1.354   1.771   4.393
14202TIP3   OH242548   0.903   2.573   6.267
14202TIP3    H142549   0.844   2.502   6.245
14202TIP3    H242550   0.954   2.589   6.188
14203TIP3   OH242551   6.705   4.050   6.698
14203TIP3    H142552   6.783   4.096   6.731
14203TIP3    H242553   6.647   4.120   6.669
14204TIP3   OH242554   3.270   7.256   1.475
14204TIP3    H142555   3.264   7.268   1.380
14204TIP3    H242556   3.225   7.173   1.491
14205TIP3   OH242557   4.630   5.398   1.476
14205TIP3    H142558   4.615   5.452   1.398
14205TIP3    H242559   4.661   5.461   1.542
14206TIP3   OH242560   6.829   2.239   2.982
14206TIP3    H142561   6.914   2.209   3.014
14206TIP3    H242562   6.765   2.202   3.043
14207TIP3   OH242563   1.732   3.306   5.476
14207TIP3    H142564   1.709   3.294   5.384
14207TIP3    H242565   1.757   3.219   5.506
14208TIP3   OH242566   5.172   0.722   4.891
14208TIP3    H142567   5.150   0.639   4.934
14208TIP3    H242568   5.088   0.755   4.859
14209TIP3   OH242569   6.610   7.455   4.769
14209TIP3    H142570   6.567   7.370   4.781
14209TIP3    H242571   6.681   7.438   4.707
14210TIP3   OH242572   2.467   5.459   2.098
14210TIP3    H142573   2.441   5.422   2.013
14210TIP3    H242574   2.514   5.539   2.075
14211TIP3   OH242575   0.743   6.471   1.009
14211TIP3    H142576   0.652   6.492   1.032
14211TIP3    H242577   0.788   6.556   1.012
14212TIP3   OH242578   2.492   5.055   1.870
14212TIP3    H142579   2.475   5.055   1.775
14212TIP3    H242580   2.441   4.982   1.904
14213TIP3   OH242581   6.597   2.395   0.224
14213TIP3    H142582   6.597   2.367   0.132
14213TIP3    H242583   6.580   2.489   0.220
14214TIP3   OH242584   7.569   6.869   3.398
14214TIP3    H142585   7.653   6.824   3.395
14214TIP3    H242586   7.504   6.800   3.387
14215TIP3   OH242587   3.692   0.488   4.726
14215TIP3    H142588   3.658   0.449   4.645
14215TIP3    H242589   3.647   0.573   4.732
14216TIP3   OH242590   0.581   4.185   4.259
14216TIP3    H142591   0.551   4.256   4.316
14216TIP3    H242592   0.672   4.207   4.239
14217TIP3   OH242593   4.803   4.576   2.145
14217TIP3    H142594   4.791   4.633   2.069
14217TIP3    H242595   4.890   4.539   2.134
14218TIP3   OH242596   1.082   6.104   3.060
14218TIP3    H142597   1.071   6.195   3.030
14218TIP3    H242598   1.049   6.051   2.987
14219TIP3   OH242599   3.535   1.464   6.451
14219TIP3    H142600   3.484   1.540   6.476
14219TIP3    H242601   3.540   1.469   6.355
14220TIP3   OH242602   2.956   3.727   3.697
14220TIP3    H142603   2.950   3.641   3.738
14220TIP3    H242604   3.047   3.754   3.711
14221TIP3   OH242605   0.659   4.387   1.155
14221TIP3    H142606   0.685   4.445   1.226
14221TIP3    H242607   0.645   4.445   1.080
14222TIP3   OH242608   5.080   1.539   4.326
14222TIP3    H142609   5.117   1.581   4.403
14222TIP3    H242610   5.155   1.525   4.267
14223TIP3   OH242611   1.208   5.450   6.046
14223TIP3    H142612   1.175   5.488   6.128
14223TIP3    H242613   1.253   5.522   6.003
14224TIP3   OH242614   3.762   0.765   3.030
14224TIP3    H142615   3.754   0.802   2.942
14224TIP3    H242616   3.808   0.832   3.080
14225TIP3   OH242617   4.227   1.324   5.260
14225TIP3    H142618   4.277   1.401   5.284
14225TIP3    H242619   4.151   1.326   5.318
14226TIP3   OH242620   3.449   6.041   0.956
14226TIP3    H142621   3.440   5.973   1.023
14226TIP3    H242622   3.524   6.093   0.986
14227TIP3   OH242623   3.769   0.575   6.606
14227TIP3    H142624   3.750   0.639   6.537
14227TIP3    H242625   3.739   0.617   6.686
14228TIP3   OH242626   2.686   4.220   0.208
14228TIP3    H142627   2.739   4.166   0.149
14228TIP3    H242628   2.621   4.261   0.151
14229TIP3   OH242629   8.094   6.872   3.134
14229TIP3    H142630   8.099   6.814   3.210
14229TIP3    H242631   8.178   6.918   3.134
14230TIP3   OH242632   4.535   3.390   2.359
14230TIP3    H142633   4.473   3.385   2.285
14230TIP3    H242634   4.556   3.483   2.365
14231TIP3   OH242635   1.336   5.320   2.515
14231TIP3    H142636   1.276   5.259   2.472
14231TIP3    H242637   1.419   5.272   2.522
14232TIP3   OH242638   3.670   2.125   4.936
14232TIP3    H142639   3.608   2.194   4.958
14232TIP3    H242640   3.619   2.063   4.883
14233TIP3   OH242641   1.500   0.646   0.505
14233TIP3    H142642   1.466   0.688   0.584
14233TIP3    H242643   1.549   0.570   0.537
14234TIP3   OH242644   5.920   2.818   1.644
14234TIP3    H142645   5.999   2.858   1.678
14234TIP3    H242646   5.893   2.874   1.571
14235TIP3   OH242647   5.475   3.749   5.282
14235TIP3    H142648   5.466   3.829   5.229
14235TIP3    H242649   5.502   3.780   5.368
14236TIP3   OH242650   5.239   7.178   3.126
14236TIP3    H142651   5.208   7.186   3.035
14236TIP3    H242652   5.310   7.115   3.121
14237TIP3   OH242653   0.117   2.728   5.981
14237TIP3    H142654   0.180   2.794   5.954
14237TIP3    H242655   0.166   2.671   6.041
14238TIP3   OH242656   3.178   2.372   1.294
14238TIP3    H142657   3.220   2.324   1.365
14238TIP3    H242658   3.105   2.317   1.267
14239TIP3   OH242659   6.367   1.042   6.267
14239TIP3    H142660   6.382   1.110   6.333
14239TIP3    H242661   6.275   1.016   6.280
14240TIP3   OH242662   6.825   0.797   6.591
14240TIP3    H142663   6.815   0.714   6.639
14240TIP3    H242664   6.739   0.813   6.552
14241TIP3   OH242665   6.430   2.554   2.733
14241TIP3    H142666   6.402   2.472   2.694
14241TIP3    H242667   6.358   2.615   2.715
14242TIP3   OH242668   3.069   0.520   4.024
14242TIP3    H142669   3.128   0.572   4.078
14242TIP3    H242670   3.123   0.448   3.992
14243TIP3   OH242671   1.711   7.282   5.515
14243TIP3    H142672   1.615   7.283   5.511
14243TIP3    H242673   1.730   7.268   5.607
14244TIP3   OH242674   5.847   7.187   5.643
14244TIP3    H142675   5.851   7.228   5.556
14244TIP3    H242676   5.888   7.250   5.701
14245TIP3   OH242677   5.280   5.093   2.414
14245TIP3    H142678   5.255   5.002   2.398
14245TIP3    H242679   5.304   5.096   2.506
14246TIP3   OH242680   7.972   5.973   4.313
14246TIP3    H142681   7.958   5.937   4.225
14246TIP3    H242682   7.909   5.926   4.368
14247TIP3   OH242683   3.454   4.167   3.136
14247TIP3    H142684   3.451   4.254   3.177
14247TIP3    H242685   3.545   4.156   3.110
14248TIP3   OH242686   3.000   6.490   4.130
14248TIP3    H142687   3.015   6.432   4.205
14248TIP3    H242688   2.947   6.438   4.069
14249TIP3   OH242689   3.799   7.122   0.464
14249TIP3    H142690   3.836   7.040   0.432
14249TIP3    H242691   3.834   7.131   0.553
14250TIP3   OH242692   1.905   6.858   0.026
14250TIP3    H142693   1.994   6.890   0.021
14250TIP3    H242694   1.912   6.764   0.007
14251TIP3   OH242695   5.503   4.590   4.974
14251TIP3    H142696   5.496   4.684   4.987
14251TIP3    H242697   5.531   4.555   5.058
14252TIP3   OH242698   3.498   2.670   4.243
14252TIP3    H142699   3.413   2.653   4.284
14252TIP3    H242700   3.554   2.700   4.315
14253TIP3   OH242701   5.115   6.442   0.784
14253TIP3    H142702   5.185   6.508   0.784
14253TIP3    H242703   5.036   6.492   0.804
14254TIP3   OH242704   1.602   6.416   1.595
14254TIP3    H142705   1.653   6.363   1.656
14254TIP3    H242706   1.550   6.474   1.650
14255TIP3   OH242707   4.877   2.469   4.622
14255TIP3    H142708   4.957   2.417   4.617
14255TIP3    H242709   4.851   2.465   4.714
14256TIP3   OH242710   5.133   5.570   1.153
14256TIP3    H142711   5.197   5.533   1.093
14256TIP3    H242712   5.136   5.515   1.231
14257TIP3   OH242713   5.971   1.489   3.199
14257TIP3    H142714   5.892   1.439   3.219
14257TIP3    H242715   5.988   1.473   3.107
14258TIP3   OH242716   3.611   3.805   4.856
14258TIP3    H142717   3.685   3.835   4.803
14258TIP3    H242718   3.542   3.785   4.792
14259TIP3   OH242719   4.778   3.356   2.749
14259TIP3    H142720   4.687   3.348   2.720
14259TIP3    H242721   4.772   3.403   2.832
14260TIP3   OH242722   1.706   6.243   6.385
14260TIP3    H142723   1.617   6.211   6.370
14260TIP3    H242724   1.696   6.337   6.398
14261TIP3   OH242725   7.159   7.228   6.420
14261TIP3    H142726   7.072   7.261   6.442
14261TIP3    H242727   7.184   7.274   6.340
14262TIP3   OH242728   1.596   6.705   5.540
14262TIP3    H142729   1.515   6.661   5.567
14262TIP3    H242730   1.568   6.769   5.475
14263TIP3   OH242731   3.151   2.548   4.369
14263TIP3    H142732   3.062   2.543   4.404
14263TIP3    H242733   3.203   2.490   4.425
14264TIP3   OH242734   3.205   2.781   2.964
14264TIP3    H142735   3.132   2.721   2.976
14264TIP3    H242736   3.177   2.840   2.895
14265TIP3   OH242737   5.619   7.397   4.051
14265TIP3    H142738   5.593   7.381   4.141
14265TIP3    H242739   5.545   7.365   3.999
14266TIP3   OH242740   6.102   3.887   4.911
14266TIP3    H142741   6.056   3.835   4.977
14266TIP3    H242742   6.041   3.891   4.838
14267TIP3   OH242743   7.890   0.972   5.712
14267TIP3    H142744   7.826   0.911   5.749
14267TIP3    H242745   7.959   0.976   5.778
14268TIP3   OH242746   5.059   0.829   0.891
14268TIP3    H142747   4.978   0.781   0.909
14268TIP3    H242748   5.124   0.789   0.949
14269TIP3   OH242749   1.128   6.341   1.022
14269TIP3    H142750   1.106   6.320   1.113
14269TIP3    H242751   1.066   6.290   0.970
14270TIP3   OH242752   4.210   7.069   1.839
14270TIP3    H142753   4.152   7.043   1.767
14270TIP3    H242754   4.298   7.062   1.803
14271TIP3   OH242755   1.200   7.432   4.424
14271TIP3    H142756   1.113   7.405   4.396
14271TIP3    H242757   1.245   7.350   4.444
14272TIP3   OH242758   0.989   7.327   3.299
14272TIP3    H142759   0.935   7.340   3.377
14272TIP3    H242760   0.927   7.311   3.228
14273TIP3   OH242761   6.970   2.691   4.124
14273TIP3    H142762   7.041   2.685   4.188
14273TIP3    H242763   6.917   2.764   4.154
14274TIP3   OH242764   6.313   2.392   5.074
14274TIP3    H142765   6.383   2.458   5.074
14274TIP3    H242766   6.346   2.322   5.130
14275TIP3   OH242767   3.026   6.009   4.192
14275TIP3    H142768   2.946   5.965   4.165
14275TIP3    H242769   3.078   6.016   4.111
14276TIP3   OH242770   6.586   3.217   6.362
14276TIP3    H142771   6.535   3.264   6.428
14276TIP3    H242772   6.577   3.125   6.387
14277TIP3   OH242773   0.319   4.400   3.211
14277TIP3    H142774   0.340   4.333   3.146
14277TIP3    H242775   0.380   4.384   3.283
14278TIP3   OH242776   8.162   5.451   0.629
14278TIP3    H142777   8.153   5.473   0.722
14278TIP3    H242778   8.206   5.527   0.591
14279TIP3   OH242779   1.195   5.892   4.997
14279TIP3    H142780   1.168   5.878   5.088
14279TIP3    H242781   1.154   5.975   4.973
14280TIP3   OH242782   5.141   5.045   0.634
14280TIP3    H142783   5.184   5.131   0.630
14280TIP3    H242784   5.079   5.054   0.706
14281TIP3   OH242785   0.315   6.573   1.772
14281TIP3    H142786   0.264   6.654   1.768
14281TIP3    H242787   0.304   6.543   1.862
14282TIP3   OH242788   0.496   2.374   2.161
14282TIP3    H142789   0.516   2.350   2.252
14282TIP3    H242790   0.546   2.312   2.109
14283TIP3   OH242791   0.895   3.303   2.523
14283TIP3    H142792   0.952   3.320   2.598
14283TIP3    H242793   0.808   3.290   2.560
14284TIP3   OH242794   7.518   0.684   1.474
14284TIP3    H142795   7.509   0.694   1.379
14284TIP3    H242796   7.557   0.766   1.503
14285TIP3   OH242797   2.644   4.817   3.532
14285TIP3    H142798   2.553   4.805   3.506
14285TIP3    H242799   2.691   4.831   3.449
14286TIP3   OH242800   3.936   6.577   0.139
14286TIP3    H142801   3.944   6.636   0.214
14286TIP3    H242802   4.027   6.552   0.119
14287TIP3   OH242803   1.784   5.077   1.181
14287TIP3    H142804   1.845   5.136   1.136
14287TIP3    H242805   1.822   4.990   1.170
14288TIP3   OH242806   3.006   1.141   3.002
14288TIP3    H142807   3.028   1.083   3.075
14288TIP3    H242808   2.917   1.116   2.978
14289TIP3   OH242809   5.683   1.854   3.610
14289TIP3    H142810   5.755   1.818   3.662
14289TIP3    H242811   5.653   1.930   3.659
14290TIP3   OH242812   3.142   0.808   1.479
14290TIP3    H142813   3.153   0.802   1.384
14290TIP3    H242814   3.186   0.730   1.512
14291TIP3   OH242815   8.278   3.534   4.685
14291TIP3    H142816   8.372   3.519   4.696
14291TIP3    H242817   8.266   3.627   4.706
14292TIP3   OH242818   6.532   7.314   0.257
14292TIP3    H142819   6.543   7.267   0.175
14292TIP3    H242820   6.456   7.274   0.299
14293TIP3   OH242821   1.014   4.791   4.561
14293TIP3    H142822   0.970   4.843   4.628
14293TIP3    H242823   1.068   4.854   4.513
14294TIP3   OH242824   7.974   0.537   2.161
14294TIP3    H142825   7.889   0.533   2.116
14294TIP3    H242826   7.999   0.629   2.155
14295TIP3   OH242827   1.341   6.745   6.294
14295TIP3    H142828   1.404   6.718   6.227
14295TIP3    H242829   1.277   6.799   6.246
14296TIP3   OH242830   7.300   7.743   6.582
14296TIP3    H142831   7.381   7.761   6.533
14296TIP3    H242832   7.231   7.743   6.515
14297TIP3   OH242833   1.139   2.367   5.648
14297TIP3    H142834   1.123   2.363   5.743
14297TIP3    H242835   1.165   2.278   5.624
14298TIP3   OH242836   6.217   4.493   5.878
14298TIP3    H142837   6.167   4.473   5.799
14298TIP3    H242838   6.265   4.573   5.856
14299TIP3   OH242839   1.793   6.161   4.695
14299TIP3    H142840   1.759   6.153   4.606
14299TIP3    H242841   1.763   6.246   4.725
14300TIP3   OH242842   4.811   0.277   0.069
14300TIP3    H142843   4.841   0.238   0.151
14300TIP3    H242844   4.781   0.202   0.017
14301TIP3   OH242845   1.413   5.475   1.781
14301TIP3    H142846   1.390   5.384   1.760
14301TIP3    H242847   1.507   5.480   1.766
14302TIP3   OH242848   3.757   4.489   0.224
14302TIP3    H142849   3.820   4.450   0.164
14302TIP3    H242850   3.794   4.576   0.243
14303TIP3   OH242851   6.465   7.178   1.684
14303TIP3    H142852   6.399   7.148   1.622
14303TIP3    H242853   6.429   7.259   1.720
14304TIP3   OH242854   5.224   4.887   4.704
14304TIP3    H142855   5.235   4.794   4.725
14304TIP3    H242856   5.148   4.914   4.756
14305TIP3   OH242857   2.248   2.913   6.490
14305TIP3    H142858   2.167   2.946   6.529
14305TIP3    H242859   2.251   2.956   6.404
14306TIP3   OH242860   3.108   5.253   3.376
14306TIP3    H142861   3.198   5.285   3.367
14306TIP3    H242862   3.086   5.270   3.468
14307TIP3   OH242863   1.160   2.967   6.298
14307TIP3    H142864   1.132   2.946   6.208
14307TIP3    H242865   1.224   3.037   6.288
14308TIP3   OH242866   7.398   7.533   1.819
14308TIP3    H142867   7.448   7.458   1.788
14308TIP3    H242868   7.337   7.552   1.748
14309TIP3   OH242869   2.727   6.820   1.967
14309TIP3    H142870   2.650   6.802   2.021
14309TIP3    H242871   2.707   6.902   1.923
14310TIP3   OH242872   4.551   0.780   3.878
14310TIP3    H142873   4.564   0.783   3.972
14310TIP3    H242874   4.633   0.814   3.841
14311TIP3   OH242875   6.692   4.833   2.686
14311TIP3    H142876   6.731   4.810   2.770
14311TIP3    H242877   6.602   4.856   2.706
14312TIP3   OH242878   1.803   1.514   0.578
14312TIP3    H142879   1.808   1.604   0.546
14312TIP3    H242880   1.818   1.521   0.673
14313TIP3   OH242881   2.454   5.334   1.858
14313TIP3    H142882   2.470   5.243   1.883
14313TIP3    H242883   2.526   5.355   1.798
14314TIP3   OH242884   7.744   0.530   2.008
14314TIP3    H142885   7.712   0.471   1.940
14314TIP3    H242886   7.664   0.569   2.045
14315TIP3   OH242887   8.104   5.796   2.360
14315TIP3    H142888   8.087   5.757   2.275
14315TIP3    H242889   8.192   5.766   2.384
14316TIP3   OH242890   1.209   2.669   0.949
14316TIP3    H142891   1.148   2.639   1.016
14316TIP3    H242892   1.295   2.667   0.992
14317TIP3   OH242893   1.586   4.957   0.834
14317TIP3    H142894   1.638   4.916   0.765
14317TIP3    H242895   1.547   5.034   0.793
14318TIP3   OH242896   3.508   6.704   5.086
14318TIP3    H142897   3.563   6.646   5.138
14318TIP3    H242898   3.459   6.755   5.150
14319TIP3   OH242899   6.209   5.585   5.487
14319TIP3    H142900   6.136   5.647   5.495
14319TIP3    H242901   6.247   5.582   5.575
14320TIP3   OH242902   0.932   7.382   2.264
14320TIP3    H142903   0.923   7.405   2.357
14320TIP3    H242904   1.000   7.316   2.262
14321TIP3   OH242905   7.705   7.594   6.711
14321TIP3    H142906   7.676   7.544   6.788
14321TIP3    H242907   7.699   7.685   6.737
14322TIP3   OH242908   5.310   1.199   1.759
14322TIP3    H142909   5.281   1.280   1.718
14322TIP3    H242910   5.231   1.162   1.798
14323TIP3   OH242911   1.126   6.645   6.086
14323TIP3    H142912   1.186   6.592   6.034
14323TIP3    H242913   1.068   6.581   6.128
14324TIP3   OH242914   1.920   2.987   3.581
14324TIP3    H142915   1.846   2.930   3.559
14324TIP3    H242916   1.994   2.948   3.535
14325TIP3   OH242917   3.301   6.414   4.397
14325TIP3    H142918   3.242   6.474   4.443
14325TIP3    H242919   3.248   6.337   4.380
14326TIP3   OH242920   7.442   5.164   3.033
14326TIP3    H142921   7.392   5.241   3.059
14326TIP3    H242922   7.460   5.119   3.115
14327TIP3   OH242923   3.432   2.894   2.280
14327TIP3    H142924   3.515   2.847   2.290
14327TIP3    H242925   3.456   2.974   2.231
14328TIP3   OH242926   7.033   6.949   2.580
14328TIP3    H142927   6.973   6.940   2.506
14328TIP3    H242928   7.075   6.864   2.588
14329TIP3   OH242929   0.114   3.474   1.965
14329TIP3    H142930   0.128   3.416   1.890
14329TIP3    H242931   0.203   3.498   1.993
14330TIP3   OH242932   6.357   2.206   5.515
14330TIP3    H142933   6.329   2.283   5.565
14330TIP3    H242934   6.403   2.151   5.579
14331TIP3   OH242935   5.986   5.906   3.055
14331TIP3    H142936   5.921   5.904   2.984
14331TIP3    H242937   6.066   5.938   3.013
14332TIP3   OH242938   2.304   4.186   6.675
14332TIP3    H142939   2.386   4.172   6.722
14332TIP3    H242940   2.255   4.248   6.729
14333TIP3   OH242941   4.532   2.248   0.510
14333TIP3    H142942   4.532   2.251   0.415
14333TIP3    H242943   4.472   2.176   0.532
14334TIP3   OH242944   5.589   4.864   3.109
14334TIP3    H142945   5.562   4.773   3.120
14334TIP3    H242946   5.682   4.865   3.131
14335TIP3   OH242947   7.620   6.894   2.352
14335TIP3    H142948   7.631   6.873   2.445
14335TIP3    H242949   7.525   6.901   2.340
14336TIP3   OH242950   7.611   7.732   5.257
14336TIP3    H142951   7.516   7.739   5.251
14336TIP3    H242952   7.635   7.795   5.325
14337TIP3   OH242953   5.578   4.106   0.180
14337TIP3    H142954   5.651   4.045   0.167
14337TIP3    H242955   5.610   4.190   0.147
14338TIP3   OH242956   6.176   3.325   3.379
14338TIP3    H142957   6.248   3.323   3.441
14338TIP3    H242958   6.214   3.361   3.299
14339TIP3   OH242959   0.441   0.305   3.637
14339TIP3    H142960   0.528   0.345   3.629
14339TIP3    H242961   0.403   0.347   3.714
14340TIP3   OH242962   3.168   0.074   1.913
14340TIP3    H142963   3.125  -0.009   1.892
14340TIP3    H242964   3.162   0.125   1.832
14341TIP3   OH242965   4.848   1.403   2.780
14341TIP3    H142966   4.830   1.377   2.871
14341TIP3    H242967   4.762   1.428   2.745
14342TIP3   OH242968   6.678   4.715   5.151
14342TIP3    H142969   6.654   4.694   5.241
14342TIP3    H242970   6.648   4.805   5.139
14343TIP3   OH242971   5.406   2.885   3.379
14343TIP3    H142972   5.443   2.818   3.321
14343TIP3    H242973   5.311   2.875   3.369
14344TIP3   OH242974   7.482   2.647   2.616
14344TIP3    H142975   7.419   2.689   2.557
14344TIP3    H242976   7.480   2.702   2.694
14345TIP3   OH242977   0.516   1.366   2.703
14345TIP3    H142978   0.473   1.359   2.618
14345TIP3    H242979   0.461   1.316   2.762
14346TIP3   OH242980   4.720   4.931   2.557
14346TIP3    H142981   4.717   4.946   2.462
14346TIP3    H242982   4.629   4.919   2.583
14347TIP3   OH242983   0.731   2.922   2.514
14347TIP3    H142984   0.695   2.876   2.439
14347TIP3    H242985   0.819   2.949   2.486
14348TIP3   OH242986   1.577   3.547   6.749
14348TIP3    H142987   1.647   3.486   6.772
14348TIP3    H242988   1.498   3.494   6.746
14349TIP3   OH242989   5.796   6.131   5.209
14349TIP3    H142990   5.846   6.182   5.145
14349TIP3    H242991   5.860   6.106   5.275
14350TIP3   OH242992   7.995   2.803   2.768
14350TIP3    H142993   8.012   2.720   2.724
14350TIP3    H242994   8.081   2.833   2.797
14351TIP3   OH242995   5.798   4.468   5.490
14351TIP3    H142996   5.850   4.529   5.543
14351TIP3    H242997   5.852   4.453   5.412
14352TIP3   OH242998   4.451   0.063   1.364
14352TIP3    H142999   4.520   0.002   1.339
14352TIP3    H243000   4.426   0.037   1.453
14353TIP3   OH243001   3.826   7.703   4.324
14353TIP3    H143002   3.872   7.727   4.244
14353TIP3    H243003   3.735   7.730   4.308
14354TIP3   OH243004   0.035   3.488   1.580
14354TIP3    H143005   0.035   3.460   1.488
14354TIP3    H243006   0.010   3.409   1.628
14355TIP3   OH243007   3.114   2.492   5.154
14355TIP3    H143008   3.085   2.488   5.245
14355TIP3    H243009   3.178   2.563   5.152
14356TIP3   OH243010   0.303   2.766   5.555
14356TIP3    H143011   0.382   2.784   5.504
14356TIP3    H243012   0.329   2.697   5.617
14357TIP3   OH243013   2.667   5.378   1.715
14357TIP3    H143014   2.674   5.362   1.621
14357TIP3    H243015   2.743   5.334   1.753
14358TIP3   OH243016   5.873   0.156   0.236
14358TIP3    H143017   5.963   0.156   0.204
14358TIP3    H243018   5.837   0.240   0.206
14359TIP3   OH243019   4.278   2.656   2.672
14359TIP3    H143020   4.182   2.649   2.677
14359TIP3    H243021   4.302   2.596   2.602
14360TIP3   OH243022   1.137   5.130   4.793
14360TIP3    H143023   1.140   5.205   4.852
14360TIP3    H243024   1.074   5.154   4.726
14361TIP3   OH243025   6.898   6.519   4.573
14361TIP3    H143026   6.843   6.449   4.537
14361TIP3    H243027   6.987   6.498   4.543
14362TIP3   OH243028   4.481   1.776   5.122
14362TIP3    H143029   4.391   1.803   5.138
14362TIP3    H243030   4.534   1.852   5.147
14363TIP3   OH243031   6.746   3.062   2.300
14363TIP3    H143032   6.840   3.049   2.317
14363TIP3    H243033   6.703   3.036   2.382
14364TIP3   OH243034   4.926   3.002   3.933
14364TIP3    H143035   4.995   2.991   3.868
14364TIP3    H243036   4.881   2.918   3.936
14365TIP3   OH243037   3.396   5.565   4.685
14365TIP3    H143038   3.489   5.558   4.666
14365TIP3    H243039   3.385   5.517   4.767
14366TIP3   OH243040   8.217   0.096   0.338
14366TIP3    H143041   8.141   0.116   0.392
14366TIP3    H243042   8.292   0.119   0.393
14367TIP3   OH243043   8.005   0.222   2.261
14367TIP3    H143044   7.994   0.316   2.246
14367TIP3    H243045   8.024   0.186   2.174
14368TIP3   OH243046   8.123   5.620   0.846
14368TIP3    H143047   8.061   5.651   0.911
14368TIP3    H243048   8.209   5.639   0.883
14369TIP3   OH243049   4.251   6.842   3.631
14369TIP3    H143050   4.313   6.834   3.704
14369TIP3    H243051   4.196   6.917   3.655
14370TIP3   OH243052   2.029   4.756   2.871
14370TIP3    H143053   1.997   4.837   2.830
14370TIP3    H243054   1.982   4.686   2.827
14371TIP3   OH243055   1.974   7.454   0.345
14371TIP3    H143056   1.945   7.363   0.355
14371TIP3    H243057   1.945   7.479   0.257
14372TIP3   OH243058   0.426   7.696   6.712
14372TIP3    H143059   0.370   7.736   6.646
14372TIP3    H243060   0.372   7.629   6.753
14373TIP3   OH243061   0.898   2.975   3.041
14373TIP3    H143062   0.871   3.056   3.085
14373TIP3    H243063   0.866   2.986   2.951
14374TIP3   OH243064   3.178   2.954   4.438
14374TIP3    H143065   3.245   2.992   4.494
14374TIP3    H243066   3.161   3.020   4.371
14375TIP3   OH243067   2.138   6.175   1.271
14375TIP3    H143068   2.061   6.122   1.289
14375TIP3    H243069   2.108   6.265   1.284
14376TIP3   OH243070   7.226   0.477   4.612
14376TIP3    H143071   7.197   0.395   4.651
14376TIP3    H243072   7.173   0.545   4.654
14377TIP3   OH243073   1.052   5.764   1.140
14377TIP3    H143074   1.100   5.846   1.126
14377TIP3    H243075   0.960   5.789   1.132
14378TIP3   OH243076   1.123   0.973   6.469
14378TIP3    H143077   1.129   0.937   6.380
14378TIP3    H243078   1.029   0.975   6.487
14379TIP3   OH243079   7.518   2.951   1.000
14379TIP3    H143080   7.482   2.868   1.032
14379TIP3    H243081   7.612   2.941   1.010
14380TIP3   OH243082   6.882   5.662   2.274
14380TIP3    H143083   6.902   5.644   2.365
14380TIP3    H243084   6.967   5.657   2.229
14381TIP3   OH243085   7.966   4.373   1.086
14381TIP3    H143086   7.906   4.312   1.043
14381TIP3    H243087   7.996   4.430   1.016
14382TIP3   OH243088   1.744   2.244   1.181
14382TIP3    H143089   1.651   2.231   1.199
14382TIP3    H243090   1.760   2.336   1.202
14383TIP3   OH243091   1.972   2.735   5.247
14383TIP3    H143092   2.008   2.667   5.303
14383TIP3    H243093   1.923   2.686   5.180
14384TIP3   OH243094   6.752   3.361   0.653
14384TIP3    H143095   6.810   3.391   0.723
14384TIP3    H243096   6.673   3.416   0.662
14385TIP3   OH243097   2.259   5.936   2.376
14385TIP3    H143098   2.222   6.005   2.432
14385TIP3    H243099   2.182   5.894   2.337
14386TIP3   OH243100   3.438   3.492   4.759
14386TIP3    H143101   3.452   3.517   4.668
14386TIP3    H243102   3.344   3.504   4.773
14387TIP3   OH243103   1.395   5.084   1.460
14387TIP3    H143104   1.343   5.164   1.456
14387TIP3    H243105   1.337   5.016   1.428
14388TIP3   OH243106   2.284   7.693   2.891
14388TIP3    H143107   2.298   7.623   2.955
14388TIP3    H243108   2.189   7.709   2.894
14389TIP3   OH243109   6.264   5.312   4.880
14389TIP3    H143110   6.203   5.360   4.826
14389TIP3    H243111   6.330   5.377   4.906
14390TIP3   OH243112   0.976   1.430   5.067
14390TIP3    H143113   0.919   1.506   5.068
14390TIP3    H243114   1.065   1.466   5.069
14391TIP3   OH243115   7.575   1.317   0.362
14391TIP3    H143116   7.585   1.374   0.439
14391TIP3    H243117   7.655   1.264   0.361
14392TIP3   OH243118   1.297   6.725   5.234
14392TIP3    H143119   1.379   6.696   5.194
14392TIP3    H243120   1.229   6.679   5.185
14393TIP3   OH243121   4.398   3.927   1.738
14393TIP3    H143122   4.347   3.886   1.668
14393TIP3    H243123   4.338   3.990   1.778
14394TIP3   OH243124   2.217   1.888   5.095
14394TIP3    H143125   2.290   1.879   5.156
14394TIP3    H243126   2.182   1.975   5.112
14395TIP3   OH243127   6.449   4.563   0.414
14395TIP3    H143128   6.367   4.513   0.407
14395TIP3    H243129   6.497   4.540   0.334
14396TIP3   OH243130   3.675   1.479   2.788
14396TIP3    H143131   3.620   1.531   2.729
14396TIP3    H243132   3.764   1.498   2.759
14397TIP3   OH243133   4.970   4.793   2.275
14397TIP3    H143134   4.979   4.888   2.281
14397TIP3    H243135   4.931   4.778   2.188
14398TIP3   OH243136   2.892   5.245   5.061
14398TIP3    H143137   2.830   5.302   5.107
14398TIP3    H243138   2.935   5.196   5.132
14399TIP3   OH243139   2.884   5.561   4.179
14399TIP3    H143140   2.958   5.582   4.236
14399TIP3    H243141   2.891   5.468   4.161
14400TIP3   OH243142   4.183   1.864   4.805
14400TIP3    H143143   4.098   1.825   4.822
14400TIP3    H243144   4.246   1.797   4.832
14401TIP3   OH243145   5.843   6.032   4.152
14401TIP3    H143146   5.839   6.124   4.179
14401TIP3    H243147   5.830   5.983   4.233
14402TIP3   OH243148   0.681   4.588   6.696
14402TIP3    H143149   0.610   4.649   6.718
14402TIP3    H243150   0.636   4.513   6.658
14403TIP3   OH243151   6.473   6.331   4.720
14403TIP3    H143152   6.418   6.318   4.797
14403TIP3    H243153   6.487   6.425   4.715
14404TIP3   OH243154   0.904   1.859   6.423
14404TIP3    H143155   0.996   1.834   6.420
14404TIP3    H243156   0.902   1.938   6.476
14405TIP3   OH243157   7.430   4.102   6.432
14405TIP3    H143158   7.426   4.042   6.358
14405TIP3    H243159   7.379   4.178   6.405
14406TIP3   OH243160   0.431   3.810   2.555
14406TIP3    H143161   0.497   3.764   2.607
14406TIP3    H243162   0.390   3.740   2.504
14407TIP3   OH243163   7.368   4.494   0.084
14407TIP3    H143164   7.390   4.415   0.034
14407TIP3    H243165   7.387   4.566   0.024
14408TIP3   OH243166   2.811   2.858   1.549
14408TIP3    H143167   2.857   2.884   1.629
14408TIP3    H243168   2.742   2.923   1.539
14409TIP3   OH243169   4.241   0.827   3.499
14409TIP3    H143170   4.196   0.852   3.580
14409TIP3    H243171   4.237   0.732   3.498
14410TIP3   OH243172   2.559   7.291   0.928
14410TIP3    H143173   2.521   7.378   0.930
14410TIP3    H243174   2.619   7.288   1.003
14411TIP3   OH243175   3.786   3.427   1.107
14411TIP3    H143176   3.723   3.393   1.043
14411TIP3    H243177   3.864   3.373   1.095
14412TIP3   OH243178   0.207   5.164   0.356
14412TIP3    H143179   0.157   5.245   0.363
14412TIP3    H243180   0.158   5.112   0.292
14413TIP3   OH243181   3.011   5.329   3.603
14413TIP3    H143182   3.038   5.383   3.677
14413TIP3    H243183   2.965   5.255   3.643
14414TIP3   OH243184   4.775   6.129   5.317
14414TIP3    H143185   4.751   6.203   5.261
14414TIP3    H243186   4.814   6.065   5.257
14415TIP3   OH243187   4.545   2.470   2.780
14415TIP3    H143188   4.478   2.460   2.848
14415TIP3    H243189   4.496   2.496   2.702
14416TIP3   OH243190   4.526   3.753   3.994
14416TIP3    H143191   4.522   3.720   3.904
14416TIP3    H243192   4.434   3.764   4.020
14417TIP3   OH243193   8.290   0.882   3.689
14417TIP3    H143194   8.218   0.910   3.746
14417TIP3    H243195   8.258   0.801   3.650
14418TIP3   OH243196   3.837   5.713   4.624
14418TIP3    H143197   3.929   5.691   4.638
14418TIP3    H243198   3.790   5.630   4.637
14419TIP3   OH243199   2.407   3.889   1.496
14419TIP3    H143200   2.332   3.868   1.441
14419TIP3    H243201   2.468   3.932   1.437
14420TIP3   OH243202   0.596   1.347   0.490
14420TIP3    H143203   0.618   1.325   0.581
14420TIP3    H243204   0.636   1.433   0.477
14421TIP3   OH243205   1.243   4.359   1.577
14421TIP3    H143206   1.270   4.434   1.525
14421TIP3    H243207   1.154   4.340   1.546
14422TIP3   OH243208   6.137   2.052   1.994
14422TIP3    H143209   6.049   2.090   2.002
14422TIP3    H243210   6.134   2.003   1.912
14423TIP3   OH243211   1.645   6.809   2.383
14423TIP3    H143212   1.655   6.740   2.317
14423TIP3    H243213   1.575   6.865   2.349
14424TIP3   OH243214   0.215   4.601   0.061
14424TIP3    H143215   0.218   4.644  -0.024
14424TIP3    H243216   0.160   4.657   0.115
14425TIP3   OH243217   1.316   3.069   1.358
14425TIP3    H143218   1.291   3.101   1.445
14425TIP3    H243219   1.407   3.097   1.348
14426TIP3   OH243220   4.303   3.921   0.602
14426TIP3    H143221   4.350   3.842   0.628
14426TIP3    H243222   4.357   3.993   0.635
14427TIP3   OH243223   4.578   7.307   2.726
14427TIP3    H143224   4.636   7.287   2.800
14427TIP3    H243225   4.637   7.315   2.651
14428TIP3   OH243226   6.531   3.171   1.535
14428TIP3    H143227   6.599   3.224   1.577
14428TIP3    H243228   6.470   3.149   1.606
14429TIP3   OH243229   6.678   2.344   0.741
14429TIP3    H143230   6.647   2.267   0.787
14429TIP3    H243231   6.600   2.396   0.723
14430TIP3   OH243232   3.656   4.793   5.877
14430TIP3    H143233   3.738   4.795   5.827
14430TIP3    H243234   3.684   4.802   5.968
14431TIP3   OH243235   1.782   3.905   4.277
14431TIP3    H143236   1.844   3.977   4.282
14431TIP3    H243237   1.698   3.943   4.303
14432TIP3   OH243238   6.677   1.239   2.607
14432TIP3    H143239   6.659   1.147   2.589
14432TIP3    H243240   6.627   1.287   2.542
14433TIP3   OH243241   6.769   6.251   0.250
14433TIP3    H143242   6.860   6.226   0.238
14433TIP3    H243243   6.761   6.336   0.206
14434TIP3   OH243244   4.296   4.251   6.197
14434TIP3    H143245   4.270   4.302   6.273
14434TIP3    H243246   4.286   4.311   6.123
14435TIP3   OH243247   0.003   0.892   5.627
14435TIP3    H143248   0.083   0.863   5.671
14435TIP3    H243249  -0.008   0.831   5.554
14436TIP3   OH243250   7.188   6.276   0.590
14436TIP3    H143251   7.106   6.228   0.582
14436TIP3    H243252   7.162   6.368   0.592
14437TIP3   OH243253   7.726   0.706   3.865
14437TIP3    H143254   7.807   0.658   3.883
14437TIP3    H243255   7.660   0.663   3.919
14438TIP3   OH243256   8.287   4.125   4.376
14438TIP3    H143257   8.209   4.145   4.324
14438TIP3    H243258   8.285   4.189   4.446
14439TIP3   OH243259   7.963   1.839   4.614
14439TIP3    H143260   7.934   1.905   4.551
14439TIP3    H243261   7.920   1.863   4.696
14440TIP3   OH243262   6.760   0.534   3.139
14440TIP3    H143263   6.848   0.571   3.150
14440TIP3    H243264   6.701   0.609   3.153
14441TIP3   OH243265   6.570   4.906   6.139
14441TIP3    H143266   6.649   4.960   6.135
14441TIP3    H243267   6.547   4.903   6.231
14442TIP3   OH243268   3.674   4.653   6.246
14442TIP3    H143269   3.676   4.744   6.215
14442TIP3    H243270   3.760   4.639   6.285
14443TIP3   OH243271   6.697   7.103   4.521
14443TIP3    H143272   6.604   7.125   4.530
14443TIP3    H243273   6.698   7.011   4.495
14444TIP3   OH243274   5.703   6.707   2.641
14444TIP3    H143275   5.695   6.798   2.670
14444TIP3    H243276   5.764   6.667   2.704
14445TIP3   OH243277   1.801   6.471   1.142
14445TIP3    H143278   1.829   6.382   1.123
14445TIP3    H243279   1.780   6.470   1.235
14446TIP3   OH243280   6.871   0.766   2.024
14446TIP3    H143281   6.801   0.822   2.057
14446TIP3    H243282   6.836   0.677   2.033
14447TIP3   OH243283   4.377   5.510   3.147
14447TIP3    H143284   4.302   5.562   3.176
14447TIP3    H243285   4.421   5.564   3.081
14448TIP3   OH243286   2.283   5.356   0.773
14448TIP3    H143287   2.214   5.416   0.801
14448TIP3    H243288   2.309   5.310   0.854
14449TIP3   OH243289   4.226   5.266   4.099
14449TIP3    H143290   4.284   5.302   4.166
14449TIP3    H243291   4.255   5.175   4.088
14450TIP3   OH243292   6.411   0.699   4.347
14450TIP3    H143293   6.319   0.725   4.339
14450TIP3    H243294   6.410   0.628   4.411
14451TIP3   OH243295   0.800   6.562   4.805
14451TIP3    H143296   0.718   6.521   4.832
14451TIP3    H243297   0.777   6.654   4.792
14452TIP3   OH243298   7.626   2.377   0.347
14452TIP3    H143299   7.550   2.344   0.299
14452TIP3    H243300   7.628   2.471   0.328
14453TIP3   OH243301   2.761   1.498   3.414
14453TIP3    H143302   2.841   1.494   3.361
14453TIP3    H243303   2.771   1.577   3.466
14454TIP3   OH243304   3.999   1.365   0.936
14454TIP3    H143305   4.011   1.460   0.929
14454TIP3    H243306   4.033   1.343   1.023
14455TIP3   OH243307   1.216   2.466   2.275
14455TIP3    H143308   1.168   2.497   2.198
14455TIP3    H243309   1.195   2.372   2.279
14456TIP3   OH243310   4.418   5.870   3.391
14456TIP3    H143311   4.371   5.932   3.446
14456TIP3    H243312   4.477   5.824   3.451
14457TIP3   OH243313   4.473   6.664   0.019
14457TIP3    H143314   4.563   6.659  -0.014
14457TIP3    H243315   4.423   6.606  -0.038
14458TIP3   OH243316   7.914   3.656   0.015
14458TIP3    H143317   7.892   3.582  -0.041
14458TIP3    H243318   7.951   3.721  -0.045
14459TIP3   OH243319   7.129   4.491   5.091
14459TIP3    H143320   7.199   4.556   5.095
14459TIP3    H243321   7.174   4.407   5.099
14460TIP3   OH243322   4.243   0.383   4.231
14460TIP3    H143323   4.263   0.331   4.309
14460TIP3    H243324   4.326   0.427   4.210
14461TIP3   OH243325   4.837   4.845   3.622
14461TIP3    H143326   4.861   4.926   3.666
14461TIP3    H243327   4.827   4.782   3.694
14462TIP3   OH243328   3.680   6.609   5.277
14462TIP3    H143329   3.702   6.647   5.362
14462TIP3    H243330   3.764   6.589   5.236
14463TIP3   OH243331   3.052   2.972   5.980
14463TIP3    H143332   3.117   2.905   6.003
14463TIP3    H243333   3.082   3.006   5.895
14464TIP3   OH243334   4.545   5.953   4.460
14464TIP3    H143335   4.619   5.983   4.408
14464TIP3    H243336   4.467   5.983   4.413
14465TIP3   OH243337   2.332   0.268   3.804
14465TIP3    H143338   2.278   0.190   3.789
14465TIP3    H243339   2.364   0.258   3.894
14466TIP3   OH243340   1.915   0.494   1.398
14466TIP3    H143341   1.943   0.559   1.333
14466TIP3    H243342   1.825   0.518   1.419
14467TIP3   OH243343   8.221   5.603   0.330
14467TIP3    H143344   8.165   5.631   0.402
14467TIP3    H243345   8.168   5.618   0.251
14468TIP3   OH243346   2.527   6.360   6.549
14468TIP3    H143347   2.582   6.319   6.616
14468TIP3    H243348   2.438   6.336   6.575
14469TIP3   OH243349   8.280   7.411   6.084
14469TIP3    H143350   8.202   7.392   6.137
14469TIP3    H243351   8.254   7.484   6.029
14470TIP3   OH243352   4.142   1.054   2.949
14470TIP3    H143353   4.183   0.968   2.959
14470TIP3    H243354   4.213   1.113   2.925
14471TIP3   OH243355   0.585   0.022   2.534
14471TIP3    H143356   0.501  -0.016   2.557
14471TIP3    H243357   0.594   0.007   2.440
14472TIP3   OH243358   5.280   2.165   0.719
14472TIP3    H143359   5.205   2.156   0.778
14472TIP3    H243360   5.293   2.077   0.683
14473TIP3   OH243361   1.188   5.067   2.192
14473TIP3    H143362   1.277   5.059   2.229
14473TIP3    H243363   1.145   5.132   2.248
14474TIP3   OH243364   6.923   6.261   2.258
14474TIP3    H143365   6.855   6.246   2.324
14474TIP3    H243366   6.883   6.231   2.176
14475TIP3   OH243367   2.814   5.091   0.166
14475TIP3    H143368   2.732   5.116   0.124
14475TIP3    H243369   2.835   5.004   0.129
14476TIP3   OH243370   4.863   4.019   1.554
14476TIP3    H143371   4.893   4.074   1.626
14476TIP3    H243372   4.943   3.995   1.507
14477TIP3   OH243373   1.857   5.028   5.737
14477TIP3    H143374   1.854   5.044   5.831
14477TIP3    H243375   1.788   5.083   5.701
14478TIP3   OH243376   5.693   3.884   3.143
14478TIP3    H143377   5.650   3.938   3.209
14478TIP3    H243378   5.785   3.912   3.146
14479TIP3   OH243379   0.281   2.130   6.283
14479TIP3    H143380   0.283   2.053   6.227
14479TIP3    H243381   0.372   2.144   6.308
14480TIP3   OH243382   7.826   6.216   1.820
14480TIP3    H143383   7.912   6.181   1.797
14480TIP3    H243384   7.841   6.270   1.897
14481TIP3   OH243385   7.420   3.136   5.395
14481TIP3    H143386   7.337   3.143   5.443
14481TIP3    H243387   7.458   3.053   5.424
14482TIP3   OH243388   7.956   2.726   1.151
14482TIP3    H143389   7.939   2.636   1.123
14482TIP3    H243390   7.939   2.726   1.245
14483TIP3   OH243391   2.047   6.922   1.489
14483TIP3    H143392   2.038   6.848   1.549
14483TIP3    H243393   1.960   6.963   1.490
14484TIP3   OH243394   2.248   4.571   1.866
14484TIP3    H143395   2.220   4.520   1.790
14484TIP3    H243396   2.188   4.544   1.936
14485TIP3   OH243397   4.540   1.898   6.324
14485TIP3    H143398   4.457   1.926   6.285
14485TIP3    H243399   4.601   1.969   6.304
14486TIP3   OH243400   3.956   6.689   5.988
14486TIP3    H143401   3.891   6.706   5.920
14486TIP3    H243402   3.953   6.595   6.002
14487TIP3   OH243403   0.981   5.089   0.122
14487TIP3    H143404   1.062   5.040   0.138
14487TIP3    H243405   0.997   5.176   0.157
14488TIP3   OH243406   6.662   0.833   4.032
14488TIP3    H143407   6.709   0.876   3.960
14488TIP3    H243408   6.628   0.753   3.993
14489TIP3   OH243409   5.388   7.556   5.667
14489TIP3    H143410   5.383   7.639   5.713
14489TIP3    H243411   5.453   7.569   5.598
14490TIP3   OH243412   0.237   6.232   4.556
14490TIP3    H143413   0.153   6.187   4.545
14490TIP3    H243414   0.238   6.259   4.648
14491TIP3   OH243415   6.938   7.207   5.443
14491TIP3    H143416   6.963   7.127   5.397
14491TIP3    H243417   6.915   7.177   5.531
14492TIP3   OH243418   2.114   1.109   3.801
14492TIP3    H143419   2.164   1.181   3.761
14492TIP3    H243420   2.049   1.085   3.735
14493TIP3   OH243421   7.352   5.287   5.347
14493TIP3    H143422   7.298   5.209   5.356
14493TIP3    H243423   7.441   5.256   5.360
14494TIP3   OH243424   5.202   4.248   6.184
14494TIP3    H143425   5.219   4.211   6.098
14494TIP3    H243426   5.238   4.183   6.245
14495TIP3   OH243427   6.518   1.894   1.324
14495TIP3    H143428   6.548   1.923   1.237
14495TIP3    H243429   6.527   1.972   1.379
14496TIP3   OH243430   6.009   6.514   3.517
14496TIP3    H143431   6.029   6.433   3.470
14496TIP3    H243432   6.087   6.568   3.505
14497TIP3   OH243433   8.099   7.582   2.852
14497TIP3    H143434   8.067   7.568   2.763
14497TIP3    H243435   8.172   7.520   2.861
14498TIP3   OH243436   8.230   6.634   2.137
14498TIP3    H143437   8.265   6.549   2.164
14498TIP3    H243438   8.278   6.698   2.189
14499TIP3   OH243439   6.308   4.367   0.246
14499TIP3    H143440   6.253   4.408   0.180
14499TIP3    H243441   6.350   4.294   0.201
14500TIP3   OH243442   5.662   6.770   6.305
14500TIP3    H143443   5.635   6.861   6.294
14500TIP3    H243444   5.669   6.758   6.400
14501TIP3   OH243445   3.566   7.198   2.917
14501TIP3    H143446   3.655   7.161   2.914
14501TIP3    H243447   3.580   7.293   2.916
14502TIP3   OH243448   2.109   2.551   6.191
14502TIP3    H143449   2.087   2.483   6.254
14502TIP3    H243450   2.153   2.504   6.120
14503TIP3   OH243451   7.736   2.573   3.568
14503TIP3    H143452   7.709   2.493   3.613
14503TIP3    H243453   7.771   2.543   3.484
14504TIP3   OH243454   2.089   3.284   1.639
14504TIP3    H143455   2.025   3.248   1.700
14504TIP3    H243456   2.070   3.378   1.635
14505TIP3   OH243457   6.852  -0.001   5.708
14505TIP3    H143458   6.932   0.041   5.739
14505TIP3    H243459   6.825   0.050   5.632
14506TIP3   OH243460   8.262   3.862   2.464
14506TIP3    H143461   8.340   3.847   2.410
14506TIP3    H243462   8.206   3.918   2.410
14507TIP3   OH243463   6.923   3.900   0.090
14507TIP3    H143464   6.930   3.982   0.139
14507TIP3    H243465   6.895   3.926   0.002
14508TIP3   OH243466   3.738   7.067   2.419
14508TIP3    H143467   3.682   6.993   2.396
14508TIP3    H243468   3.713   7.137   2.359
14509TIP3   OH243469   2.034   6.621   2.975
14509TIP3    H143470   1.955   6.646   3.024
14509TIP3    H243471   2.106   6.640   3.035
14510TIP3   OH243472   1.798   2.341   4.305
14510TIP3    H143473   1.771   2.336   4.397
14510TIP3    H243474   1.868   2.406   4.303
14511TIP3   OH243475   1.837   3.298   4.944
14511TIP3    H143476   1.771   3.264   4.883
14511TIP3    H243477   1.913   3.242   4.930
14512TIP3   OH243478   4.677   3.362   3.256
14512TIP3    H143479   4.721   3.438   3.295
14512TIP3    H243480   4.747   3.299   3.241
14513TIP3   OH243481   6.302   2.623   5.852
14513TIP3    H143482   6.218   2.647   5.812
14513TIP3    H243483   6.281   2.608   5.944
14514TIP3   OH243484   7.320   0.737   0.514
14514TIP3    H143485   7.293   0.674   0.447
14514TIP3    H243486   7.324   0.821   0.469
14515TIP3   OH243487   7.318   1.281   2.549
14515TIP3    H143488   7.265   1.236   2.483
14515TIP3    H243489   7.287   1.247   2.633
14516TIP3   OH243490   5.394   1.226   4.523
14516TIP3    H143491   5.299   1.235   4.516
14516TIP3    H243492   5.425   1.315   4.540
14517TIP3   OH243493   5.620   0.705   5.506
14517TIP3    H143494   5.710   0.703   5.540
14517TIP3    H243495   5.624   0.767   5.432
14518TIP3   OH243496   7.378   6.959   1.230
14518TIP3    H143497   7.424   7.031   1.273
14518TIP3    H243498   7.288   6.967   1.260
14519TIP3   OH243499   3.215   1.430   3.960
14519TIP3    H143500   3.266   1.482   3.898
14519TIP3    H243501   3.166   1.368   3.905
14520TIP3   OH243502   7.828   7.115   1.096
14520TIP3    H143503   7.891   7.157   1.154
14520TIP3    H243504   7.780   7.054   1.153
14521TIP3   OH243505   6.741   1.083   1.487
14521TIP3    H143506   6.832   1.067   1.462
14521TIP3    H243507   6.741   1.081   1.582
14522TIP3   OH243508   7.379   5.163   4.298
14522TIP3    H143509   7.470   5.191   4.308
14522TIP3    H243510   7.370   5.091   4.360
14523TIP3   OH243511   7.894   0.678   5.182
14523TIP3    H143512   7.856   0.765   5.195
14523TIP3    H243513   7.926   0.680   5.092
14524TIP3   OH243514   1.705   5.873   4.180
14524TIP3    H143515   1.751   5.801   4.137
14524TIP3    H243516   1.613   5.861   4.157
14525TIP3   OH243517   0.287   5.986   3.006
14525TIP3    H143518   0.322   6.075   3.005
14525TIP3    H243519   0.295   5.959   3.098
14526TIP3   OH243520   2.124   1.079   4.681
14526TIP3    H143521   2.040   1.053   4.644
14526TIP3    H243522   2.119   1.054   4.773
14527TIP3   OH243523   4.247   6.165   2.946
14527TIP3    H143524   4.203   6.116   2.877
14527TIP3    H243525   4.334   6.125   2.952
14528TIP3   OH243526   2.476   3.982   5.709
14528TIP3    H143527   2.404   3.922   5.729
14528TIP3    H243528   2.437   4.048   5.651
14529TIP3   OH243529   4.227   0.448   4.526
14529TIP3    H143530   4.210   0.506   4.600
14529TIP3    H243531   4.322   0.435   4.526
14530TIP3   OH243532   7.705   1.767   0.763
14530TIP3    H143533   7.704   1.755   0.858
14530TIP3    H243534   7.791   1.804   0.744
14531TIP3   OH243535   7.022   4.402   5.984
14531TIP3    H143536   6.977   4.367   5.907
14531TIP3    H243537   7.093   4.340   6.000
14532TIP3   OH243538   4.557   0.401   5.717
14532TIP3    H143539   4.639   0.361   5.687
14532TIP3    H243540   4.503   0.406   5.638
14533TIP3   OH243541   3.042   5.072   3.899
14533TIP3    H143542   3.123   5.066   3.847
14533TIP3    H243543   3.069   5.053   3.989
14534TIP3   OH243544   2.997   2.217   0.803
14534TIP3    H143545   2.917   2.231   0.852
14534TIP3    H243546   3.033   2.135   0.837
14535TIP3   OH243547   8.058   0.620   4.184
14535TIP3    H143548   8.062   0.543   4.241
14535TIP3    H243549   8.150   0.637   4.162
14536TIP3   OH243550   7.415   2.067   6.482
14536TIP3    H143551   7.360   2.040   6.556
14536TIP3    H243552   7.413   1.992   6.422
14537TIP3   OH243553   1.915   2.031   3.171
14537TIP3    H143554   1.997   2.080   3.168
14537TIP3    H243555   1.925   1.964   3.103
14538TIP3   OH243556   7.100   0.313   1.469
14538TIP3    H143557   7.153   0.281   1.542
14538TIP3    H243558   7.143   0.394   1.442
14539TIP3   OH243559   4.698   5.296   6.213
14539TIP3    H143560   4.700   5.206   6.244
14539TIP3    H243561   4.789   5.317   6.192
14540TIP3   OH243562   5.567   2.041   2.956
14540TIP3    H143563   5.621   2.071   3.030
14540TIP3    H243564   5.628   1.994   2.899
14541TIP3   OH243565   7.222   2.670   5.413
14541TIP3    H143566   7.218   2.765   5.424
14541TIP3    H243567   7.285   2.641   5.478
14542TIP3   OH243568   4.599   0.735   3.531
14542TIP3    H143569   4.691   0.712   3.548
14542TIP3    H243570   4.549   0.659   3.560
14543TIP3   OH243571   1.649   6.702   4.327
14543TIP3    H143572   1.662   6.673   4.237
14543TIP3    H243573   1.700   6.640   4.380
14544TIP3   OH243574   5.905   7.396   5.425
14544TIP3    H143575   5.988   7.356   5.448
14544TIP3    H243576   5.918   7.429   5.336
14545TIP3   OH243577   1.990   3.963   5.154
14545TIP3    H143578   1.899   3.933   5.164
14545TIP3    H243579   2.032   3.939   5.237
14546TIP3   OH243580   2.532   2.285   5.101
14546TIP3    H143581   2.614   2.237   5.113
14546TIP3    H243582   2.472   2.220   5.063
14547TIP3   OH243583   8.170   2.130   1.828
14547TIP3    H143584   8.101   2.101   1.769
14547TIP3    H243585   8.158   2.225   1.836
14548TIP3   OH243586   4.088   0.037   4.448
14548TIP3    H143587   4.090   0.000   4.359
14548TIP3    H243588   4.029  -0.022   4.496
14549TIP3   OH243589   5.993   5.986   5.042
14549TIP3    H143590   5.929   5.919   5.018
14549TIP3    H243591   5.953   6.031   5.117
14550TIP3   OH243592   4.299   6.516   2.131
14550TIP3    H143593   4.235   6.574   2.173
14550TIP3    H243594   4.346   6.475   2.203
14551TIP3   OH243595   6.005   2.166   6.487
14551TIP3    H143596   5.950   2.098   6.526
14551TIP3    H243597   6.094   2.140   6.510
14552TIP3   OH243598   5.259   3.377   2.676
14552TIP3    H143599   5.243   3.379   2.582
14552TIP3    H243600   5.353   3.366   2.684
14553TIP3   OH243601   2.744   3.356   1.659
14553TIP3    H143602   2.806   3.367   1.731
14553TIP3    H243603   2.681   3.427   1.670
14554TIP3   OH243604   5.912   3.738   0.959
14554TIP3    H143605   5.875   3.827   0.954
14554TIP3    H243606   5.969   3.733   0.882
14555TIP3   OH243607   7.514   4.721   1.402
14555TIP3    H143608   7.427   4.683   1.405
14555TIP3    H243609   7.537   4.737   1.494
14556TIP3   OH243610   5.706   0.936   4.559
14556TIP3    H143611   5.713   1.031   4.553
14556TIP3    H243612   5.656   0.920   4.639
14557TIP3   OH243613   7.427   1.788   4.844
14557TIP3    H143614   7.378   1.870   4.855
14557TIP3    H243615   7.473   1.777   4.928
14558TIP3   OH243616   1.389   6.440   3.964
14558TIP3    H143617   1.303   6.445   3.923
14558TIP3    H243618   1.385   6.505   4.035
14559TIP3   OH243619   2.517   2.326   2.021
14559TIP3    H143620   2.581   2.307   2.090
14559TIP3    H243621   2.563   2.386   1.963
14560TIP3   OH243622   1.196   4.420   1.215
14560TIP3    H143623   1.105   4.421   1.244
14560TIP3    H243624   1.203   4.341   1.161
14561TIP3   OH243625   3.398   7.529   3.002
14561TIP3    H143626   3.482   7.507   2.960
14561TIP3    H243627   3.332   7.505   2.937
14562TIP3   OH243628   2.876   6.285   0.167
14562TIP3    H143629   2.933   6.356   0.196
14562TIP3    H243630   2.908   6.263   0.079
14563TIP3   OH243631   3.420   3.473   3.334
14563TIP3    H143632   3.406   3.492   3.427
14563TIP3    H243633   3.482   3.400   3.334
14564TIP3   OH243634   7.344   4.529   0.595
14564TIP3    H143635   7.311   4.612   0.627
14564TIP3    H243636   7.308   4.520   0.507
14565TIP3   OH243637   2.747   0.144   5.124
14565TIP3    H143638   2.802   0.175   5.196
14565TIP3    H243639   2.754   0.212   5.057
14566TIP3   OH243640   6.847   7.132   0.204
14566TIP3    H143641   6.823   7.153   0.114
14566TIP3    H243642   6.942   7.138   0.205
14567TIP3   OH243643   8.095   4.842   4.562
14567TIP3    H143644   8.058   4.872   4.645
14567TIP3    H243645   8.030   4.866   4.497
14568TIP3   OH243646   4.478   2.854   3.201
14568TIP3    H143647   4.472   2.895   3.287
14568TIP3    H243648   4.436   2.916   3.142
14569TIP3   OH243649   4.200   4.709   1.405
14569TIP3    H143650   4.126   4.753   1.446
14569TIP3    H243651   4.164   4.626   1.373
14570TIP3   OH243652   4.901   2.372   0.017
14570TIP3    H143653   4.820   2.364   0.067
14570TIP3    H243654   4.877   2.347  -0.073
14571TIP3   OH243655   4.915   0.456   0.630
14571TIP3    H143656   4.891   0.364   0.619
14571TIP3    H243657   4.888   0.497   0.548
14572TIP3   OH243658   4.179   2.449   6.734
14572TIP3    H143659   4.171   2.504   6.812
14572TIP3    H243660   4.090   2.422   6.714
14573TIP3   OH243661   3.181   2.731   1.747
14573TIP3    H143662   3.263   2.715   1.794
14573TIP3    H243663   3.203   2.717   1.655
14574TIP3   OH243664   3.743   7.493   0.651
14574TIP3    H143665   3.743   7.578   0.696
14574TIP3    H243666   3.693   7.436   0.709
14575TIP3   OH243667   4.645   5.741   6.490
14575TIP3    H143668   4.622   5.776   6.403
14575TIP3    H243669   4.653   5.647   6.476
14576TIP3   OH243670   6.779   7.122   0.691
14576TIP3    H143671   6.759   7.159   0.605
14576TIP3    H243672   6.873   7.137   0.702
14577TIP3   OH243673   7.045   1.462   5.520
14577TIP3    H143674   7.087   1.543   5.548
14577TIP3    H243675   7.117   1.399   5.514
14578TIP3   OH243676   6.922   6.727   6.285
14578TIP3    H143677   7.016   6.714   6.268
14578TIP3    H243678   6.896   6.649   6.334
14579TIP3   OH243679   8.031   2.357   2.064
14579TIP3    H143680   8.057   2.437   2.111
14579TIP3    H243681   8.082   2.360   1.983
14580TIP3   OH243682   5.856   4.473   2.954
14580TIP3    H143683   5.776   4.469   3.006
14580TIP3    H243684   5.860   4.564   2.924
14581TIP3   OH243685   0.376   0.717   4.026
14581TIP3    H143686   0.393   0.705   4.119
14581TIP3    H243687   0.382   0.811   4.012
14582TIP3   OH243688   5.587   6.912   6.682
14582TIP3    H143689   5.637   6.937   6.759
14582TIP3    H243690   5.635   6.837   6.646
14583TIP3   OH243691   4.238   5.239   3.092
14583TIP3    H143692   4.177   5.307   3.064
14583TIP3    H243693   4.316   5.286   3.121
14584TIP3   OH243694   6.794   3.402   6.347
14584TIP3    H143695   6.863   3.339   6.368
14584TIP3    H243696   6.712   3.354   6.357
14585TIP3   OH243697   5.563   4.156   6.328
14585TIP3    H143698   5.557   4.061   6.316
14585TIP3    H243699   5.523   4.192   6.249
14586TIP3   OH243700   1.360   4.064   5.839
14586TIP3    H143701   1.351   4.153   5.808
14586TIP3    H243702   1.453   4.044   5.827
14587TIP3   OH243703   5.203   7.200   2.851
14587TIP3    H143704   5.206   7.160   2.764
14587TIP3    H243705   5.239   7.288   2.838
14588TIP3   OH243706   1.714   0.974   2.197
14588TIP3    H143707   1.747   0.990   2.285
14588TIP3    H243708   1.644   0.910   2.209
14589TIP3   OH243709   1.453   3.298   2.795
14589TIP3    H143710   1.451   3.202   2.793
14589TIP3    H243711   1.375   3.322   2.845
14590TIP3   OH243712   3.238   1.404   2.346
14590TIP3    H143713   3.169   1.349   2.383
14590TIP3    H243714   3.222   1.491   2.385
14591TIP3   OH243715   6.549   0.057   3.003
14591TIP3    H143716   6.538   0.145   3.037
14591TIP3    H243717   6.525  -0.001   3.075
14592TIP3   OH243718   6.971   1.455   4.830
14592TIP3    H143719   6.996   1.521   4.765
14592TIP3    H243720   7.055   1.424   4.865
14593TIP3   OH243721   3.094   0.134   5.152
14593TIP3    H143722   3.080   0.092   5.067
14593TIP3    H243723   3.146   0.212   5.132
14594TIP3   OH243724   5.866   7.003   2.477
14594TIP3    H143725   5.893   6.941   2.546
14594TIP3    H243726   5.893   7.088   2.510
14595TIP3   OH243727   7.611   7.719   6.174
14595TIP3    H143728   7.696   7.718   6.130
14595TIP3    H243729   7.630   7.691   6.263
14596TIP3   OH243730   6.041   1.044   1.459
14596TIP3    H143731   6.119   1.095   1.481
14596TIP3    H243732   6.032   1.053   1.365
14597TIP3   OH243733   0.608   2.460   0.152
14597TIP3    H143734   0.611   2.510   0.071
14597TIP3    H243735   0.695   2.423   0.161
14598TIP3   OH243736   5.660   1.606   6.447
14598TIP3    H143737   5.574   1.625   6.411
14598TIP3    H243738   5.713   1.582   6.371
14599TIP3   OH243739   5.407   3.490   6.701
14599TIP3    H143740   5.402   3.421   6.768
14599TIP3    H243741   5.498   3.519   6.703
14600TIP3   OH243742   2.076   6.434   4.331
14600TIP3    H143743   2.172   6.437   4.321
14600TIP3    H243744   2.048   6.371   4.264
14601TIP3   OH243745   3.388   6.726   2.350
14601TIP3    H143746   3.476   6.747   2.316
14601TIP3    H243747   3.328   6.771   2.290
14602TIP3   OH243748   1.809   4.927   6.344
14602TIP3    H143749   1.780   4.838   6.327
14602TIP3    H243750   1.889   4.917   6.396
14603TIP3   OH243751   3.860   5.439   0.146
14603TIP3    H143752   3.864   5.516   0.201
14603TIP3    H243753   3.893   5.368   0.201
14604TIP3   OH243754   1.473   3.850   5.523
14604TIP3    H143755   1.446   3.763   5.552
14604TIP3    H243756   1.562   3.861   5.558
14605TIP3   OH243757   5.594   6.310   5.314
14605TIP3    H143758   5.659   6.255   5.270
14605TIP3    H243759   5.523   6.249   5.337
14606TIP3   OH243760   0.455   5.253   1.451
14606TIP3    H143761   0.541   5.263   1.410
14606TIP3    H243762   0.471   5.264   1.544
14607TIP3   OH243763   3.091   7.813   4.692
14607TIP3    H143764   3.159   7.827   4.627
14607TIP3    H243765   3.073   7.719   4.689
14608TIP3   OH243766   4.838   2.755   4.001
14608TIP3    H143767   4.846   2.754   4.097
14608TIP3    H243768   4.745   2.743   3.985
14609TIP3   OH243769   5.592   2.450   1.600
14609TIP3    H143770   5.683   2.477   1.606
14609TIP3    H243771   5.568   2.425   1.689
14610TIP3   OH243772   1.586   1.654   2.021
14610TIP3    H143773   1.672   1.615   2.006
14610TIP3    H243774   1.548   1.601   2.091
14611TIP3   OH243775   2.398   4.776   6.107
14611TIP3    H143776   2.488   4.757   6.132
14611TIP3    H243777   2.386   4.869   6.128
14612TIP3   OH243778   8.136   3.681   1.574
14612TIP3    H143779   8.198   3.753   1.566
14612TIP3    H243780   8.190   3.602   1.568
14613TIP3   OH243781   7.750   0.750   5.909
14613TIP3    H143782   7.821   0.716   5.963
14613TIP3    H243783   7.771   0.721   5.820
14614TIP3   OH243784   6.731   2.404   2.312
14614TIP3    H143785   6.791   2.448   2.372
14614TIP3    H243786   6.720   2.316   2.349
14615TIP3   OH243787   3.839   3.773   5.698
14615TIP3    H143788   3.779   3.823   5.642
14615TIP3    H243789   3.786   3.751   5.775
14616TIP3   OH243790   5.125   5.481   4.415
14616TIP3    H143791   5.178   5.405   4.440
14616TIP3    H243792   5.041   5.445   4.389
14617TIP3   OH243793   0.308   2.538   2.284
14617TIP3    H143794   0.362   2.483   2.227
14617TIP3    H243795   0.322   2.503   2.372
14618TIP3   OH243796   3.384   0.275   0.349
14618TIP3    H143797   3.298   0.309   0.373
14618TIP3    H243798   3.433   0.351   0.319
14619TIP3   OH243799   2.200   2.143   2.912
14619TIP3    H143800   2.117   2.174   2.876
14619TIP3    H243801   2.191   2.155   3.006
14620TIP3   OH243802   0.334   0.693   2.358
14620TIP3    H143803   0.300   0.632   2.423
14620TIP3    H243804   0.367   0.638   2.287
14621TIP3   OH243805   0.216   3.337   4.439
14621TIP3    H143806   0.222   3.347   4.534
14621TIP3    H243807   0.131   3.376   4.417
14622TIP3   OH243808   5.218   6.027   6.673
14622TIP3    H143809   5.235   5.950   6.618
14622TIP3    H243810   5.244   5.999   6.761
14623TIP3   OH243811   3.966   2.109   4.990
14623TIP3    H143812   3.993   2.069   5.072
14623TIP3    H243813   3.896   2.169   5.015
14624TIP3   OH243814   5.171   6.116   4.917
14624TIP3    H143815   5.106   6.185   4.905
14624TIP3    H243816   5.122   6.043   4.957
14625TIP3   OH243817   7.247   4.885   1.546
14625TIP3    H143818   7.335   4.864   1.578
14625TIP3    H243819   7.214   4.802   1.511
14626TIP3   OH243820   6.842   7.518   5.121
14626TIP3    H143821   6.887   7.517   5.036
14626TIP3    H243822   6.781   7.592   5.114
14627TIP3   OH243823   2.922   0.203   3.785
14627TIP3    H143824   2.883   0.119   3.759
14627TIP3    H243825   3.006   0.179   3.823
14628TIP3   OH243826   3.040   3.632   0.778
14628TIP3    H143827   3.124   3.591   0.800
14628TIP3    H243828   3.009   3.668   0.861
14629TIP3   OH243829   6.191   6.779   0.755
14629TIP3    H143830   6.112   6.831   0.740
14629TIP3    H243831   6.159   6.697   0.793
14630TIP3   OH243832   7.110   2.117   5.858
14630TIP3    H143833   7.031   2.170   5.864
14630TIP3    H243834   7.166   2.164   5.796
14631TIP3   OH243835   5.555   6.745   1.325
14631TIP3    H143836   5.604   6.662   1.325
14631TIP3    H243837   5.517   6.750   1.238
14632TIP3   OH243838   1.696   6.136   4.441
14632TIP3    H143839   1.727   6.191   4.369
14632TIP3    H243840   1.601   6.146   4.440
14633TIP3   OH243841   0.984   5.765   5.780
14633TIP3    H143842   1.051   5.729   5.721
14633TIP3    H243843   0.980   5.858   5.757
14634TIP3   OH243844   1.329   2.273   5.063
14634TIP3    H143845   1.255   2.313   5.016
14634TIP3    H243846   1.336   2.325   5.143
14635TIP3   OH243847   4.974   2.610   2.719
14635TIP3    H143848   4.917   2.685   2.702
14635TIP3    H243849   4.916   2.544   2.757
14636TIP3   OH243850   5.930   3.471   6.262
14636TIP3    H143851   5.878   3.421   6.198
14636TIP3    H243852   5.898   3.440   6.347
14637TIP3   OH243853   2.135   3.184   3.924
14637TIP3    H143854   2.051   3.169   3.968
14637TIP3    H243855   2.193   3.117   3.961
14638TIP3   OH243856   4.996   4.381   4.770
14638TIP3    H143857   4.964   4.392   4.681
14638TIP3    H243858   4.983   4.289   4.790
14639TIP3   OH243859   0.813   5.644   2.328
14639TIP3    H143860   0.909   5.640   2.333
14639TIP3    H243861   0.795   5.674   2.239
14640TIP3   OH243862   5.236   3.649   2.465
14640TIP3    H143863   5.318   3.658   2.514
14640TIP3    H243864   5.174   3.615   2.529
14641TIP3   OH243865   1.255   7.063   2.029
14641TIP3    H143866   1.201   6.992   2.064
14641TIP3    H243867   1.240   7.059   1.934
14642TIP3   OH243868   1.151   3.093   0.468
14642TIP3    H143869   1.058   3.089   0.489
14642TIP3    H243870   1.153   3.113   0.374
14643TIP3   OH243871   1.588   1.350   0.595
14643TIP3    H143872   1.535   1.385   0.523
14643TIP3    H243873   1.674   1.390   0.581
14644TIP3   OH243874   3.685   3.062   1.251
14644TIP3    H143875   3.658   3.069   1.343
14644TIP3    H243876   3.603   3.057   1.202
14645TIP3   OH243877   6.974   5.410   6.483
14645TIP3    H143878   7.063   5.376   6.473
14645TIP3    H243879   6.919   5.352   6.431
14646TIP3   OH243880   5.813   0.961   4.222
14646TIP3    H143881   5.756   0.972   4.298
14646TIP3    H243882   5.900   0.983   4.254
14647TIP3   OH243883   4.400   1.764   5.721
14647TIP3    H143884   4.483   1.812   5.728
14647TIP3    H243885   4.415   1.702   5.649
14648TIP3   OH243886   7.966   3.273   2.567
14648TIP3    H143887   8.053   3.310   2.551
14648TIP3    H243888   7.957   3.273   2.662
14649TIP3   OH243889   5.313   4.330   1.646
14649TIP3    H143890   5.284   4.420   1.631
14649TIP3    H243891   5.329   4.295   1.558
14650TIP3   OH243892   1.873   7.626   5.053
14650TIP3    H143893   1.792   7.670   5.081
14650TIP3    H243894   1.859   7.534   5.076
14651TIP3   OH243895   5.546   3.813   2.036
14651TIP3    H143896   5.608   3.884   2.021
14651TIP3    H243897   5.579   3.769   2.115
14652TIP3   OH243898   5.358   3.049   2.421
14652TIP3    H143899   5.367   2.956   2.398
14652TIP3    H243900   5.266   3.069   2.403
14653TIP3   OH243901   3.333   0.923   5.041
14653TIP3    H143902   3.247   0.920   4.998
14653TIP3    H243903   3.368   1.009   5.018
14654TIP3   OH243904   7.994   1.488   5.550
14654TIP3    H143905   8.078   1.464   5.510
14654TIP3    H243906   7.988   1.433   5.627
14655TIP3   OH243907   5.038   1.581   0.276
14655TIP3    H143908   4.990   1.559   0.357
14655TIP3    H243909   5.052   1.676   0.282
14656TIP3   OH243910   3.221   2.326   0.678
14656TIP3    H143911   3.257   2.395   0.734
14656TIP3    H243912   3.153   2.285   0.731
14657TIP3   OH243913   1.139   0.334   2.823
14657TIP3    H143914   1.211   0.273   2.835
14657TIP3    H243915   1.180   0.421   2.821
14658TIP3   OH243916   4.696   0.818   1.115
14658TIP3    H143917   4.732   0.852   1.197
14658TIP3    H243918   4.625   0.760   1.143
14659TIP3   OH243919   0.428   4.706   1.591
14659TIP3    H143920   0.402   4.744   1.507
14659TIP3    H243921   0.470   4.778   1.638
14660TIP3   OH243922   0.035   5.795   6.578
14660TIP3    H143923   0.055   5.704   6.603
14660TIP3    H243924   0.014   5.838   6.661
14661TIP3   OH243925   7.663   0.861   3.568
14661TIP3    H143926   7.673   0.956   3.577
14661TIP3    H243927   7.679   0.828   3.656
14662TIP3   OH243928   4.386   6.061   1.526
14662TIP3    H143929   4.462   6.084   1.473
14662TIP3    H243930   4.418   6.063   1.616
14663TIP3   OH243931   6.329   0.358   5.345
14663TIP3    H143932   6.243   0.359   5.388
14663TIP3    H243933   6.363   0.446   5.359
14664TIP3   OH243934   5.812   4.427   6.351
14664TIP3    H143935   5.837   4.440   6.442
14664TIP3    H243936   5.741   4.489   6.336
14665TIP3   OH243937   1.605   0.314   1.935
14665TIP3    H143938   1.694   0.347   1.947
14665TIP3    H243939   1.600   0.292   1.842
14666TIP3   OH243940   7.384   4.250   1.588
14666TIP3    H143941   7.422   4.182   1.533
14666TIP3    H243942   7.458   4.289   1.634
14667TIP3   OH243943   0.577   4.618   0.647
14667TIP3    H143944   0.544   4.696   0.602
14667TIP3    H243945   0.624   4.570   0.580
14668TIP3   OH243946   4.968   0.161   3.421
14668TIP3    H143947   5.033   0.220   3.382
14668TIP3    H243948   4.950   0.097   3.353
14669TIP3   OH243949   6.986   0.183   6.081
14669TIP3    H143950   7.079   0.163   6.073
14669TIP3    H243951   6.979   0.277   6.065
14670TIP3   OH243952   5.431   1.449   5.563
14670TIP3    H143953   5.499   1.403   5.512
14670TIP3    H243954   5.406   1.523   5.509
14671TIP3   OH243955   6.372   6.692   6.607
14671TIP3    H143956   6.305   6.726   6.666
14671TIP3    H243957   6.440   6.657   6.665
14672TIP3   OH243958   4.102   1.473   4.696
14672TIP3    H143959   4.070   1.553   4.655
14672TIP3    H243960   4.190   1.460   4.660
14673TIP3   OH243961   7.582   7.460   6.445
14673TIP3    H143962   7.629   7.458   6.529
14673TIP3    H243963   7.495   7.425   6.465
14674TIP3   OH243964   4.874   4.288   3.074
14674TIP3    H143965   4.888   4.358   3.137
14674TIP3    H243966   4.829   4.330   3.000
14675TIP3   OH243967   5.493   4.120   3.190
14675TIP3    H143968   5.437   4.197   3.189
14675TIP3    H243969   5.432   4.046   3.190
14676TIP3   OH243970   7.885   0.785   0.837
14676TIP3    H143971   7.928   0.789   0.922
14676TIP3    H243972   7.791   0.788   0.857
14677TIP3   OH243973   7.512   2.578   5.418
14677TIP3    H143974   7.550   2.508   5.472
14677TIP3    H243975   7.500   2.538   5.332
14678TIP3   OH243976   0.218   2.939   4.818
14678TIP3    H143977   0.247   2.886   4.892
14678TIP3    H243978   0.289   2.932   4.754
14679TIP3   OH243979   0.512   6.131   0.036
14679TIP3    H143980   0.468   6.099  -0.042
14679TIP3    H243981   0.561   6.055   0.070
14680TIP3   OH243982   2.771   3.620   6.310
14680TIP3    H143983   2.830   3.590   6.379
14680TIP3    H243984   2.703   3.669   6.357
14681TIP3   OH243985   1.746   4.740   1.453
14681TIP3    H143986   1.714   4.829   1.439
14681TIP3    H243987   1.742   4.699   1.367
14682TIP3   OH243988   3.712   6.088   5.808
14682TIP3    H143989   3.738   6.158   5.749
14682TIP3    H243990   3.631   6.054   5.770
14683TIP3   OH243991   0.016   7.236   4.457
14683TIP3    H143992   0.004   7.179   4.381
14683TIP3    H243993  -0.019   7.320   4.429
14684TIP3   OH243994   2.787   3.058   6.454
14684TIP3    H143995   2.792   2.977   6.505
14684TIP3    H243996   2.834   3.039   6.373
14685TIP3   OH243997   3.025   5.257   4.332
14685TIP3    H143998   3.043   5.293   4.419
14685TIP3    H243999   2.944   5.207   4.344
14686TIP3   OH244000   7.660   4.277   1.704
14686TIP3    H144001   7.662   4.340   1.776
14686TIP3    H244002   7.737   4.298   1.652
14687TIP3   OH244003   6.361   1.290   6.382
14687TIP3    H144004   6.381   1.366   6.327
14687TIP3    H244005   6.287   1.317   6.436
14688TIP3   OH244006   1.206   1.715   5.572
14688TIP3    H144007   1.226   1.784   5.636
14688TIP3    H244008   1.291   1.691   5.536
14689TIP3   OH244009   0.499   1.336   2.194
14689TIP3    H144010   0.516   1.409   2.134
14689TIP3    H244011   0.416   1.300   2.164
14690TIP3   OH244012   8.281   6.594   3.145
14690TIP3    H144013   8.246   6.645   3.218
14690TIP3    H244014   8.210   6.591   3.081
14691TIP3   OH244015   2.194   1.128   3.334
14691TIP3    H144016   2.113   1.149   3.382
14691TIP3    H244017   2.258   1.108   3.402
14692TIP3   OH244018   1.366   3.363   6.736
14692TIP3    H144019   1.366   3.318   6.821
14692TIP3    H244020   1.342   3.295   6.673
14693TIP3   OH244021   2.061   4.385   1.177
14693TIP3    H144022   1.989   4.397   1.239
14693TIP3    H244023   2.126   4.333   1.225
14694TIP3   OH244024   7.305   2.068   1.425
14694TIP3    H144025   7.320   2.160   1.402
14694TIP3    H244026   7.277   2.027   1.343
14695TIP3   OH244027   5.673   2.054   2.528
14695TIP3    H144028   5.641   1.979   2.477
14695TIP3    H244029   5.608   2.123   2.511
14696TIP3   OH244030   5.971   0.693   3.894
14696TIP3    H144031   5.932   0.690   3.981
14696TIP3    H244032   5.897   0.698   3.834
14697TIP3   OH244033   1.678   4.664   6.276
14697TIP3    H144034   1.668   4.579   6.318
14697TIP3    H244035   1.728   4.646   6.196
14698TIP3   OH244036   1.041   4.152   6.747
14698TIP3    H144037   1.031   4.058   6.764
14698TIP3    H244038   1.096   4.156   6.669
14699TIP3   OH244039   1.049   7.066   4.543
14699TIP3    H144040   1.044   7.096   4.634
14699TIP3    H244041   1.134   7.096   4.513
14700TIP3   OH244042   3.737   7.129   1.193
14700TIP3    H144043   3.792   7.192   1.146
14700TIP3    H244044   3.656   7.176   1.212
14701TIP3   OH244045   0.485   5.300   3.264
14701TIP3    H144046   0.576   5.323   3.246
14701TIP3    H244047   0.464   5.348   3.344
14702TIP3   OH244048   5.543   3.755   0.144
14702TIP3    H144049   5.597   3.806   0.084
14702TIP3    H244050   5.588   3.763   0.228
14703TIP3   OH244051   2.310   5.459   1.253
14703TIP3    H144052   2.239   5.399   1.229
14703TIP3    H244053   2.374   5.404   1.297
14704TIP3   OH244054   1.870   1.601   3.099
14704TIP3    H144055   1.884   1.511   3.072
14704TIP3    H244056   1.801   1.596   3.165
14705TIP3   OH244057   4.146   7.372   5.606
14705TIP3    H144058   4.114   7.434   5.670
14705TIP3    H244059   4.085   7.299   5.609
14706TIP3   OH244060   0.306   7.162   0.443
14706TIP3    H144061   0.225   7.213   0.439
14706TIP3    H244062   0.300   7.112   0.524
14707TIP3   OH244063   3.355   1.953   2.485
14707TIP3    H144064   3.334   1.914   2.400
14707TIP3    H244065   3.450   1.949   2.491
14708TIP3   OH244066   6.592   2.047   1.734
14708TIP3    H144067   6.601   2.102   1.657
14708TIP3    H244068   6.540   1.972   1.705
14709TIP3   OH244069   4.639   3.743   1.693
14709TIP3    H144070   4.579   3.671   1.714
14709TIP3    H244071   4.692   3.709   1.621
14710TIP3   OH244072   8.149   5.418   4.690
14710TIP3    H144073   8.135   5.358   4.616
14710TIP3    H244074   8.186   5.497   4.650
14711TIP3   OH244075   4.747   0.726   4.891
14711TIP3    H144076   4.670   0.783   4.897
14711TIP3    H244077   4.819   0.785   4.870
14712TIP3   OH244078   1.965   1.376   0.399
14712TIP3    H144079   1.967   1.412   0.310
14712TIP3    H244080   1.897   1.426   0.444
14713TIP3   OH244081   0.121   2.697   0.829
14713TIP3    H144082   0.187   2.735   0.887
14713TIP3    H244083   0.172   2.647   0.766
14714TIP3   OH244084   2.339   2.866   5.081
14714TIP3    H144085   2.370   2.947   5.041
14714TIP3    H244086   2.397   2.799   5.048
14715TIP3   OH244087   3.032   5.396   0.827
14715TIP3    H144088   3.029   5.325   0.763
14715TIP3    H244089   2.948   5.390   0.872
14716TIP3   OH244090   4.975   7.018   4.254
14716TIP3    H144091   4.970   7.102   4.210
14716TIP3    H244092   4.889   6.977   4.237
14717TIP3   OH244093   2.631   1.322   4.809
14717TIP3    H144094   2.613   1.234   4.841
14717TIP3    H244095   2.545   1.360   4.792
14718TIP3   OH244096   3.249   6.863   0.935
14718TIP3    H144097   3.183   6.887   1.000
14718TIP3    H244098   3.198   6.843   0.856
14719TIP3   OH244099   4.338   0.570   2.763
14719TIP3    H144100   4.253   0.614   2.756
14719TIP3    H244101   4.380   0.587   2.679
14720TIP3   OH244102   3.363   4.719   0.610
14720TIP3    H144103   3.348   4.632   0.647
14720TIP3    H244104   3.416   4.703   0.532
14721TIP3   OH244105   2.502   0.071   0.779
14721TIP3    H144106   2.512   0.152   0.829
14721TIP3    H244107   2.591   0.036   0.773
14722TIP3   OH244108   7.185   2.442   2.339
14722TIP3    H144109   7.132   2.456   2.261
14722TIP3    H244110   7.124   2.407   2.404
14723TIP3   OH244111   3.036   2.684   0.414
14723TIP3    H144112   2.995   2.769   0.428
14723TIP3    H244113   3.127   2.696   0.443
14724TIP3   OH244114   3.607   1.870   0.549
14724TIP3    H144115   3.677   1.887   0.486
14724TIP3    H244116   3.653   1.851   0.631
14725TIP3   OH244117   0.367   6.931   3.186
14725TIP3    H144118   0.290   6.978   3.154
14725TIP3    H244119   0.342   6.839   3.184
14726TIP3   OH244120   4.255   4.792   4.478
14726TIP3    H144121   4.300   4.871   4.448
14726TIP3    H244122   4.324   4.736   4.512
14727TIP3   OH244123   0.795   2.015   0.941
14727TIP3    H144124   0.790   2.087   0.878
14727TIP3    H244125   0.742   1.946   0.903
14728TIP3   OH244126   4.920   1.051   5.031
14728TIP3    H144127   5.006   1.092   5.034
14728TIP3    H244128   4.884   1.063   5.119
14729TIP3   OH244129   3.502   6.799   0.801
14729TIP3    H144130   3.494   6.727   0.862
14729TIP3    H244131   3.423   6.851   0.814
14730TIP3   OH244132   6.534   3.759   1.196
14730TIP3    H144133   6.611   3.812   1.217
14730TIP3    H244134   6.537   3.749   1.101
14731TIP3   OH244135   2.978   4.884   5.418
14731TIP3    H144136   3.017   4.928   5.343
14731TIP3    H244137   2.884   4.888   5.402
14732TIP3   OH244138   7.184   0.120   5.507
14732TIP3    H144139   7.151   0.124   5.597
14732TIP3    H244140   7.241   0.043   5.505
14733TIP3   OH244141   2.927   7.791   0.158
14733TIP3    H144142   3.001   7.849   0.177
14733TIP3    H244143   2.959   7.703   0.182
14734TIP3   OH244144   0.285   4.780   1.353
14734TIP3    H144145   0.269   4.740   1.267
14734TIP3    H244146   0.295   4.873   1.333
14735TIP3   OH244147   4.887   5.030   3.820
14735TIP3    H144148   4.935   5.108   3.794
14735TIP3    H244149   4.814   5.062   3.872
14736TIP3   OH244150   4.748   6.334   5.054
14736TIP3    H144151   4.841   6.343   5.034
14736TIP3    H244152   4.703   6.386   4.988
14737TIP3   OH244153   2.016   7.698   3.247
14737TIP3    H144154   1.967   7.668   3.170
14737TIP3    H244155   2.076   7.764   3.212
14738TIP3   OH244156   0.541   3.415   4.900
14738TIP3    H144157   0.519   3.401   4.992
14738TIP3    H244158   0.622   3.465   4.902
14739TIP3   OH244159   4.698   4.140   4.534
14739TIP3    H144160   4.653   4.093   4.605
14739TIP3    H244161   4.659   4.104   4.454
14740TIP3   OH244162   4.391   3.916   6.557
14740TIP3    H144163   4.402   3.824   6.533
14740TIP3    H244164   4.296   3.929   6.564
14741TIP3   OH244165   0.772   4.352   6.334
14741TIP3    H144166   0.793   4.359   6.427
14741TIP3    H244167   0.697   4.410   6.322
14742TIP3   OH244168   2.645   2.454   1.804
14742TIP3    H144169   2.710   2.500   1.751
14742TIP3    H244170   2.614   2.383   1.749
14743TIP3   OH244171   3.767   3.571   1.792
14743TIP3    H144172   3.839   3.509   1.789
14743TIP3    H244173   3.809   3.655   1.811
14744TIP3   OH244174   6.037   3.773   0.714
14744TIP3    H144175   6.060   3.750   0.624
14744TIP3    H244176   6.100   3.841   0.738
14745TIP3   OH244177   6.753   7.500   2.345
14745TIP3    H144178   6.706   7.570   2.299
14745TIP3    H244179   6.840   7.499   2.305
14746TIP3   OH244180   8.009   1.750   5.408
14746TIP3    H144181   8.024   1.684   5.476
14746TIP3    H244182   8.006   1.833   5.456
14747TIP3   OH244183   7.136   0.099   2.036
14747TIP3    H144184   7.066   0.107   1.971
14747TIP3    H244185   7.130   0.008   2.067
14748TIP3   OH244186   7.526   5.047   2.470
14748TIP3    H144187   7.438   5.077   2.445
14748TIP3    H244188   7.516   5.013   2.558
14749TIP3   OH244189   6.513   1.394   0.765
14749TIP3    H144190   6.468   1.471   0.800
14749TIP3    H244191   6.532   1.417   0.674
14750TIP3   OH244192   0.978   2.655   0.557
14750TIP3    H144193   0.990   2.700   0.473
14750TIP3    H244194   0.967   2.725   0.621
14751TIP3   OH244195   6.178   3.170   2.107
14751TIP3    H144196   6.197   3.263   2.102
14751TIP3    H244197   6.147   3.146   2.020
14752TIP3   OH244198   6.402   7.113   3.152
14752TIP3    H144199   6.496   7.120   3.140
14752TIP3    H244200   6.379   7.188   3.207
14753TIP3   OH244201   3.626   3.295   5.323
14753TIP3    H144202   3.656   3.205   5.315
14753TIP3    H244203   3.707   3.347   5.330
14754TIP3   OH244204   7.694   5.745   2.194
14754TIP3    H144205   7.715   5.714   2.106
14754TIP3    H244206   7.598   5.747   2.197
14755TIP3   OH244207   7.444   1.214   1.216
14755TIP3    H144208   7.357   1.175   1.210
14755TIP3    H244209   7.429   1.308   1.201
14756TIP3   OH244210   6.573   4.277   6.675
14756TIP3    H144211   6.625   4.357   6.681
14756TIP3    H244212   6.487   4.306   6.643
14757TIP3   OH244213   3.702   7.303   6.511
14757TIP3    H144214   3.761   7.324   6.583
14757TIP3    H244215   3.716   7.372   6.447
14758TIP3   OH244216   5.755   4.511   1.248
14758TIP3    H144217   5.712   4.555   1.175
14758TIP3    H244218   5.849   4.527   1.234
14759TIP3   OH244219   0.546   1.300   3.094
14759TIP3    H144220   0.473   1.270   3.040
14759TIP3    H244221   0.509   1.307   3.183
14760TIP3   OH244222   0.318   6.244   6.648
14760TIP3    H144223   0.348   6.325   6.608
14760TIP3    H244224   0.383   6.179   6.623
14761TIP3   OH244225   0.564   5.081   0.535
14761TIP3    H144226   0.631   5.125   0.482
14761TIP3    H244227   0.563   4.991   0.501
14762TIP3   OH244228   7.503   3.513   5.343
14762TIP3    H144229   7.516   3.583   5.279
14762TIP3    H244230   7.424   3.468   5.314
14763TIP3   OH244231   5.223   3.777   6.133
14763TIP3    H144232   5.154   3.839   6.156
14763TIP3    H244233   5.304   3.819   6.163
14764TIP3   OH244234   1.218   5.061   3.883
14764TIP3    H144235   1.136   5.090   3.845
14764TIP3    H244236   1.232   5.119   3.958
14765TIP3   OH244237   4.592   0.298   6.717
14765TIP3    H144238   4.500   0.274   6.714
14765TIP3    H244239   4.628   0.267   6.634
14766TIP3   OH244240   7.059   0.564   3.275
14766TIP3    H144241   7.065   0.658   3.264
14766TIP3    H244242   6.971   0.550   3.312
14767TIP3   OH244243   4.646   4.226   0.146
14767TIP3    H144244   4.715   4.220   0.081
14767TIP3    H244245   4.594   4.147   0.134
14768TIP3   OH244246   7.854   3.182   6.088
14768TIP3    H144247   7.798   3.240   6.140
14768TIP3    H244248   7.798   3.107   6.068
14769TIP3   OH244249   5.879   3.040   4.812
14769TIP3    H144250   5.921   2.967   4.766
14769TIP3    H244251   5.787   3.014   4.818
14770TIP3   OH244252   3.472   4.791   1.438
14770TIP3    H144253   3.409   4.763   1.504
14770TIP3    H244254   3.549   4.816   1.488
14771TIP3   OH244255   7.953   7.083   0.637
14771TIP3    H144256   7.941   7.028   0.715
14771TIP3    H244257   7.992   7.164   0.671
14772TIP3   OH244258   5.421   4.099   6.591
14772TIP3    H144259   5.449   4.184   6.559
14772TIP3    H244260   5.368   4.118   6.668
14773TIP3   OH244261   4.879   0.549   1.942
14773TIP3    H144262   4.956   0.541   1.999
14773TIP3    H244263   4.831   0.624   1.977
14774TIP3   OH244264   4.756   0.032   2.603
14774TIP3    H144265   4.753   0.127   2.594
14774TIP3    H244266   4.751  -0.001   2.513
14775TIP3   OH244267   2.933   6.725   5.482
14775TIP3    H144268   2.864   6.788   5.501
14775TIP3    H244269   2.983   6.764   5.411
14776TIP3   OH244270   2.444   6.125   5.047
14776TIP3    H144271   2.409   6.214   5.057
14776TIP3    H244272   2.384   6.082   4.985
14777TIP3   OH244273   8.117   6.237   1.921
14777TIP3    H144274   8.077   6.320   1.950
14777TIP3    H244275   8.206   6.261   1.897
14778TIP3   OH244276   1.548   7.517   4.961
14778TIP3    H144277   1.463   7.501   4.920
14778TIP3    H244278   1.609   7.521   4.887
14779TIP3   OH244279   6.377   0.834   2.981
14779TIP3    H144280   6.328   0.866   2.905
14779TIP3    H244281   6.469   0.846   2.958
14780TIP3   OH244282   0.677   4.437   2.499
14780TIP3    H144283   0.757   4.487   2.515
14780TIP3    H244284   0.632   4.485   2.430
14781TIP3   OH244285   2.734   4.215   4.472
14781TIP3    H144286   2.793   4.215   4.397
14781TIP3    H244287   2.703   4.306   4.478
14782TIP3   OH244288   6.139   0.730   4.308
14782TIP3    H144289   6.104   0.657   4.256
14782TIP3    H244290   6.065   0.789   4.320
14783TIP3   OH244291   0.434   1.994   3.360
14783TIP3    H144292   0.502   1.991   3.292
14783TIP3    H244293   0.447   2.078   3.403
14784TIP3   OH244294   0.632   7.369   0.693
14784TIP3    H144295   0.658   7.335   0.779
14784TIP3    H244296   0.553   7.421   0.710
14785TIP3   OH244297   4.698   3.482   5.044
14785TIP3    H144298   4.752   3.514   4.972
14785TIP3    H244299   4.608   3.494   5.014
14786TIP3   OH244300   2.273   3.500   0.021
14786TIP3    H144301   2.290   3.589   0.051
14786TIP3    H244302   2.358   3.456   0.022
14787TIP3   OH244303   1.070   4.105   4.759
14787TIP3    H144304   1.086   4.176   4.696
14787TIP3    H244305   1.020   4.040   4.709
14788TIP3   OH244306   7.020   6.701   1.648
14788TIP3    H144307   7.033   6.636   1.579
14788TIP3    H244308   6.938   6.675   1.691
14789TIP3   OH244309   5.249   3.193   2.121
14789TIP3    H144310   5.222   3.195   2.213
14789TIP3    H244311   5.245   3.101   2.096
14790TIP3   OH244312   1.724   1.306   5.932
14790TIP3    H144313   1.656   1.307   5.864
14790TIP3    H244314   1.751   1.397   5.940
14791TIP3   OH244315   0.911   4.711   3.823
14791TIP3    H144316   0.987   4.662   3.791
14791TIP3    H244317   0.845   4.699   3.754
14792TIP3   OH244318   5.331   2.852   4.990
14792TIP3    H144319   5.313   2.782   5.053
14792TIP3    H244320   5.308   2.933   5.035
14793TIP3   OH244321   7.342   5.593   1.403
14793TIP3    H144322   7.324   5.581   1.497
14793TIP3    H244323   7.385   5.512   1.376
14794TIP3   OH244324   0.026   2.815   6.327
14794TIP3    H144325   0.108   2.797   6.372
14794TIP3    H244326  -0.016   2.884   6.379
14795TIP3   OH244327   6.585   4.959   4.164
14795TIP3    H144328   6.577   4.864   4.173
14795TIP3    H244329   6.495   4.991   4.170
14796TIP3   OH244330   1.007   3.255   0.180
14796TIP3    H144331   1.009   3.340   0.225
14796TIP3    H244332   0.922   3.218   0.202
14797TIP3   OH244333   1.425   7.636   0.596
14797TIP3    H144334   1.412   7.561   0.654
14797TIP3    H244335   1.359   7.700   0.623
14798TIP3   OH244336   6.019   0.727   3.315
14798TIP3    H144337   6.022   0.633   3.299
14798TIP3    H244338   6.111   0.756   3.307
14799TIP3   OH244339   8.121   2.711   3.124
14799TIP3    H144340   8.076   2.724   3.208
14799TIP3    H244341   8.198   2.659   3.146
14800TIP3   OH244342   3.583   4.428   1.350
14800TIP3    H144343   3.527   4.458   1.422
14800TIP3    H244344   3.523   4.380   1.292
14801TIP3   OH244345   1.084   7.635   1.529
14801TIP3    H144346   1.159   7.583   1.499
14801TIP3    H244347   1.075   7.614   1.622
14802TIP3   OH244348   3.627   7.234   3.652
14802TIP3    H144349   3.586   7.148   3.658
14802TIP3    H244350   3.646   7.244   3.558
14803TIP3   OH244351   2.792   2.728   3.937
14803TIP3    H144352   2.745   2.810   3.922
14803TIP3    H244353   2.881   2.746   3.906
14804TIP3   OH244354   7.013   0.957   0.589
14804TIP3    H144355   6.991   0.993   0.503
14804TIP3    H244356   7.108   0.945   0.587
14805TIP3   OH244357   7.360   2.951   2.293
14805TIP3    H144358   7.308   2.909   2.362
14805TIP3    H244359   7.297   2.968   2.223
14806TIP3   OH244360   3.864   3.411   5.435
14806TIP3    H144361   3.835   3.350   5.503
14806TIP3    H244362   3.941   3.454   5.472
14807TIP3   OH244363   7.663   1.780   3.746
14807TIP3    H144364   7.581   1.802   3.788
14807TIP3    H244365   7.711   1.729   3.811
14808TIP3   OH244366   6.162   4.601   2.301
14808TIP3    H144367   6.096   4.548   2.346
14808TIP3    H244368   6.131   4.691   2.310
14809TIP3   OH244369   6.791   6.666   4.133
14809TIP3    H144370   6.839   6.584   4.125
14809TIP3    H244371   6.744   6.659   4.216
14810TIP3   OH244372   2.855   2.124   0.529
14810TIP3    H144373   2.903   2.095   0.607
14810TIP3    H244374   2.773   2.160   0.564
14811TIP3   OH244375   4.273   2.512   6.431
14811TIP3    H144376   4.256   2.454   6.506
14811TIP3    H244377   4.231   2.468   6.357
14812TIP3   OH244378   6.983   3.184   0.683
14812TIP3    H144379   6.919   3.245   0.718
14812TIP3    H244380   6.931   3.113   0.645
14813TIP3   OH244381   1.167   4.764   0.907
14813TIP3    H144382   1.165   4.706   0.831
14813TIP3    H244383   1.095   4.732   0.962
14814TIP3   OH244384   5.533   1.156   5.885
14814TIP3    H144385   5.457   1.162   5.941
14814TIP3    H244386   5.565   1.246   5.876
14815TIP3   OH244387   1.949   7.577   0.579
14815TIP3    H144388   2.006   7.505   0.606
14815TIP3    H244389   1.973   7.594   0.488
   8.29035   7.81622   6.76904   0.00000   0.00000  -2.76345   0.00000  -2.76345  -3.90811
