Generated by CHARMM-GUI FF-Converter
44437
    1GLY      N    1   2.127   4.005   4.805
    1GLY    HT1    2   2.036   3.996   4.754
    1GLY    HT2    3   2.160   4.104   4.797
    1GLY    HT3    4   2.114   3.982   4.906
    1GLY     CA    5   2.226   3.920   4.742
    1GLY    HA1    6   2.226   3.937   4.636
    1GLY    HA2    7   2.199   3.820   4.771
    1GLY      C    8   2.367   3.944   4.794
    1GLY      O    9   2.392   4.042   4.864
    2PRO      N   10   2.476   3.864   4.759
    2PRO     CD   11   2.448   3.736   4.718
    2PRO    HD1   12   2.423   3.739   4.609
    2PRO    HD2   13   2.367   3.687   4.776
    2PRO     CA   14   2.613   3.889   4.801
    2PRO     HA   15   2.613   3.909   4.908
    2PRO     CB   16   2.686   3.759   4.766
    2PRO    HB1   17   2.754   3.726   4.847
    2PRO    HB2   18   2.746   3.770   4.672
    2PRO     CG   19   2.576   3.661   4.740
    2PRO    HG1   20   2.603   3.595   4.654
    2PRO    HG2   21   2.565   3.596   4.830
    2PRO      C   22   2.677   4.008   4.730
    2PRO      O   23   2.632   4.046   4.621
    3GLY      N   24   2.771   4.071   4.809
    3GLY     HN   25   2.799   4.030   4.895
    3GLY     CA   26   2.845   4.181   4.750
    3GLY    HA1   27   2.918   4.213   4.823
    3GLY    HA2   28   2.775   4.258   4.722
    3GLY      C   29   2.922   4.141   4.625
    3GLY      O   30   2.937   4.022   4.596
    4ASP      N   31   2.960   4.242   4.549
    4ASP     HN   32   2.932   4.336   4.563
    4ASP     CA   33   3.048   4.216   4.436
    4ASP     HA   34   2.994   4.145   4.377
    4ASP     CB   35   3.070   4.344   4.355
    4ASP    HB1   36   3.151   4.334   4.279
    4ASP    HB2   37   3.100   4.427   4.423
    4ASP     CG   38   2.946   4.388   4.279
    4ASP    OD1   39   2.856   4.304   4.255
    4ASP    OD2   40   2.938   4.507   4.242
    4ASP      C   41   3.183   4.160   4.483
    4ASP      O   42   3.231   4.195   4.591
    5PRO      N   43   3.243   4.086   4.412
    5PRO     CD   44   3.197   4.044   4.291
    5PRO    HD1   45   3.194   4.128   4.218
    5PRO    HD2   46   3.097   3.994   4.298
    5PRO     CA   47   3.379   4.046   4.446
    5PRO     HA   48   3.376   3.991   4.539
    5PRO     CB   49   3.422   3.960   4.327
    5PRO    HB1   50   3.463   3.862   4.362
    5PRO    HB2   51   3.500   4.010   4.265
    5PRO     CG   52   3.297   3.942   4.246
    5PRO    HG1   53   3.318   3.949   4.137
    5PRO    HG2   54   3.256   3.840   4.267
    5PRO      C   55   3.473   4.165   4.464
    5PRO      O   56   3.449   4.272   4.408
    6GLY      N   57   3.567   4.132   4.558
    6GLY     HN   58   3.582   4.040   4.592
    6GLY     CA   59   3.669   4.234   4.578
    6GLY    HA1   60   3.740   4.194   4.649
    6GLY    HA2   61   3.622   4.325   4.611
    6GLY      C   62   3.747   4.266   4.451
    6GLY      O   63   3.738   4.193   4.352
    7SER      N   64   3.826   4.363   4.474
    7SER     HN   65   3.832   4.415   4.559
    7SER     CA   66   3.915   4.396   4.364
    7SER     HA   67   3.861   4.394   4.270
    7SER     CB   68   3.971   4.538   4.382
    7SER    HB1   69   4.040   4.564   4.298
    7SER    HB2   70   4.030   4.543   4.476
    7SER     OG   71   3.867   4.633   4.388
    7SER    HG1   72   3.824   4.628   4.301
    7SER      C   73   4.030   4.296   4.353
    7SER      O   74   4.064   4.229   4.450
    8GLY      N   75   4.085   4.289   4.230
    8GLY     HN   76   4.057   4.344   4.151
    8GLY     CA   77   4.199   4.200   4.215
    8GLY    HA1   78   4.221   4.195   4.109
    8GLY    HA2   79   4.174   4.102   4.255
    8GLY      C   80   4.324   4.250   4.284
    8GLY      O   81   4.330   4.365   4.328
    9ASN      N   82   4.417   4.162   4.294
    9ASN     HN   83   4.405   4.070   4.256
    9ASN     CA   84   4.549   4.198   4.346
    9ASN     HA   85   4.524   4.242   4.441
    9ASN     CB   86   4.635   4.073   4.364
    9ASN    HB1   87   4.710   4.060   4.284
    9ASN    HB2   88   4.568   3.983   4.359
    9ASN     CG   89   4.699   4.066   4.501
    9ASN    OD1   90   4.643   4.114   4.600
    9ASN    ND2   91   4.817   4.006   4.509
    9ASN   HD21   92   4.851   3.985   4.600
    9ASN   HD22   93   4.854   3.963   4.426
    9ASN      C   94   4.619   4.298   4.255
    9ASN      O   95   4.602   4.295   4.133
   10PRO      N   96   4.698   4.377   4.319
   10PRO     CD   97   4.717   4.393   4.454
   10PRO    HD1   98   4.779   4.310   4.493
   10PRO    HD2   99   4.621   4.401   4.510
   10PRO     CA  100   4.779   4.464   4.233
   10PRO     HA  101   4.713   4.521   4.169
   10PRO     CB  102   4.856   4.551   4.332
   10PRO    HB1  103   4.845   4.658   4.304
   10PRO    HB2  104   4.965   4.526   4.334
   10PRO     CG  105   4.795   4.521   4.465
   10PRO    HG1  106   4.872   4.514   4.545
   10PRO    HG2  107   4.726   4.605   4.494
   10PRO      C  108   4.874   4.385   4.143
   10PRO      O  109   4.907   4.270   4.173
   11GLY      N  110   4.903   4.441   4.023
   11GLY     HN  111   4.866   4.530   3.999
   11GLY     CA  112   4.996   4.376   3.931
   11GLY    HA1  113   5.006   4.440   3.845
   11GLY    HA2  114   4.957   4.278   3.908
   11GLY      C  115   5.134   4.359   3.990
   11GLY      O  116   5.164   4.412   4.097
   12SER      N  117   5.216   4.295   3.923
   12SER     HN  118   5.189   4.245   3.841
   12SER     CA  119   5.356   4.279   3.961
   12SER     HA  120   5.362   4.260   4.067
   12SER     CB  121   5.418   4.160   3.888
   12SER    HB1  122   5.523   4.143   3.918
   12SER    HB2  123   5.418   4.181   3.778
   12SER     OG  124   5.342   4.043   3.908
   12SER    HG1  125   5.372   4.000   3.991
   12SER      C  126   5.436   4.406   3.930
   12SER      O  127   5.402   4.480   3.838
   13GLY      N  128   5.533   4.437   4.008
   13GLY     HN  129   5.553   4.380   4.088
   13GLY     CA  130   5.623   4.548   3.982
   13GLY    HA1  131   5.693   4.554   4.064
   13GLY    HA2  132   5.564   4.638   3.971
   13GLY      C  133   5.705   4.529   3.856
   13GLY      O  134   5.714   4.419   3.802
   14ASP      N  135   5.754   4.610   3.800
   14ASP     HN  136   5.741   4.702   3.834
   14ASP     CA  137   5.842   4.612   3.683
   14ASP     HA  138   5.788   4.561   3.605
   14ASP     CB  139   5.866   4.756   3.637
   14ASP    HB1  140   5.945   4.759   3.558
   14ASP    HB2  141   5.900   4.819   3.721
   14ASP     CG  142   5.744   4.820   3.574
   14ASP    OD1  143   5.652   4.747   3.531
   14ASP    OD2  144   5.738   4.944   3.569
   14ASP      C  145   5.975   4.543   3.713
   14ASP      O  146   6.024   4.549   3.826
   15PRO      N  147   6.018   4.432   3.626
   15PRO     CD  148   5.945   4.398   3.510
   15PRO    HD1  149   5.955   4.479   3.435
   15PRO    HD2  150   5.837   4.379   3.533
   15PRO     CA  151   6.143   4.359   3.645
   15PRO     HA  152   6.137   4.306   3.739
   15PRO     CB  153   6.150   4.268   3.522
   15PRO    HB1  154   6.186   4.167   3.549
   15PRO    HB2  155   6.220   4.311   3.446
   15PRO     CG  156   6.012   4.272   3.464
   15PRO    HG1  157   6.013   4.263   3.353
   15PRO    HG2  158   5.954   4.186   3.505
   15PRO      C  159   6.265   4.451   3.652
   15PRO    OT1  160   6.246   4.575   3.641
   15PRO    OT2  161   6.378   4.398   3.668
   16LIT    LIT  162   6.415   4.326   5.546
   17LIT    LIT  163   3.632   7.153   2.060
   18LIT    LIT  164   7.502   5.303   3.171
   19LIT    LIT  165   2.830   6.130   6.117
   20LIT    LIT  166   7.166   1.992   6.422
   21LIT    LIT  167   6.061   5.753   1.407
   22LIT    LIT  168   2.345   0.953   2.546
   23LIT    LIT  169   2.827   1.249   6.721
   24LIT    LIT  170   4.783   1.962   0.488
   25LIT    LIT  171   5.465   7.002   1.397
   26LIT    LIT  172   1.469   6.260   4.340
   27LIT    LIT  173   4.246   7.951   4.034
   28LIT    LIT  174   7.729   2.670   6.910
   29LIT    LIT  175   4.308   5.366   2.689
   30LIT    LIT  176   2.312   2.738   6.651
   31LIT    LIT  177   2.775   0.645   5.749
   32LIT    LIT  178   3.023   0.205   3.709
   33LIT    LIT  179   2.135   1.287   5.233
   34LIT    LIT  180   3.189   7.504   4.848
   35LIT    LIT  181   1.044   6.451   6.068
   36LIT    LIT  182   6.127   6.339   2.860
   37LIT    LIT  183   3.077   4.595   5.586
   38LIT    LIT  184   4.422   6.566   2.497
   39LIT    LIT  185   2.459   7.652   5.870
   40LIT    LIT  186   7.214   7.461   1.886
   41LIT    LIT  187   6.414   4.563   3.562
   42LIT    LIT  188   5.293   1.302   1.571
   43LIT    LIT  189   4.158   1.645   2.748
   44LIT    LIT  190   5.255   3.306   0.344
   45LIT    LIT  191   3.854   8.018   6.148
   46LIT    LIT  192   2.148   6.460   3.845
   47LIT    LIT  193   4.029   5.794   7.136
   48LIT    LIT  194   4.893   6.568   5.115
   49LIT    LIT  195   6.040   3.936   3.540
   50LIT    LIT  196   1.135   4.410   4.993
   51LIT    LIT  197   0.706   3.880   3.167
   52LIT    LIT  198   0.667   1.808   6.471
   53LIT    LIT  199   0.341   3.363   2.530
   54LIT    LIT  200   2.228   1.638   1.577
   55LIT    LIT  201   1.701   3.609   0.760
   56LIT    LIT  202   3.084   4.290   3.706
   57LIT    LIT  203   4.409   3.090   6.369
   58LIT    LIT  204   7.413   5.650   6.838
   59LIT    LIT  205   6.537   7.792   4.394
   60CLA    CLA  206   3.379   0.052   4.453
   61CLA    CLA  207   3.964   2.356   0.662
   62CLA    CLA  208   3.227   6.326   3.568
   63CLA    CLA  209   2.514   1.585   6.724
   64CLA    CLA  210   7.123   4.717   5.660
   65CLA    CLA  211   8.210   5.428   6.055
   66CLA    CLA  212   1.954   5.312   3.238
   67CLA    CLA  213   3.554   6.264   5.832
   68CLA    CLA  214   4.432   6.280   4.926
   69CLA    CLA  215   8.159   5.541   3.297
   70CLA    CLA  216   3.675   7.955   2.353
   71CLA    CLA  217   4.235   7.752   5.933
   72CLA    CLA  218   0.232   3.203   2.640
   73CLA    CLA  219   1.171   3.993   3.577
   74CLA    CLA  220   4.208   6.154   0.657
   75CLA    CLA  221   4.489   6.573   2.964
   76CLA    CLA  222   1.907   3.190   2.583
   77CLA    CLA  223   2.698   0.449   5.830
   78CLA    CLA  224   3.037   7.450   4.999
   79CLA    CLA  225   7.473   1.282   5.370
   80CLA    CLA  226   5.174   6.581   5.279
   81CLA    CLA  227   4.385   1.322   1.202
   82CLA    CLA  228   2.883   1.023   5.737
   83CLA    CLA  229   5.408   6.638   1.908
   84CLA    CLA  230   4.579   2.278   6.297
   85CLA    CLA  231   3.632   6.377   7.451
   86CLA    CLA  232   2.734   2.090   3.485
   87CLA    CLA  233   0.796   3.787   5.422
   88CLA    CLA  234   6.520   4.859   2.536
   89CLA    CLA  235   2.162   2.892   6.628
   90CLA    CLA  236   1.517   3.956   7.145
   91CLA    CLA  237   4.034   3.887   7.258
   92CLA    CLA  238   2.585   8.576   5.975
   93CLA    CLA  239   3.836   3.031   4.293
   94CLA    CLA  240   4.485   8.427   4.236
   95CLA    CLA  241   3.058   5.315   4.418
   96CLA    CLA  242   0.956   2.117   6.828
   97CLA    CLA  243   4.967   3.578   4.073
   98CLA    CLA  244   1.830   1.605   1.869
   99CLA    CLA  245   0.965   4.952   2.352
  100CLA    CLA  246   1.740   4.062   0.435
  101CLA    CLA  247   2.697   0.741   2.046
  102TIP3   OH2  248   3.281   0.369   2.244
  102TIP3    H1  249   3.276   0.273   2.250
  102TIP3    H2  250   3.198   0.396   2.288
  103TIP3   OH2  251   2.967   0.712   2.342
  103TIP3    H1  252   2.946   0.743   2.253
  103TIP3    H2  253   3.050   0.760   2.361
  104TIP3   OH2  254   3.278   0.056   2.258
  104TIP3    H1  255   3.183   0.073   2.247
  104TIP3    H2  256   3.299   0.028   2.167
  105TIP3   OH2  257   2.731   0.271   2.509
  105TIP3    H1  258   2.715   0.212   2.586
  105TIP3    H2  259   2.797   0.332   2.547
  106TIP3   OH2  260   3.093   0.499   2.036
  106TIP3    H1  261   3.068   0.440   1.962
  106TIP3    H2  262   3.173   0.455   2.069
  107TIP3   OH2  263   3.152   0.171   2.575
  107TIP3    H1  264   3.080   0.179   2.641
  107TIP3    H2  265   3.193   0.260   2.580
  108TIP3   OH2  266   3.191  -0.162   2.418
  108TIP3    H1  267   3.255  -0.234   2.405
  108TIP3    H2  268   3.217  -0.098   2.350
  109TIP3   OH2  269   3.367  -0.364   2.421
  109TIP3    H1  270   3.333  -0.445   2.465
  109TIP3    H2  271   3.462  -0.373   2.437
  110TIP3   OH2  272   2.521   0.626   2.346
  110TIP3    H1  273   2.568   0.597   2.267
  110TIP3    H2  274   2.593   0.665   2.398
  111TIP3   OH2  275   3.033   0.443   2.347
  111TIP3    H1  276   2.961   0.408   2.292
  111TIP3    H2  277   3.014   0.539   2.342
  112TIP3   OH2  278   4.239  -0.176   1.482
  112TIP3    H1  279   4.277  -0.197   1.570
  112TIP3    H2  280   4.195  -0.259   1.460
  113TIP3   OH2  281   4.503   0.130   1.199
  113TIP3    H1  282   4.525   0.071   1.273
  113TIP3    H2  283   4.539   0.214   1.233
  114TIP3   OH2  284   4.176   0.587   1.176
  114TIP3    H1  285   4.233   0.518   1.136
  114TIP3    H2  286   4.167   0.558   1.268
  115TIP3   OH2  287   4.097   0.058   1.540
  115TIP3    H1  288   4.126  -0.025   1.497
  115TIP3    H2  289   4.185   0.096   1.560
  116TIP3   OH2  290   3.938  -0.032   1.748
  116TIP3    H1  291   3.881   0.033   1.795
  116TIP3    H2  292   3.993   0.027   1.692
  117TIP3   OH2  293   3.770   0.162   1.849
  117TIP3    H1  294   3.753   0.253   1.816
  117TIP3    H2  295   3.694   0.155   1.912
  118TIP3   OH2  296   4.609   0.366   1.326
  118TIP3    H1  297   4.522   0.360   1.372
  118TIP3    H2  298   4.601   0.453   1.283
  119TIP3   OH2  299   4.311   0.406   1.020
  119TIP3    H1  300   4.370   0.332   1.002
  119TIP3    H2  301   4.355   0.478   0.967
  120TIP3   OH2  302   4.832   0.311   1.704
  120TIP3    H1  303   4.826   0.231   1.647
  120TIP3    H2  304   4.813   0.382   1.638
  121TIP3   OH2  305   4.723  -0.212   1.844
  121TIP3    H1  306   4.702  -0.127   1.888
  121TIP3    H2  307   4.665  -0.209   1.766
  122TIP3   OH2  308   3.888   0.206   1.438
  122TIP3    H1  309   3.834   0.126   1.433
  122TIP3    H2  310   3.974   0.168   1.465
  123TIP3   OH2  311   4.375   0.362   1.455
  123TIP3    H1  312   4.353   0.445   1.502
  123TIP3    H2  313   4.349   0.293   1.518
  124TIP3   OH2  314   3.977   0.277   1.999
  124TIP3    H1  315   3.919   0.342   2.045
  124TIP3    H2  316   3.911   0.228   1.947
  125TIP3   OH2  317   3.721  -0.152   2.083
  125TIP3    H1  318   3.735  -0.074   2.142
  125TIP3    H2  319   3.626  -0.161   2.086
  126TIP3   OH2  320   4.080   0.254   1.095
  126TIP3    H1  321   4.159   0.311   1.096
  126TIP3    H2  322   4.013   0.307   1.140
  127TIP3   OH2  323   3.777   0.447   2.088
  127TIP3    H1  324   3.744   0.449   1.996
  127TIP3    H2  325   3.695   0.425   2.139
  128TIP3   OH2  326   5.064   0.623   1.718
  128TIP3    H1  327   5.069   0.528   1.740
  128TIP3    H2  328   4.983   0.648   1.768
  129TIP3   OH2  329   4.178   0.408   1.860
  129TIP3    H1  330   4.174   0.502   1.891
  129TIP3    H2  331   4.104   0.369   1.910
  130TIP3   OH2  332   4.227   0.481   0.732
  130TIP3    H1  333   4.134   0.452   0.737
  130TIP3    H2  334   4.273   0.403   0.767
  131TIP3   OH2  335   4.962  -0.259   1.989
  131TIP3    H1  336   4.879  -0.235   1.942
  131TIP3    H2  337   4.966  -0.355   1.974
  132TIP3   OH2  338   3.569   0.182   2.034
  132TIP3    H1  339   3.610   0.143   2.114
  132TIP3    H2  340   3.506   0.115   2.003
  133TIP3   OH2  341   4.716  -0.474   1.932
  133TIP3    H1  342   4.701  -0.445   2.022
  133TIP3    H2  343   4.713  -0.390   1.883
  134TIP3   OH2  344   4.445  -0.220   2.138
  134TIP3    H1  345   4.419  -0.303   2.184
  134TIP3    H2  346   4.539  -0.216   2.163
  135TIP3   OH2  347   4.404  -0.250   1.708
  135TIP3    H1  348   4.476  -0.299   1.665
  135TIP3    H2  349   4.396  -0.299   1.792
  136TIP3   OH2  350   4.763   0.972   1.822
  136TIP3    H1  351   4.759   0.998   1.729
  136TIP3    H2  352   4.842   1.020   1.853
  137TIP3   OH2  353   3.720   0.073   2.248
  137TIP3    H1  354   3.800   0.108   2.293
  137TIP3    H2  355   3.655   0.081   2.320
  138TIP3   OH2  356   4.147  -0.587   1.855
  138TIP3    H1  357   4.101  -0.564   1.774
  138TIP3    H2  358   4.216  -0.519   1.861
  139TIP3   OH2  359   4.803   0.105   1.536
  139TIP3    H1  360   4.843   0.154   1.460
  139TIP3    H2  361   4.711   0.091   1.505
  140TIP3   OH2  362   4.293   0.148   1.879
  140TIP3    H1  363   4.316   0.121   1.969
  140TIP3    H2  364   4.256   0.237   1.891
  141TIP3   OH2  365   4.196  -0.114   2.193
  141TIP3    H1  366   4.140  -0.161   2.128
  141TIP3    H2  367   4.285  -0.141   2.164
  142TIP3   OH2  368   4.454   0.399   1.779
  142TIP3    H1  369   4.357   0.401   1.791
  142TIP3    H2  370   4.482   0.454   1.855
  143TIP3   OH2  371   5.089   0.342   1.775
  143TIP3    H1  372   4.990   0.337   1.768
  143TIP3    H2  373   5.116   0.312   1.685
  144TIP3   OH2  374   4.571  -0.007   1.444
  144TIP3    H1  375   4.486  -0.033   1.483
  144TIP3    H2  376   4.612  -0.094   1.430
  145TIP3   OH2  377   3.965   0.501   1.658
  145TIP3    H1  378   4.002   0.570   1.600
  145TIP3    H2  379   4.044   0.467   1.702
  146TIP3   OH2  380   4.351   0.128   1.616
  146TIP3    H1  381   4.326   0.127   1.711
  146TIP3    H2  382   4.447   0.118   1.623
  147TIP3   OH2  383   4.594   0.661   1.657
  147TIP3    H1  384   4.512   0.608   1.650
  147TIP3    H2  385   4.579   0.727   1.586
  148TIP3   OH2  386   3.431   0.381   1.798
  148TIP3    H1  387   3.468   0.295   1.824
  148TIP3    H2  388   3.441   0.433   1.879
  149TIP3   OH2  389   4.379  -0.415   1.928
  149TIP3    H1  390   4.361  -0.347   1.996
  149TIP3    H2  391   4.419  -0.483   1.985
  150TIP3   OH2  392   4.617   0.633   1.250
  150TIP3    H1  393   4.575   0.683   1.176
  150TIP3    H2  394   4.711   0.652   1.231
  151TIP3   OH2  395   3.390   0.671   2.234
  151TIP3    H1  396   3.477   0.670   2.280
  151TIP3    H2  397   3.370   0.576   2.230
  152TIP3   OH2  398   3.867   0.627   2.280
  152TIP3    H1  399   3.962   0.608   2.283
  152TIP3    H2  400   3.840   0.568   2.207
  153TIP3   OH2  401   4.508   0.537   2.011
  153TIP3    H1  402   4.500   0.468   2.080
  153TIP3    H2  403   4.584   0.589   2.042
  154TIP3   OH2  404   3.511   0.069   2.429
  154TIP3    H1  405   3.529  -0.026   2.438
  154TIP3    H2  406   3.424   0.069   2.384
  155TIP3   OH2  407   4.124   0.160   2.207
  155TIP3    H1  408   4.082   0.178   2.120
  155TIP3    H2  409   4.154   0.067   2.198
  156TIP3   OH2  410   4.614   0.170   1.804
  156TIP3    H1  411   4.689   0.226   1.778
  156TIP3    H2  412   4.541   0.236   1.803
  157TIP3   OH2  413   3.634  -0.200   2.424
  157TIP3    H1  414   3.717  -0.235   2.389
  157TIP3    H2  415   3.664  -0.161   2.508
  158TIP3   OH2  416   3.963  -0.282   2.070
  158TIP3    H1  417   3.879  -0.233   2.067
  158TIP3    H2  418   4.011  -0.250   1.991
  159TIP3   OH2  419   4.492   0.095   2.210
  159TIP3    H1  420   4.565   0.061   2.158
  159TIP3    H2  421   4.481   0.027   2.278
  160TIP3   OH2  422   4.058  -0.495   2.197
  160TIP3    H1  423   4.007  -0.543   2.131
  160TIP3    H2  424   4.037  -0.404   2.164
  161TIP3   OH2  425   4.133  -0.176   1.890
  161TIP3    H1  426   4.194  -0.205   1.821
  161TIP3    H2  427   4.071  -0.122   1.839
  162TIP3   OH2  428   4.699  -0.230   2.241
  162TIP3    H1  429   4.731  -0.288   2.314
  162TIP3    H2  430   4.777  -0.177   2.222
  163TIP3   OH2  431   4.748   0.033   1.998
  163TIP3    H1  432   4.691   0.084   1.936
  163TIP3    H2  433   4.836   0.048   1.957
  164TIP3   OH2  434   3.939  -0.375   2.430
  164TIP3    H1  435   3.899  -0.455   2.464
  164TIP3    H2  436   4.000  -0.410   2.362
  165TIP3   OH2  437   4.342  -0.450   2.229
  165TIP3    H1  438   4.373  -0.481   2.316
  165TIP3    H2  439   4.246  -0.464   2.238
  166TIP3   OH2  440   4.878   0.718   1.221
  166TIP3    H1  441   4.893   0.750   1.312
  166TIP3    H2  442   4.916   0.791   1.169
  167TIP3   OH2  443   4.903   0.747   1.498
  167TIP3    H1  444   4.856   0.661   1.494
  167TIP3    H2  445   4.970   0.725   1.565
  168TIP3   OH2  446   4.945   0.424   2.069
  168TIP3    H1  447   4.873   0.434   2.134
  168TIP3    H2  448   4.987   0.512   2.072
  169TIP3   OH2  449   4.956   0.226   1.349
  169TIP3    H1  450   5.021   0.185   1.289
  169TIP3    H2  451   4.936   0.307   1.298
  170TIP3   OH2  452   4.771   0.502   1.513
  170TIP3    H1  453   4.699   0.547   1.563
  170TIP3    H2  454   4.720   0.454   1.444
  171TIP3   OH2  455   5.001   0.080   1.891
  171TIP3    H1  456   5.074   0.015   1.883
  171TIP3    H2  457   5.030   0.150   1.830
  172TIP3   OH2  458   5.188  -0.126   1.920
  172TIP3    H1  459   5.113  -0.179   1.953
  172TIP3    H2  460   5.263  -0.186   1.930
  173TIP3   OH2  461   3.560  -0.584   2.484
  173TIP3    H1  462   3.625  -0.603   2.414
  173TIP3    H2  463   3.602  -0.620   2.563
  174TIP3   OH2  464   4.464   0.588   0.889
  174TIP3    H1  465   4.540   0.542   0.848
  174TIP3    H2  466   4.503   0.669   0.925
  175TIP3   OH2  467   3.558   0.404   2.258
  175TIP3    H1  468   3.467   0.378   2.236
  175TIP3    H2  469   3.561   0.388   2.353
  176TIP3   OH2  470   3.742   0.430   1.805
  176TIP3    H1  471   3.680   0.494   1.765
  176TIP3    H2  472   3.823   0.457   1.758
  177TIP3   OH2  473   4.174   0.673   1.938
  177TIP3    H1  474   4.216   0.675   2.027
  177TIP3    H2  475   4.238   0.726   1.886
  178TIP3   OH2  476   4.353   0.827   1.800
  178TIP3    H1  477   4.425   0.779   1.756
  178TIP3    H2  478   4.405   0.885   1.861
  179TIP3   OH2  479   3.424   0.700   1.823
  179TIP3    H1  480   3.331   0.721   1.798
  179TIP3    H2  481   3.423   0.733   1.914
  180TIP3   OH2  482   3.654   0.663   1.681
  180TIP3    H1  483   3.567   0.678   1.725
  180TIP3    H2  484   3.637   0.699   1.592
  181TIP3   OH2  485   4.074   0.688   1.479
  181TIP3    H1  486   3.999   0.702   1.416
  181TIP3    H2  487   4.083   0.778   1.516
  182TIP3   OH2  488   4.340   0.632   1.530
  182TIP3    H1  489   4.244   0.648   1.515
  182TIP3    H2  490   4.379   0.709   1.488
  183TIP3   OH2  491   4.548   0.827   1.443
  183TIP3    H1  492   4.531   0.913   1.398
  183TIP3    H2  493   4.569   0.769   1.367
  184TIP3   OH2  494   3.366   0.496   1.556
  184TIP3    H1  495   3.383   0.466   1.648
  184TIP3    H2  496   3.339   0.413   1.514
  185TIP3   OH2  497   3.814   0.466   1.422
  185TIP3    H1  498   3.841   0.372   1.413
  185TIP3    H2  499   3.843   0.484   1.513
  186TIP3   OH2  500   4.821   0.703   1.822
  186TIP3    H1  501   4.742   0.672   1.774
  186TIP3    H2  502   4.802   0.799   1.828
  187TIP3   OH2  503   5.537   0.420   1.303
  187TIP3    H1  504   5.529   0.517   1.298
  187TIP3    H2  505   5.478   0.401   1.378
  188TIP3   OH2  506   5.754   0.527   1.487
  188TIP3    H1  507   5.695   0.596   1.523
  188TIP3    H2  508   5.691   0.460   1.456
  189TIP3   OH2  509   5.560   0.713   1.573
  189TIP3    H1  510   5.526   0.711   1.481
  189TIP3    H2  511   5.480   0.690   1.626
  190TIP3   OH2  512   5.158   0.248   1.533
  190TIP3    H1  513   5.083   0.226   1.474
  190TIP3    H2  514   5.185   0.160   1.568
  191TIP3   OH2  515   4.992   0.437   1.178
  191TIP3    H1  516   5.089   0.440   1.173
  191TIP3    H2  517   4.972   0.522   1.220
  192TIP3   OH2  518   5.932   0.722   1.305
  192TIP3    H1  519   5.955   0.808   1.346
  192TIP3    H2  520   5.952   0.663   1.380
  193TIP3   OH2  521   5.353   0.432   1.504
  193TIP3    H1  522   5.409   0.419   1.585
  193TIP3    H2  523   5.286   0.362   1.517
  194TIP3   OH2  524   6.543   1.244   1.330
  194TIP3    H1  525   6.531   1.248   1.234
  194TIP3    H2  526   6.636   1.272   1.340
  195TIP3   OH2  527   5.497   0.380   1.732
  195TIP3    H1  528   5.587   0.377   1.768
  195TIP3    H2  529   5.444   0.358   1.810
  196TIP3   OH2  530   5.231   0.034   1.679
  196TIP3    H1  531   5.295   0.050   1.751
  196TIP3    H2  532   5.216  -0.061   1.686
  197TIP3   OH2  533   5.722   0.792   1.153
  197TIP3    H1  534   5.759   0.846   1.080
  197TIP3    H2  535   5.802   0.777   1.208
  198TIP3   OH2  536   5.207   0.599   1.306
  198TIP3    H1  537   5.254   0.530   1.356
  198TIP3    H2  538   5.228   0.675   1.361
  199TIP3   OH2  539   5.175   0.914   1.727
  199TIP3    H1  540   5.265   0.919   1.763
  199TIP3    H2  541   5.162   0.818   1.726
  200TIP3   OH2  542   5.663   0.883   1.766
  200TIP3    H1  543   5.758   0.865   1.769
  200TIP3    H2  544   5.636   0.826   1.691
  201TIP3   OH2  545   6.263   0.825   1.510
  201TIP3    H1  546   6.262   0.741   1.560
  201TIP3    H2  547   6.357   0.842   1.504
  202TIP3   OH2  548   5.309   0.342   1.934
  202TIP3    H1  549   5.332   0.246   1.929
  202TIP3    H2  550   5.224   0.343   1.885
  203TIP3   OH2  551   5.913   0.419   1.710
  203TIP3    H1  552   5.900   0.458   1.621
  203TIP3    H2  553   5.932   0.327   1.687
  204TIP3   OH2  554   5.405   0.089   1.910
  204TIP3    H1  555   5.425  -0.006   1.901
  204TIP3    H2  556   5.451   0.112   1.993
  205TIP3   OH2  557   4.768   0.724   0.774
  205TIP3    H1  558   4.732   0.665   0.706
  205TIP3    H2  559   4.799   0.661   0.842
  206TIP3   OH2  560   4.903   0.583   0.958
  206TIP3    H1  561   4.898   0.496   1.000
  206TIP3    H2  562   4.932   0.637   1.033
  207TIP3   OH2  563   5.342   0.669   1.739
  207TIP3    H1  564   5.255   0.627   1.723
  207TIP3    H2  565   5.366   0.632   1.825
  208TIP3   OH2  566   5.515   0.695   1.292
  208TIP3    H1  567   5.468   0.769   1.250
  208TIP3    H2  568   5.602   0.714   1.251
  209TIP3   OH2  569   5.966   0.959   1.439
  209TIP3    H1  570   6.012   0.945   1.525
  209TIP3    H2  571   6.035   1.008   1.389
  210TIP3   OH2  572   6.132   1.109   1.281
  210TIP3    H1  573   6.204   1.061   1.235
  210TIP3    H2  574   6.185   1.160   1.347
  211TIP3   OH2  575   5.206   0.980   1.322
  211TIP3    H1  576   5.112   0.998   1.299
  211TIP3    H2  577   5.196   0.940   1.409
  212TIP3   OH2  578   5.431   0.927   1.171
  212TIP3    H1  579   5.347   0.953   1.214
  212TIP3    H2  580   5.419   0.960   1.080
  213TIP3   OH2  581   5.831   0.947   0.952
  213TIP3    H1  582   5.780   1.003   0.891
  213TIP3    H2  583   5.876   1.014   1.007
  214TIP3   OH2  584   5.125   0.748   1.076
  214TIP3    H1  585   5.159   0.702   1.155
  214TIP3    H2  586   5.170   0.703   1.004
  215TIP3   OH2  587   0.823   2.248   2.482
  215TIP3    H1  588   0.790   2.295   2.404
  215TIP3    H2  589   0.894   2.308   2.513
  216TIP3   OH2  590   1.022   1.723   2.760
  216TIP3    H1  591   0.968   1.725   2.842
  216TIP3    H2  592   1.061   1.813   2.763
  217TIP3   OH2  593   2.325   1.688   1.412
  217TIP3    H1  594   2.377   1.653   1.338
  217TIP3    H2  595   2.362   1.779   1.415
  218TIP3   OH2  596   2.023   2.110   1.324
  218TIP3    H1  597   2.094   2.054   1.289
  218TIP3    H2  598   2.041   2.113   1.419
  219TIP3   OH2  599   2.992   0.950   1.712
  219TIP3    H1  600   3.000   1.036   1.756
  219TIP3    H2  601   3.027   0.968   1.623
  220TIP3   OH2  602   3.034   1.171   1.864
  220TIP3    H1  603   2.945   1.208   1.845
  220TIP3    H2  604   3.043   1.192   1.959
  221TIP3   OH2  605   2.443   1.929   1.480
  221TIP3    H1  606   2.356   1.931   1.526
  221TIP3    H2  607   2.444   2.018   1.438
  222TIP3   OH2  608   2.672   1.842   1.832
  222TIP3    H1  609   2.666   1.764   1.772
  222TIP3    H2  610   2.656   1.916   1.770
  223TIP3   OH2  611   2.869   1.476   1.674
  223TIP3    H1  612   2.785   1.527   1.679
  223TIP3    H2  613   2.900   1.502   1.584
  224TIP3   OH2  614   2.574   1.353   1.986
  224TIP3    H1  615   2.566   1.439   2.031
  224TIP3    H2  616   2.486   1.348   1.941
  225TIP3   OH2  617   2.209   1.919   1.611
  225TIP3    H1  618   2.194   2.012   1.637
  225TIP3    H2  619   2.212   1.876   1.698
  226TIP3   OH2  620   1.828   1.840   2.162
  226TIP3    H1  621   1.758   1.896   2.201
  226TIP3    H2  622   1.779   1.795   2.091
  227TIP3   OH2  623   1.614   2.009   2.251
  227TIP3    H1  624   1.605   2.013   2.152
  227TIP3    H2  625   1.521   1.997   2.277
  228TIP3   OH2  626   2.913   2.184   1.874
  228TIP3    H1  627   2.911   2.087   1.890
  228TIP3    H2  628   2.829   2.210   1.919
  229TIP3   OH2  629   2.010   1.979   1.995
  229TIP3    H1  630   2.012   2.069   2.033
  229TIP3    H2  631   1.950   1.934   2.057
  230TIP3   OH2  632   2.799   1.310   2.150
  230TIP3    H1  633   2.723   1.328   2.091
  230TIP3    H2  634   2.816   1.216   2.130
  231TIP3   OH2  635   2.563   1.077   2.037
  231TIP3    H1  636   2.514   1.068   2.121
  231TIP3    H2  637   2.558   1.172   2.018
  232TIP3   OH2  638   2.289   1.314   2.308
  232TIP3    H1  639   2.278   1.280   2.398
  232TIP3    H2  640   2.380   1.348   2.313
  233TIP3   OH2  641   2.324   1.308   1.891
  233TIP3    H1  642   2.286   1.270   1.810
  233TIP3    H2  643   2.257   1.282   1.956
  234TIP3   OH2  644   2.606   2.530   1.973
  234TIP3    H1  645   2.602   2.558   1.880
  234TIP3    H2  646   2.683   2.581   2.005
  235TIP3   OH2  647   1.585   1.628   2.398
  235TIP3    H1  648   1.651   1.667   2.457
  235TIP3    H2  649   1.503   1.640   2.447
  236TIP3   OH2  650   2.641   1.630   1.661
  236TIP3    H1  651   2.669   1.677   1.579
  236TIP3    H2  652   2.554   1.596   1.638
  237TIP3   OH2  653   2.162   1.709   2.029
  237TIP3    H1  654   2.169   1.695   2.125
  237TIP3    H2  655   2.071   1.738   2.018
  238TIP3   OH2  656   2.031   1.430   2.339
  238TIP3    H1  657   1.976   1.409   2.263
  238TIP3    H2  658   2.121   1.411   2.306
  239TIP3   OH2  659   2.289   1.976   1.913
  239TIP3    H1  660   2.195   1.965   1.937
  239TIP3    H2  661   2.322   2.020   1.995
  240TIP3   OH2  662   2.925   1.891   1.916
  240TIP3    H1  663   2.827   1.888   1.909
  240TIP3    H2  664   2.950   1.862   1.826
  241TIP3   OH2  665   2.323   1.466   1.604
  241TIP3    H1  666   2.272   1.400   1.653
  241TIP3    H2  667   2.405   1.414   1.587
  242TIP3   OH2  668   1.820   2.048   1.794
  242TIP3    H1  669   1.856   2.126   1.747
  242TIP3    H2  670   1.894   2.025   1.853
  243TIP3   OH2  671   2.248   1.683   1.769
  243TIP3    H1  672   2.185   1.693   1.844
  243TIP3    H2  673   2.324   1.652   1.821
  244TIP3   OH2  674   2.437   2.217   1.811
  244TIP3    H1  675   2.360   2.157   1.809
  244TIP3    H2  676   2.416   2.280   1.738
  245TIP3   OH2  677   2.203   1.162   2.101
  245TIP3    H1  678   2.235   1.225   2.168
  245TIP3    H2  679   2.273   1.094   2.105
  246TIP3   OH2  680   2.838   1.053   2.062
  246TIP3    H1  681   2.743   1.031   2.064
  246TIP3    H2  682   2.862   1.008   1.980
  247TIP3   OH2  683   2.463   2.190   1.409
  247TIP3    H1  684   2.422   2.234   1.330
  247TIP3    H2  685   2.557   2.210   1.390
  248TIP3   OH2  686   1.238   2.240   2.381
  248TIP3    H1  687   1.321   2.247   2.433
  248TIP3    H2  688   1.228   2.144   2.377
  249TIP3   OH2  689   1.708   2.186   2.437
  249TIP3    H1  690   1.804   2.177   2.436
  249TIP3    H2  691   1.682   2.126   2.364
  250TIP3   OH2  692   2.353   2.089   2.156
  250TIP3    H1  693   2.345   2.022   2.228
  250TIP3    H2  694   2.426   2.145   2.189
  251TIP3   OH2  695   1.368   1.630   2.593
  251TIP3    H1  696   1.405   1.540   2.582
  251TIP3    H2  697   1.276   1.613   2.568
  252TIP3   OH2  698   1.969   1.721   2.363
  252TIP3    H1  699   1.920   1.748   2.282
  252TIP3    H2  700   1.992   1.628   2.345
  253TIP3   OH2  701   2.456   1.712   1.956
  253TIP3    H1  702   2.522   1.774   1.919
  253TIP3    H2  703   2.378   1.770   1.966
  254TIP3   OH2  704   1.478   1.373   2.585
  254TIP3    H1  705   1.550   1.324   2.543
  254TIP3    H2  706   1.517   1.401   2.671
  255TIP3   OH2  707   2.318   1.638   2.358
  255TIP3    H1  708   2.405   1.641   2.316
  255TIP3    H2  709   2.334   1.587   2.439
  256TIP3   OH2  710   2.555   1.327   2.411
  256TIP3    H1  711   2.617   1.254   2.418
  256TIP3    H2  712   2.613   1.396   2.374
  257TIP3   OH2  713   2.589   1.582   2.150
  257TIP3    H1  714   2.531   1.632   2.087
  257TIP3    H2  715   2.677   1.603   2.111
  258TIP3   OH2  716   1.832   1.126   2.598
  258TIP3    H1  717   1.753   1.127   2.655
  258TIP3    H2  718   1.806   1.060   2.530
  259TIP3   OH2  719   2.213   1.083   2.468
  259TIP3    H1  720   2.158   1.124   2.537
  259TIP3    H2  721   2.147   1.075   2.397
  260TIP3   OH2  722   2.426   1.043   2.270
  260TIP3    H1  723   2.370   1.088   2.333
  260TIP3    H2  724   2.499   1.009   2.326
  261TIP3   OH2  725   2.587   0.964   2.475
  261TIP3    H1  726   2.644   0.884   2.468
  261TIP3    H2  727   2.637   1.017   2.541
  262TIP3   OH2  728   2.233   0.807   2.605
  262TIP3    H1  729   2.218   0.713   2.577
  262TIP3    H2  730   2.150   0.831   2.651
  263TIP3   OH2  731   2.715   2.277   1.367
  263TIP3    H1  732   2.739   2.318   1.452
  263TIP3    H2  733   2.769   2.328   1.304
  264TIP3   OH2  734   2.739   2.307   1.647
  264TIP3    H1  735   2.696   2.219   1.642
  264TIP3    H2  736   2.814   2.286   1.704
  265TIP3   OH2  737   2.786   1.981   2.217
  265TIP3    H1  738   2.714   1.991   2.282
  265TIP3    H2  739   2.828   2.070   2.220
  266TIP3   OH2  740   2.770   1.755   1.459
  266TIP3    H1  741   2.836   1.693   1.423
  266TIP3    H2  742   2.782   1.834   1.401
  267TIP3   OH2  743   2.615   2.055   1.668
  267TIP3    H1  744   2.545   2.102   1.719
  267TIP3    H2  745   2.563   2.012   1.597
  268TIP3   OH2  746   2.832   1.645   2.044
  268TIP3    H1  747   2.903   1.578   2.032
  268TIP3    H2  748   2.858   1.715   1.982
  269TIP3   OH2  749   3.014   1.446   2.056
  269TIP3    H1  750   2.940   1.397   2.098
  269TIP3    H2  751   3.089   1.387   2.078
  270TIP3   OH2  752   2.750   1.077   1.585
  270TIP3    H1  753   2.822   1.128   1.542
  270TIP3    H2  754   2.740   1.128   1.667
  271TIP3   OH2  755   2.776   1.256   1.807
  271TIP3    H1  756   2.698   1.289   1.854
  271TIP3    H2  757   2.802   1.335   1.755
  272TIP3   OH2  758   3.219   0.845   2.361
  272TIP3    H1  759   3.280   0.782   2.318
  272TIP3    H2  760   3.192   0.901   2.285
  273TIP3   OH2  761   3.091   0.992   2.169
  273TIP3    H1  762   3.001   1.028   2.176
  273TIP3    H2  763   3.072   0.913   2.114
  274TIP3   OH2  764   2.265   2.178   0.994
  274TIP3    H1  765   2.327   2.158   0.923
  274TIP3    H2  766   2.318   2.230   1.057
  275TIP3   OH2  767   1.354   1.958   2.404
  275TIP3    H1  768   1.376   1.877   2.356
  275TIP3    H2  769   1.396   1.946   2.490
  276TIP3   OH2  770   1.606   1.994   1.982
  276TIP3    H1  771   1.518   1.999   1.942
  276TIP3    H2  772   1.664   2.026   1.910
  277TIP3   OH2  773   2.015   2.237   2.088
  277TIP3    H1  774   2.056   2.237   2.177
  277TIP3    H2  775   2.081   2.289   2.037
  278TIP3   OH2  776   2.198   2.384   1.947
  278TIP3    H1  777   2.273   2.334   1.912
  278TIP3    H2  778   2.245   2.445   2.009
  279TIP3   OH2  779   3.009   0.759   2.057
  279TIP3    H1  780   2.911   0.754   2.050
  279TIP3    H2  781   3.034   0.663   2.052
  280TIP3   OH2  782   1.280   2.275   1.975
  280TIP3    H1  783   1.213   2.244   1.913
  280TIP3    H2  784   1.240   2.267   2.062
  281TIP3   OH2  785   1.488   2.247   1.804
  281TIP3    H1  786   1.433   2.258   1.885
  281TIP3    H2  787   1.418   2.226   1.742
  282TIP3   OH2  788   1.920   2.257   1.627
  282TIP3    H1  789   1.846   2.276   1.566
  282TIP3    H2  790   1.929   2.343   1.673
  283TIP3   OH2  791   2.183   2.185   1.662
  283TIP3    H1  792   2.089   2.211   1.657
  283TIP3    H2  793   2.228   2.268   1.637
  284TIP3   OH2  794   2.382   2.381   1.596
  284TIP3    H1  795   2.370   2.467   1.551
  284TIP3    H2  796   2.412   2.324   1.522
  285TIP3   OH2  797   2.735   0.732   2.491
  285TIP3    H1  798   2.754   0.692   2.579
  285TIP3    H2  799   2.818   0.713   2.443
  286TIP3   OH2  800   2.665   2.262   1.972
  286TIP3    H1  801   2.586   2.232   1.923
  286TIP3    H2  802   2.647   2.358   1.978
  287TIP3   OH2  803   3.930   1.640   0.737
  287TIP3    H1  804   3.901   1.730   0.712
  287TIP3    H2  805   3.857   1.586   0.703
  288TIP3   OH2  806   3.929   1.639   1.124
  288TIP3    H1  807   3.967   1.606   1.208
  288TIP3    H2  808   3.897   1.556   1.085
  289TIP3   OH2  809   3.228   1.528   1.491
  289TIP3    H1  810   3.260   1.459   1.553
  289TIP3    H2  811   3.309   1.579   1.477
  290TIP3   OH2  812   4.189   1.937   0.802
  290TIP3    H1  813   4.157   1.874   0.867
  290TIP3    H2  814   4.196   2.019   0.853
  291TIP3   OH2  815   3.204   1.939   1.209
  291TIP3    H1  816   3.196   1.841   1.211
  291TIP3    H2  817   3.300   1.949   1.200
  292TIP3   OH2  818   2.994   1.461   1.177
  292TIP3    H1  819   3.055   1.391   1.208
  292TIP3    H2  820   3.053   1.521   1.130
  293TIP3   OH2  821   3.727   1.859   1.168
  293TIP3    H1  822   3.769   1.781   1.127
  293TIP3    H2  823   3.809   1.906   1.194
  294TIP3   OH2  824   4.754   1.185   1.167
  294TIP3    H1  825   4.774   1.272   1.206
  294TIP3    H2  826   4.741   1.211   1.074
  295TIP3   OH2  827   3.460   1.008   1.187
  295TIP3    H1  828   3.472   1.054   1.102
  295TIP3    H2  829   3.408   0.931   1.160
  296TIP3   OH2  830   4.176   1.115   0.788
  296TIP3    H1  831   4.248   1.099   0.853
  296TIP3    H2  832   4.227   1.155   0.715
  297TIP3   OH2  833   3.121   1.238   1.267
  297TIP3    H1  834   3.205   1.213   1.308
  297TIP3    H2  835   3.097   1.154   1.221
  298TIP3   OH2  836   3.567   1.440   1.074
  298TIP3    H1  837   3.661   1.414   1.086
  298TIP3    H2  838   3.528   1.357   1.039
  299TIP3   OH2  839   4.824   1.400   1.341
  299TIP3    H1  840   4.745   1.454   1.317
  299TIP3    H2  841   4.794   1.369   1.427
  300TIP3   OH2  842   3.474   1.012   1.605
  300TIP3    H1  843   3.419   1.057   1.539
  300TIP3    H2  844   3.422   1.028   1.686
  301TIP3   OH2  845   3.829   1.864   0.603
  301TIP3    H1  846   3.789   1.856   0.516
  301TIP3    H2  847   3.792   1.950   0.634
  302TIP3   OH2  848   3.582   1.781   1.391
  302TIP3    H1  849   3.523   1.851   1.427
  302TIP3    H2  850   3.626   1.828   1.318
  303TIP3   OH2  851   4.377   1.109   0.965
  303TIP3    H1  852   4.360   1.041   1.031
  303TIP3    H2  853   4.396   1.186   1.023
  304TIP3   OH2  854   3.346   1.136   1.393
  304TIP3    H1  855   3.410   1.208   1.413
  304TIP3    H2  856   3.396   1.087   1.324
  305TIP3   OH2  857   3.413   1.978   1.491
  305TIP3    H1  858   3.388   2.065   1.454
  305TIP3    H2  859   3.334   1.961   1.547
  306TIP3   OH2  860   4.253   2.180   0.966
  306TIP3    H1  861   4.166   2.168   1.012
  306TIP3    H2  862   4.234   2.263   0.919
  307TIP3   OH2  863   4.549   1.086   1.333
  307TIP3    H1  864   4.475   1.147   1.309
  307TIP3    H2  865   4.609   1.107   1.259
  308TIP3   OH2  866   3.845   0.725   1.327
  308TIP3    H1  867   3.818   0.632   1.338
  308TIP3    H2  868   3.766   0.770   1.364
  309TIP3   OH2  869   4.122   1.972   0.511
  309TIP3    H1  870   4.031   1.940   0.521
  309TIP3    H2  871   4.145   1.986   0.605
  310TIP3   OH2  872   4.472   2.091   1.312
  310TIP3    H1  873   4.455   2.014   1.253
  310TIP3    H2  874   4.449   2.166   1.253
  311TIP3   OH2  875   3.768   1.483   0.566
  311TIP3    H1  876   3.689   1.535   0.542
  311TIP3    H2  877   3.812   1.470   0.480
  312TIP3   OH2  878   4.672   1.744   1.146
  312TIP3    H1  879   4.584   1.785   1.163
  312TIP3    H2  880   4.683   1.764   1.051
  313TIP3   OH2  881   4.118   1.573   0.552
  313TIP3    H1  882   4.058   1.600   0.626
  313TIP3    H2  883   4.197   1.545   0.602
  314TIP3   OH2  884   4.325   1.606   1.470
  314TIP3    H1  885   4.328   1.696   1.507
  314TIP3    H2  886   4.252   1.613   1.407
  315TIP3   OH2  887   3.347   1.566   0.958
  315TIP3    H1  888   3.325   1.510   0.882
  315TIP3    H2  889   3.426   1.521   0.995
  316TIP3   OH2  890   3.469   1.974   1.108
  316TIP3    H1  891   3.454   1.944   1.017
  316TIP3    H2  892   3.560   1.941   1.125
  317TIP3   OH2  893   3.470   1.545   1.312
  317TIP3    H1  894   3.513   1.518   1.228
  317TIP3    H2  895   3.518   1.628   1.334
  318TIP3   OH2  896   4.024   2.171   1.101
  318TIP3    H1  897   3.988   2.253   1.141
  318TIP3    H2  898   3.992   2.101   1.161
  319TIP3   OH2  899   3.617   2.093   1.639
  319TIP3    H1  900   3.556   2.156   1.683
  319TIP3    H2  901   3.552   2.041   1.587
  320TIP3   OH2  902   3.972   1.423   0.374
  320TIP3    H1  903   4.025   1.488   0.425
  320TIP3    H2  904   3.991   1.449   0.282
  321TIP3   OH2  905   3.372   1.649   1.742
  321TIP3    H1  906   3.376   1.738   1.782
  321TIP3    H2  907   3.277   1.630   1.752
  322TIP3   OH2  908   3.723   2.116   0.650
  322TIP3    H1  909   3.791   2.183   0.671
  322TIP3    H2  910   3.659   2.168   0.600
  323TIP3   OH2  911   3.411   2.260   1.724
  323TIP3    H1  912   3.376   2.263   1.633
  323TIP3    H2  913   3.330   2.239   1.776
  324TIP3   OH2  914   4.260   2.040  -0.051
  324TIP3    H1  915   4.272   2.137  -0.057
  324TIP3    H2  916   4.351   2.010  -0.041
  325TIP3   OH2  917   2.990   1.791   1.673
  325TIP3    H1  918   2.931   1.764   1.600
  325TIP3    H2  919   3.030   1.706   1.701
  326TIP3   OH2  920   2.846   1.981   1.306
  326TIP3    H1  921   2.943   1.986   1.298
  326TIP3    H2  922   2.827   2.063   1.355
  327TIP3   OH2  923   4.708   2.441   1.360
  327TIP3    H1  924   4.706   2.344   1.375
  327TIP3    H2  925   4.624   2.466   1.405
  328TIP3   OH2  926   3.815   2.222   1.495
  328TIP3    H1  927   3.811   2.315   1.526
  328TIP3    H2  928   3.743   2.182   1.549
  329TIP3   OH2  929   3.576   2.349   0.444
  329TIP3    H1  930   3.538   2.338   0.355
  329TIP3    H2  931   3.547   2.439   0.469
  330TIP3   OH2  932   3.022   2.218   0.830
  330TIP3    H1  933   3.064   2.200   0.917
  330TIP3    H2  934   2.967   2.138   0.818
  331TIP3   OH2  935   3.769   2.251   0.103
  331TIP3    H1  936   3.827   2.193   0.049
  331TIP3    H2  937   3.815   2.253   0.189
  332TIP3   OH2  938   3.842   2.311   0.372
  332TIP3    H1  939   3.751   2.310   0.409
  332TIP3    H2  940   3.894   2.306   0.455
  333TIP3   OH2  941   4.598   1.571   1.636
  333TIP3    H1  942   4.528   1.587   1.570
  333TIP3    H2  943   4.606   1.474   1.627
  334TIP3   OH2  944   3.194   1.976   1.655
  334TIP3    H1  945   3.243   1.962   1.738
  334TIP3    H2  946   3.119   1.913   1.664
  335TIP3   OH2  947   3.616   0.821   1.456
  335TIP3    H1  948   3.553   0.767   1.404
  335TIP3    H2  949   3.557   0.884   1.500
  336TIP3   OH2  950   4.127   0.913   1.630
  336TIP3    H1  951   4.194   0.889   1.698
  336TIP3    H2  952   4.042   0.896   1.677
  337TIP3   OH2  953   4.386   1.353   1.574
  337TIP3    H1  954   4.319   1.344   1.645
  337TIP3    H2  955   4.352   1.428   1.522
  338TIP3   OH2  956   4.044   1.477   0.111
  338TIP3    H1  957   4.016   1.481   0.020
  338TIP3    H2  958   4.115   1.542   0.113
  339TIP3   OH2  959   3.528   1.325   1.464
  339TIP3    H1  960   3.480   1.344   1.547
  339TIP3    H2  961   3.509   1.406   1.412
  340TIP3   OH2  962   3.414   1.238   0.957
  340TIP3    H1  963   3.357   1.165   0.985
  340TIP3    H2  964   3.474   1.187   0.900
  341TIP3   OH2  965   3.901   1.283   0.699
  341TIP3    H1  966   3.852   1.357   0.656
  341TIP3    H2  967   3.952   1.246   0.625
  342TIP3   OH2  968   4.072   1.568   1.796
  342TIP3    H1  969   4.050   1.491   1.854
  342TIP3    H2  970   4.169   1.569   1.806
  343TIP3   OH2  971   4.044   1.323   0.934
  343TIP3    H1  972   3.988   1.332   0.855
  343TIP3    H2  973   4.089   1.240   0.911
  344TIP3   OH2  974   3.343   1.345   1.672
  344TIP3    H1  975   3.375   1.407   1.739
  344TIP3    H2  976   3.331   1.263   1.724
  345TIP3   OH2  977   4.066   1.541   1.345
  345TIP3    H1  978   4.122   1.470   1.308
  345TIP3    H2  979   4.035   1.498   1.428
  346TIP3   OH2  980   3.729   1.027   1.039
  346TIP3    H1  981   3.675   1.015   1.118
  346TIP3    H2  982   3.817   1.008   1.080
  347TIP3   OH2  983   4.401   2.787   1.459
  347TIP3    H1  984   4.397   2.813   1.365
  347TIP3    H2  985   4.479   2.838   1.490
  348TIP3   OH2  986   3.355   1.898   1.878
  348TIP3    H1  987   3.434   1.929   1.925
  348TIP3    H2  988   3.290   1.899   1.951
  349TIP3   OH2  989   3.827   1.355   1.134
  349TIP3    H1  990   3.904   1.324   1.082
  349TIP3    H2  991   3.833   1.300   1.214
  350TIP3   OH2  992   3.794   1.251   1.424
  350TIP3    H1  993   3.705   1.287   1.439
  350TIP3    H2  994   3.852   1.312   1.475
  351TIP3   OH2  995   3.527   1.627   0.533
  351TIP3    H1  996   3.432   1.613   0.530
  351TIP3    H2  997   3.532   1.671   0.622
  352TIP3   OH2  998   4.428   1.874   1.148
  352TIP3    H1  999   4.447   1.923   1.066
  352TIP3    H2 1000   4.344   1.828   1.126
  353TIP3   OH2 1001   3.930   1.957   1.520
  353TIP3    H1 1002   3.956   1.942   1.611
  353TIP3    H2 1003   3.894   2.047   1.522
  354TIP3   OH2 1004   4.055   1.184   0.482
  354TIP3    H1 1005   4.150   1.200   0.497
  354TIP3    H2 1006   4.028   1.265   0.434
  355TIP3   OH2 1007   3.224   1.656   1.191
  355TIP3    H1 1008   3.268   1.635   1.106
  355TIP3    H2 1009   3.280   1.608   1.254
  356TIP3   OH2 1010   3.662   1.784   0.349
  356TIP3    H1 1011   3.627   1.875   0.365
  356TIP3    H2 1012   3.614   1.733   0.418
  357TIP3   OH2 1013   3.107   1.581   1.809
  357TIP3    H1 1014   3.127   1.567   1.904
  357TIP3    H2 1015   3.039   1.513   1.794
  358TIP3   OH2 1016   3.831   1.698   1.829
  358TIP3    H1 1017   3.773   1.641   1.776
  358TIP3    H2 1018   3.919   1.662   1.803
  359TIP3   OH2 1019   4.094   2.212   1.420
  359TIP3    H1 1020   3.997   2.215   1.425
  359TIP3    H2 1021   4.119   2.269   1.496
  360TIP3   OH2 1022   4.491   1.291   0.320
  360TIP3    H1 1023   4.446   1.233   0.255
  360TIP3    H2 1024   4.478   1.378   0.275
  361TIP3   OH2 1025   4.721   2.151   1.400
  361TIP3    H1 1026   4.624   2.143   1.392
  361TIP3    H2 1027   4.747   2.119   1.311
  362TIP3   OH2 1028   4.223   2.100   0.238
  362TIP3    H1 1029   4.173   2.056   0.309
  362TIP3    H2 1030   4.196   2.053   0.158
  363TIP3   OH2 1031   4.199   1.733   1.066
  363TIP3    H1 1032   4.105   1.711   1.077
  363TIP3    H2 1033   4.233   1.651   1.025
  364TIP3   OH2 1034   3.326   1.968   0.818
  364TIP3    H1 1035   3.328   2.051   0.766
  364TIP3    H2 1036   3.231   1.954   0.824
  365TIP3   OH2 1037   3.463   1.736   0.769
  365TIP3    H1 1038   3.428   1.827   0.784
  365TIP3    H2 1039   3.428   1.690   0.847
  366TIP3   OH2 1040   3.596   2.308   1.288
  366TIP3    H1 1041   3.636   2.381   1.236
  366TIP3    H2 1042   3.674   2.274   1.334
  367TIP3   OH2 1043   3.248   2.205   0.670
  367TIP3    H1 1044   3.163   2.217   0.717
  367TIP3    H2 1045   3.282   2.298   0.671
  368TIP3   OH2 1046   3.977   1.941   1.251
  368TIP3    H1 1047   3.970   1.939   1.349
  368TIP3    H2 1048   4.057   1.889   1.237
  369TIP3   OH2 1049   3.968   1.852   0.119
  369TIP3    H1 1050   4.010   1.813   0.198
  369TIP3    H2 1051   3.888   1.796   0.111
  370TIP3   OH2 1052   4.232   2.475   1.295
  370TIP3    H1 1053   4.151   2.422   1.287
  370TIP3    H2 1054   4.217   2.542   1.224
  371TIP3   OH2 1055   4.302   2.317  -0.056
  371TIP3    H1 1056   4.349   2.397  -0.085
  371TIP3    H2 1057   4.221   2.358  -0.018
  372TIP3   OH2 1058   3.312   1.094   1.817
  372TIP3    H1 1059   3.217   1.107   1.836
  372TIP3    H2 1060   3.336   1.027   1.884
  373TIP3   OH2 1061   4.112   1.729   0.323
  373TIP3    H1 1062   4.102   1.691   0.412
  373TIP3    H2 1063   4.201   1.768   0.331
  374TIP3   OH2 1064   3.035   2.171   1.446
  374TIP3    H1 1065   3.091   2.102   1.484
  374TIP3    H2 1066   3.058   2.247   1.500
  375TIP3   OH2 1067   3.291   1.824   0.397
  375TIP3    H1 1068   3.320   1.814   0.488
  375TIP3    H2 1069   3.276   1.921   0.395
  376TIP3   OH2 1070   4.138   1.181   1.541
  376TIP3    H1 1071   4.222   1.186   1.493
  376TIP3    H2 1072   4.131   1.086   1.561
  377TIP3   OH2 1073   4.033   0.933   0.644
  377TIP3    H1 1074   4.024   0.980   0.560
  377TIP3    H2 1075   4.076   1.002   0.699
  378TIP3   OH2 1076   3.538   2.020   0.377
  378TIP3    H1 1077   3.453   2.060   0.404
  378TIP3    H2 1078   3.542   2.046   0.283
  379TIP3   OH2 1079   3.719   1.081   0.752
  379TIP3    H1 1080   3.785   1.153   0.745
  379TIP3    H2 1081   3.720   1.064   0.848
  380TIP3   OH2 1082   3.989   1.404   1.569
  380TIP3    H1 1083   4.019   1.447   1.651
  380TIP3    H2 1084   4.042   1.321   1.569
  381TIP3   OH2 1085   3.948   0.827   0.881
  381TIP3    H1 1086   3.880   0.888   0.914
  381TIP3    H2 1087   3.963   0.861   0.790
  382TIP3   OH2 1088   3.272   2.094   0.419
  382TIP3    H1 1089   3.249   2.167   0.357
  382TIP3    H2 1090   3.259   2.136   0.506
  383TIP3   OH2 1091   4.642   1.294   1.538
  383TIP3    H1 1092   4.548   1.305   1.565
  383TIP3    H2 1093   4.625   1.253   1.451
  384TIP3   OH2 1094   4.279   1.481   0.952
  384TIP3    H1 1095   4.194   1.433   0.954
  384TIP3    H2 1096   4.325   1.437   1.028
  385TIP3   OH2 1097   4.249   2.452   0.897
  385TIP3    H1 1098   4.189   2.458   0.820
  385TIP3    H2 1099   4.336   2.478   0.858
  386TIP3   OH2 1100   3.320   0.740   1.445
  386TIP3    H1 1101   3.299   0.686   1.367
  386TIP3    H2 1102   3.334   0.668   1.510
  387TIP3   OH2 1103   2.890   1.982   0.785
  387TIP3    H1 1104   2.809   1.933   0.804
  387TIP3    H2 1105   2.924   1.933   0.708
  388TIP3   OH2 1106   3.027   2.485   1.869
  388TIP3    H1 1107   3.112   2.487   1.917
  388TIP3    H2 1108   3.006   2.390   1.869
  389TIP3   OH2 1109   3.503   2.440   1.917
  389TIP3    H1 1110   3.599   2.426   1.920
  389TIP3    H2 1111   3.478   2.381   1.843
  390TIP3   OH2 1112   3.490   2.026   0.101
  390TIP3    H1 1113   3.433   1.948   0.109
  390TIP3    H2 1114   3.521   2.014   0.010
  391TIP3   OH2 1115   4.142   2.354   1.650
  391TIP3    H1 1116   4.137   2.283   1.718
  391TIP3    H2 1117   4.220   2.405   1.680
  392TIP3   OH2 1118   3.936   2.072  -0.038
  392TIP3    H1 1119   3.943   1.993   0.020
  392TIP3    H2 1120   4.024   2.072  -0.078
  393TIP3   OH2 1121   3.155   1.887   2.071
  393TIP3    H1 1122   3.171   1.791   2.075
  393TIP3    H2 1123   3.067   1.891   2.026
  394TIP3   OH2 1124   3.762   1.974   1.843
  394TIP3    H1 1125   3.720   1.994   1.757
  394TIP3    H2 1126   3.792   1.881   1.832
  395TIP3   OH2 1127   3.741   1.693   0.099
  395TIP3    H1 1128   3.709   1.727   0.185
  395TIP3    H2 1129   3.658   1.672   0.055
  396TIP3   OH2 1130   4.255   1.983   1.451
  396TIP3    H1 1131   4.329   2.027   1.407
  396TIP3    H2 1132   4.184   2.049   1.438
  397TIP3   OH2 1133   3.271   1.622   2.055
  397TIP3    H1 1134   3.349   1.572   2.026
  397TIP3    H2 1135   3.300   1.655   2.143
  398TIP3   OH2 1136   3.605   1.503   1.714
  398TIP3    H1 1137   3.530   1.565   1.717
  398TIP3    H2 1138   3.657   1.538   1.638
  399TIP3   OH2 1139   4.129   1.908   1.847
  399TIP3    H1 1140   4.202   1.876   1.792
  399TIP3    H2 1141   4.121   1.838   1.914
  400TIP3   OH2 1142   4.273   1.577  -0.035
  400TIP3    H1 1143   4.277   1.537  -0.123
  400TIP3    H2 1144   4.260   1.671  -0.055
  401TIP3   OH2 1145   3.731   1.294   1.839
  401TIP3    H1 1146   3.733   1.215   1.781
  401TIP3    H2 1147   3.688   1.361   1.781
  402TIP3   OH2 1148   3.735   1.084   1.650
  402TIP3    H1 1149   3.765   1.119   1.563
  402TIP3    H2 1150   3.644   1.056   1.629
  403TIP3   OH2 1151   3.756   1.618   1.526
  403TIP3    H1 1152   3.840   1.619   1.479
  403TIP3    H2 1153   3.704   1.685   1.476
  404TIP3   OH2 1154   4.350   1.586   1.910
  404TIP3    H1 1155   4.372   1.494   1.887
  404TIP3    H2 1156   4.414   1.636   1.856
  405TIP3   OH2 1157   4.381   1.844   1.645
  405TIP3    H1 1158   4.325   1.896   1.583
  405TIP3    H2 1159   4.469   1.857   1.603
  406TIP3   OH2 1160   3.614   1.402   2.073
  406TIP3    H1 1161   3.545   1.334   2.087
  406TIP3    H2 1162   3.645   1.379   1.983
  407TIP3   OH2 1163   3.868   0.847   1.719
  407TIP3    H1 1164   3.818   0.927   1.692
  407TIP3    H2 1165   3.802   0.777   1.703
  408TIP3   OH2 1166   3.988   1.345   1.931
  408TIP3    H1 1167   3.968   1.332   2.025
  408TIP3    H2 1168   3.900   1.322   1.893
  409TIP3   OH2 1169   4.245   1.329   1.808
  409TIP3    H1 1170   4.161   1.305   1.851
  409TIP3    H2 1171   4.310   1.272   1.851
  410TIP3   OH2 1172   4.481   1.240   1.943
  410TIP3    H1 1173   4.484   1.143   1.957
  410TIP3    H2 1174   4.467   1.276   2.033
  411TIP3   OH2 1175   3.451   1.184   2.127
  411TIP3    H1 1176   3.453   1.093   2.091
  411TIP3    H2 1177   3.488   1.169   2.216
  412TIP3   OH2 1178   3.960   0.852   1.977
  412TIP3    H1 1179   4.025   0.780   1.967
  412TIP3    H2 1180   3.920   0.851   1.887
  413TIP3   OH2 1181   4.027   1.067   2.132
  413TIP3    H1 1182   4.005   0.996   2.068
  413TIP3    H2 1183   3.949   1.126   2.124
  414TIP3   OH2 1184   3.240   2.286   0.226
  414TIP3    H1 1185   3.335   2.298   0.205
  414TIP3    H2 1186   3.197   2.342   0.161
  415TIP3   OH2 1187   2.638   2.286   0.857
  415TIP3    H1 1188   2.590   2.216   0.811
  415TIP3    H2 1189   2.686   2.235   0.926
  416TIP3   OH2 1190   2.764   2.154   1.058
  416TIP3    H1 1191   2.770   2.074   1.113
  416TIP3    H2 1192   2.823   2.214   1.108
  417TIP3   OH2 1193   4.513   2.528   0.844
  417TIP3    H1 1194   4.527   2.559   0.936
  417TIP3    H2 1195   4.559   2.596   0.793
  418TIP3   OH2 1196   4.536   2.560   1.126
  418TIP3    H1 1197   4.487   2.474   1.125
  418TIP3    H2 1198   4.605   2.538   1.190
  419TIP3   OH2 1199   4.584   2.239   1.704
  419TIP3    H1 1200   4.510   2.248   1.769
  419TIP3    H2 1201   4.624   2.328   1.709
  420TIP3   OH2 1202   4.404   1.744   0.322
  420TIP3    H1 1203   4.458   1.822   0.302
  420TIP3    H2 1204   4.440   1.717   0.409
  421TIP3   OH2 1205   4.523   1.631   0.550
  421TIP3    H1 1206   4.444   1.578   0.574
  421TIP3    H2 1207   4.561   1.641   0.639
  422TIP3   OH2 1208   4.593   2.007   0.963
  422TIP3    H1 1209   4.641   1.946   0.905
  422TIP3    H2 1210   4.569   2.080   0.903
  423TIP3   OH2 1211   4.410   2.312   1.154
  423TIP3    H1 1212   4.338   2.355   1.205
  423TIP3    H2 1213   4.359   2.268   1.082
  424TIP3   OH2 1214   4.448   1.521   0.170
  424TIP3    H1 1215   4.384   1.535   0.097
  424TIP3    H2 1216   4.427   1.599   0.226
  425TIP3   OH2 1217   4.327   1.180   0.109
  425TIP3    H1 1218   4.285   1.263   0.085
  425TIP3    H2 1219   4.248   1.125   0.133
  426TIP3   OH2 1220   4.344   1.472   0.680
  426TIP3    H1 1221   4.342   1.376   0.668
  426TIP3    H2 1222   4.330   1.480   0.777
  427TIP3   OH2 1223   2.967   1.565   1.431
  427TIP3    H1 1224   2.966   1.532   1.339
  427TIP3    H2 1225   3.064   1.562   1.449
  428TIP3   OH2 1226   4.629   1.899   1.534
  428TIP3    H1 1227   4.698   1.831   1.519
  428TIP3    H2 1228   4.649   1.965   1.467
  429TIP3   OH2 1229   4.816   1.700   1.538
  429TIP3    H1 1230   4.738   1.652   1.574
  429TIP3    H2 1231   4.883   1.632   1.539
  430TIP3   OH2 1232   4.332   1.201   0.565
  430TIP3    H1 1233   4.370   1.112   0.583
  430TIP3    H2 1234   4.391   1.232   0.494
  431TIP3   OH2 1235   4.592   1.538   1.332
  431TIP3    H1 1236   4.507   1.492   1.319
  431TIP3    H2 1237   4.595   1.596   1.254
  432TIP3   OH2 1238   3.186   1.244   2.114
  432TIP3    H1 1239   3.283   1.234   2.109
  432TIP3    H2 1240   3.162   1.154   2.145
  433TIP3   OH2 1241   5.018   1.104   1.848
  433TIP3    H1 1242   5.073   1.033   1.807
  433TIP3    H2 1243   4.986   1.153   1.769
  434TIP3   OH2 1244   4.441   0.951   0.607
  434TIP3    H1 1245   4.477   0.939   0.697
  434TIP3    H2 1246   4.380   0.874   0.602
  435TIP3   OH2 1247   3.157   0.951   1.470
  435TIP3    H1 1248   3.223   0.879   1.486
  435TIP3    H2 1249   3.217   1.028   1.461
  436TIP3   OH2 1250   2.961   1.220   1.494
  436TIP3    H1 1251   3.009   1.222   1.409
  436TIP3    H2 1252   2.991   1.302   1.535
  437TIP3   OH2 1253   4.894   1.244   1.649
  437TIP3    H1 1254   4.809   1.285   1.676
  437TIP3    H2 1255   4.857   1.171   1.594
  438TIP3   OH2 1256   3.167   0.783   1.826
  438TIP3    H1 1257   3.116   0.771   1.907
  438TIP3    H2 1258   3.102   0.832   1.771
  439TIP3   OH2 1259   3.191   2.210   1.889
  439TIP3    H1 1260   3.097   2.189   1.873
  439TIP3    H2 1261   3.198   2.199   1.984
  440TIP3   OH2 1262   3.371   2.248   1.438
  440TIP3    H1 1263   3.322   2.324   1.399
  440TIP3    H2 1264   3.456   2.262   1.392
  441TIP3   OH2 1265   3.810   2.488   1.575
  441TIP3    H1 1266   3.852   2.489   1.663
  441TIP3    H2 1267   3.874   2.542   1.523
  442TIP3   OH2 1268   3.986   2.645   1.437
  442TIP3    H1 1269   4.053   2.595   1.388
  442TIP3    H2 1270   4.042   2.700   1.496
  443TIP3   OH2 1271   4.788   1.006   1.535
  443TIP3    H1 1272   4.698   1.005   1.497
  443TIP3    H2 1273   4.815   0.912   1.524
  444TIP3   OH2 1274   3.044   2.500   1.464
  444TIP3    H1 1275   2.954   2.532   1.440
  444TIP3    H2 1276   3.058   2.549   1.546
  445TIP3   OH2 1277   3.281   2.482   1.321
  445TIP3    H1 1278   3.193   2.493   1.365
  445TIP3    H2 1279   3.262   2.514   1.231
  446TIP3   OH2 1280   3.703   2.507   1.124
  446TIP3    H1 1281   3.638   2.526   1.055
  446TIP3    H2 1282   3.717   2.596   1.163
  447TIP3   OH2 1283   3.974   2.447   1.174
  447TIP3    H1 1284   3.879   2.458   1.151
  447TIP3    H2 1285   4.015   2.513   1.116
  448TIP3   OH2 1286   4.191   2.646   1.083
  448TIP3    H1 1287   4.168   2.727   1.034
  448TIP3    H2 1288   4.210   2.583   1.010
  449TIP3   OH2 1289   2.956   2.296   1.205
  449TIP3    H1 1290   2.981   2.268   1.295
  449TIP3    H2 1291   3.028   2.254   1.153
  450TIP3   OH2 1292   3.152   2.169   1.067
  450TIP3    H1 1293   3.168   2.085   1.116
  450TIP3    H2 1294   3.243   2.206   1.063
  451TIP3   OH2 1295   3.417   2.263   1.070
  451TIP3    H1 1296   3.451   2.173   1.055
  451TIP3    H2 1297   3.465   2.285   1.152
  452TIP3   OH2 1298   3.949   0.928   1.159
  452TIP3    H1 1299   3.924   0.853   1.218
  452TIP3    H2 1300   4.023   0.891   1.109
  453TIP3   OH2 1301   4.521   0.802   1.063
  453TIP3    H1 1302   4.548   0.862   0.989
  453TIP3    H2 1303   4.423   0.810   1.056
  454TIP3   OH2 1304   4.595   0.922   0.832
  454TIP3    H1 1305   4.671   0.864   0.808
  454TIP3    H2 1306   4.633   1.012   0.818
  455TIP3   OH2 1307   4.248   0.807   1.032
  455TIP3    H1 1308   4.195   0.797   0.952
  455TIP3    H2 1309   4.217   0.731   1.086
  456TIP3   OH2 1310   4.263   0.742   0.629
  456TIP3    H1 1311   4.177   0.789   0.631
  456TIP3    H2 1312   4.254   0.672   0.697
  457TIP3   OH2 1313   3.509   2.290   0.172
  457TIP3    H1 1314   3.602   2.303   0.143
  457TIP3    H2 1315   3.500   2.197   0.143
  458TIP3   OH2 1316   4.267   2.374   0.253
  458TIP3    H1 1317   4.245   2.279   0.259
  458TIP3    H2 1318   4.197   2.405   0.192
  459TIP3   OH2 1319   3.446   0.911   2.067
  459TIP3    H1 1320   3.414   0.836   2.120
  459TIP3    H2 1321   3.541   0.910   2.090
  460TIP3   OH2 1322   3.699   0.907   2.180
  460TIP3    H1 1323   3.782   0.880   2.136
  460TIP3    H2 1324   3.688   0.834   2.245
  461TIP3   OH2 1325   4.523   0.967   1.968
  461TIP3    H1 1326   4.543   0.936   2.059
  461TIP3    H2 1327   4.612   0.963   1.926
  462TIP3   OH2 1328   4.460   2.518   1.457
  462TIP3    H1 1329   4.381   2.487   1.409
  462TIP3    H2 1330   4.440   2.614   1.464
  463TIP3   OH2 1331   5.683   1.911   0.271
  463TIP3    H1 1332   5.670   1.994   0.221
  463TIP3    H2 1333   5.631   1.849   0.219
  464TIP3   OH2 1334   5.729   1.905   0.609
  464TIP3    H1 1335   5.750   1.858   0.692
  464TIP3    H2 1336   5.691   1.836   0.553
  465TIP3   OH2 1337   5.024   1.802   0.968
  465TIP3    H1 1338   5.051   1.728   1.026
  465TIP3    H2 1339   5.110   1.844   0.953
  466TIP3   OH2 1340   5.977   2.195   0.294
  466TIP3    H1 1341   5.952   2.130   0.360
  466TIP3    H2 1342   6.006   2.270   0.349
  467TIP3   OH2 1343   5.000   2.190   0.682
  467TIP3    H1 1344   4.996   2.094   0.700
  467TIP3    H2 1345   5.097   2.204   0.679
  468TIP3   OH2 1346   4.703   1.425   0.485
  468TIP3    H1 1347   4.642   1.499   0.498
  468TIP3    H2 1348   4.642   1.355   0.456
  469TIP3   OH2 1349   5.624   2.658   0.313
  469TIP3    H1 1350   5.659   2.584   0.258
  469TIP3    H2 1351   5.617   2.615   0.399
  470TIP3   OH2 1352   5.523   2.121   0.656
  470TIP3    H1 1353   5.562   2.047   0.606
  470TIP3    H2 1354   5.607   2.165   0.682
  471TIP3   OH2 1355   5.937   1.628   0.688
  471TIP3    H1 1356   5.969   1.541   0.720
  471TIP3    H2 1357   5.886   1.597   0.611
  472TIP3   OH2 1358   5.254   1.306   0.674
  472TIP3    H1 1359   5.227   1.368   0.603
  472TIP3    H2 1360   5.243   1.219   0.630
  473TIP3   OH2 1361   4.903   1.499   0.761
  473TIP3    H1 1362   4.981   1.468   0.810
  473TIP3    H2 1363   4.909   1.443   0.681
  474TIP3   OH2 1364   5.348   1.692   0.562
  474TIP3    H1 1365   5.441   1.664   0.572
  474TIP3    H2 1366   5.305   1.608   0.534
  475TIP3   OH2 1367   6.585   1.618   0.855
  475TIP3    H1 1368   6.524   1.686   0.822
  475TIP3    H2 1369   6.657   1.670   0.892
  476TIP3   OH2 1370   5.264   1.262   1.095
  476TIP3    H1 1371   5.212   1.316   1.032
  476TIP3    H2 1372   5.194   1.218   1.144
  477TIP3   OH2 1373   5.622   2.120   0.095
  477TIP3    H1 1374   5.582   2.098   0.008
  477TIP3    H2 1375   5.565   2.195   0.122
  478TIP3   OH2 1376   5.380   2.038   0.878
  478TIP3    H1 1377   5.321   2.108   0.914
  478TIP3    H2 1378   5.426   2.086   0.806
  479TIP3   OH2 1379   5.131   1.393   0.894
  479TIP3    H1 1380   5.194   1.466   0.911
  479TIP3    H2 1381   5.174   1.354   0.813
  480TIP3   OH2 1382   5.207   2.233   0.976
  480TIP3    H1 1383   5.184   2.322   0.942
  480TIP3    H2 1384   5.129   2.217   1.033
  481TIP3   OH2 1385   4.613   1.925   0.238
  481TIP3    H1 1386   4.566   1.921   0.151
  481TIP3    H2 1387   4.618   2.022   0.249
  482TIP3   OH2 1388   6.039   2.441   0.457
  482TIP3    H1 1389   5.948   2.432   0.494
  482TIP3    H2 1390   6.031   2.525   0.408
  483TIP3   OH2 1391   5.729   2.476   0.138
  483TIP3    H1 1392   5.778   2.393   0.119
  483TIP3    H2 1393   5.794   2.539   0.099
  484TIP3   OH2 1394   5.876   2.267   0.049
  484TIP3    H1 1395   5.820   2.192   0.026
  484TIP3    H2 1396   5.923   2.234   0.129
  485TIP3   OH2 1397   6.266   2.350   0.799
  485TIP3    H1 1398   6.254   2.272   0.739
  485TIP3    H2 1399   6.249   2.424   0.737
  486TIP3   OH2 1400   6.460   1.996   0.660
  486TIP3    H1 1401   6.374   2.043   0.654
  486TIP3    H2 1402   6.493   2.006   0.568
  487TIP3   OH2 1403   6.132   1.870   0.948
  487TIP3    H1 1404   6.130   1.950   1.005
  487TIP3    H2 1405   6.045   1.877   0.904
  488TIP3   OH2 1406   5.133   1.821   0.442
  488TIP3    H1 1407   5.103   1.758   0.372
  488TIP3    H2 1408   5.213   1.776   0.475
  489TIP3   OH2 1409   5.266   2.232   0.593
  489TIP3    H1 1410   5.253   2.200   0.502
  489TIP3    H2 1411   5.356   2.199   0.613
  490TIP3   OH2 1412   5.265   1.800   0.802
  490TIP3    H1 1413   5.300   1.773   0.715
  490TIP3    H2 1414   5.315   1.883   0.819
  491TIP3   OH2 1415   5.796   2.434   0.576
  491TIP3    H1 1416   5.787   2.512   0.634
  491TIP3    H2 1417   5.783   2.359   0.638
  492TIP3   OH2 1418   5.413   2.351   1.123
  492TIP3    H1 1419   5.353   2.412   1.170
  492TIP3    H2 1420   5.348   2.298   1.073
  493TIP3   OH2 1421   5.168   1.899   1.235
  493TIP3    H1 1422   5.174   1.990   1.270
  493TIP3    H2 1423   5.071   1.884   1.243
  494TIP3   OH2 1424   5.479   2.364   0.143
  494TIP3    H1 1425   5.566   2.408   0.145
  494TIP3    H2 1426   5.430   2.419   0.081
  495TIP3   OH2 1427   5.206   2.516   1.211
  495TIP3    H1 1428   5.170   2.518   1.121
  495TIP3    H2 1429   5.126   2.495   1.265
  496TIP3   OH2 1430   5.003   1.664   0.242
  496TIP3    H1 1431   4.936   1.709   0.185
  496TIP3    H2 1432   4.956   1.584   0.266
  497TIP3   OH2 1433   4.787   2.047   1.159
  497TIP3    H1 1434   4.714   2.031   1.095
  497TIP3    H2 1435   4.819   1.957   1.178
  498TIP3   OH2 1436   4.649   2.242   0.783
  498TIP3    H1 1437   4.741   2.265   0.801
  498TIP3    H2 1438   4.602   2.313   0.829
  499TIP3   OH2 1439   6.504   2.696   0.847
  499TIP3    H1 1440   6.503   2.600   0.862
  499TIP3    H2 1441   6.420   2.722   0.893
  500TIP3   OH2 1442   5.608   2.481   0.979
  500TIP3    H1 1443   5.606   2.573   1.013
  500TIP3    H2 1444   5.539   2.440   1.035
  501TIP3   OH2 1445   5.366   2.613  -0.055
  501TIP3    H1 1446   5.321   2.576  -0.131
  501TIP3    H2 1447   5.337   2.705  -0.053
  502TIP3   OH2 1448   4.809   2.458   0.318
  502TIP3    H1 1449   4.859   2.448   0.402
  502TIP3    H2 1450   4.734   2.399   0.335
  503TIP3   OH2 1451   5.603   2.521  -0.161
  503TIP3    H1 1452   5.526   2.550  -0.110
  503TIP3    H2 1453   5.671   2.513  -0.093
  504TIP3   OH2 1454   6.395   1.826   1.133
  504TIP3    H1 1455   6.322   1.832   1.069
  504TIP3    H2 1456   6.413   1.730   1.131
  505TIP3   OH2 1457   4.990   2.232   1.140
  505TIP3    H1 1458   5.038   2.220   1.225
  505TIP3    H2 1459   4.916   2.168   1.150
  506TIP3   OH2 1460   5.379   1.060   0.936
  506TIP3    H1 1461   5.291   1.028   0.907
  506TIP3    H2 1462   5.354   1.144   0.979
  507TIP3   OH2 1463   5.920   1.161   1.112
  507TIP3    H1 1464   5.989   1.144   1.180
  507TIP3    H2 1465   5.837   1.144   1.162
  508TIP3   OH2 1466   6.156   1.599   1.034
  508TIP3    H1 1467   6.115   1.598   1.123
  508TIP3    H2 1468   6.139   1.690   1.004
  509TIP3   OH2 1469   5.326   1.579   0.952
  509TIP3    H1 1470   5.278   1.599   1.035
  509TIP3    H2 1471   5.307   1.659   0.899
  510TIP3   OH2 1472   5.192   1.481   0.475
  510TIP3    H1 1473   5.104   1.439   0.473
  510TIP3    H2 1474   5.231   1.453   0.389
  511TIP3   OH2 1475   5.871   1.819   1.273
  511TIP3    H1 1476   5.849   1.747   1.335
  511TIP3    H2 1477   5.965   1.834   1.295
  512TIP3   OH2 1478   5.816   1.549   0.460
  512TIP3    H1 1479   5.830   1.603   0.379
  512TIP3    H2 1480   5.831   1.459   0.425
  513TIP3   OH2 1481   5.130   1.614   1.151
  513TIP3    H1 1482   5.148   1.682   1.217
  513TIP3    H2 1483   5.060   1.561   1.192
  514TIP3   OH2 1484   4.724   1.145   0.747
  514TIP3    H1 1485   4.804   1.166   0.799
  514TIP3    H2 1486   4.759   1.098   0.670
  515TIP3   OH2 1487   4.750   1.192   0.317
  515TIP3    H1 1488   4.792   1.256   0.258
  515TIP3    H2 1489   4.655   1.216   0.308
  516TIP3   OH2 1490   5.855   1.820   0.858
  516TIP3    H1 1491   5.894   1.753   0.797
  516TIP3    H2 1492   5.828   1.762   0.933
  517TIP3   OH2 1493   5.522   1.280   0.619
  517TIP3    H1 1494   5.431   1.302   0.647
  517TIP3    H2 1495   5.573   1.324   0.688
  518TIP3   OH2 1496   4.959   1.336   0.517
  518TIP3    H1 1497   4.864   1.359   0.505
  518TIP3    H2 1498   4.961   1.248   0.477
  519TIP3   OH2 1499   5.947   1.355   0.727
  519TIP3    H1 1500   5.945   1.380   0.823
  519TIP3    H2 1501   5.954   1.260   0.732
  520TIP3   OH2 1502   6.197   3.045   0.947
  520TIP3    H1 1503   6.197   3.069   0.853
  520TIP3    H2 1504   6.278   3.091   0.978
  521TIP3   OH2 1505   5.153   2.153   1.364
  521TIP3    H1 1506   5.232   2.184   1.413
  521TIP3    H2 1507   5.087   2.154   1.437
  522TIP3   OH2 1508   5.604   1.607   0.628
  522TIP3    H1 1509   5.675   1.578   0.568
  522TIP3    H2 1510   5.628   1.567   0.713
  523TIP3   OH2 1511   5.593   1.502   0.908
  523TIP3    H1 1512   5.505   1.542   0.922
  523TIP3    H2 1513   5.652   1.562   0.960
  524TIP3   OH2 1514   5.288   1.932  -0.010
  524TIP3    H1 1515   5.250   1.842  -0.015
  524TIP3    H2 1516   5.298   1.944   0.087
  525TIP3   OH2 1517   6.225   2.134   0.633
  525TIP3    H1 1518   6.249   2.185   0.552
  525TIP3    H2 1519   6.136   2.099   0.610
  526TIP3   OH2 1520   5.723   2.211   1.005
  526TIP3    H1 1521   5.761   2.198   1.093
  526TIP3    H2 1522   5.689   2.302   1.009
  527TIP3   OH2 1523   4.975   1.905   0.646
  527TIP3    H1 1524   5.043   1.876   0.581
  527TIP3    H2 1525   5.013   1.864   0.727
  528TIP3   OH2 1526   5.485   2.077  -0.142
  528TIP3    H1 1527   5.431   2.158  -0.150
  528TIP3    H2 1528   5.417   2.014  -0.108
  529TIP3   OH2 1529   4.905   1.825   1.292
  529TIP3    H1 1530   4.908   1.815   1.389
  529TIP3    H2 1531   4.826   1.772   1.269
  530TIP3   OH2 1532   5.631   1.954   1.315
  530TIP3    H1 1533   5.572   1.896   1.265
  530TIP3    H2 1534   5.719   1.921   1.287
  531TIP3   OH2 1535   5.886   2.475   0.900
  531TIP3    H1 1536   5.789   2.474   0.913
  531TIP3    H2 1537   5.914   2.526   0.978
  532TIP3   OH2 1538   6.516   2.404   0.889
  532TIP3    H1 1539   6.418   2.399   0.880
  532TIP3    H2 1540   6.542   2.374   0.799
  533TIP3   OH2 1541   5.982   2.015   0.561
  533TIP3    H1 1542   5.889   1.987   0.573
  533TIP3    H2 1543   6.020   1.932   0.525
  534TIP3   OH2 1544   5.120   2.223   0.312
  534TIP3    H1 1545   5.142   2.299   0.256
  534TIP3    H2 1546   5.025   2.219   0.299
  535TIP3   OH2 1547   4.709   1.510   0.052
  535TIP3    H1 1548   4.736   1.602   0.036
  535TIP3    H2 1549   4.617   1.521   0.083
  536TIP3   OH2 1550   5.264   1.989   0.258
  536TIP3    H1 1551   5.226   2.077   0.273
  536TIP3    H2 1552   5.225   1.937   0.330
  537TIP3   OH2 1553   5.394   2.564   0.774
  537TIP3    H1 1554   5.438   2.636   0.725
  537TIP3    H2 1555   5.469   2.527   0.824
  538TIP3   OH2 1556   5.037   2.463   0.156
  538TIP3    H1 1557   4.951   2.467   0.203
  538TIP3    H2 1558   5.066   2.557   0.161
  539TIP3   OH2 1559   5.777   2.203   0.735
  539TIP3    H1 1560   5.769   2.197   0.832
  539TIP3    H2 1561   5.855   2.148   0.718
  540TIP3   OH2 1562   6.027   2.733   0.786
  540TIP3    H1 1563   5.948   2.676   0.780
  540TIP3    H2 1564   6.011   2.796   0.713
  541TIP3   OH2 1565   4.838   2.422   0.930
  541TIP3    H1 1566   4.889   2.356   0.981
  541TIP3    H2 1567   4.847   2.499   0.987
  542TIP3   OH2 1568   5.167   2.016  -0.335
  542TIP3    H1 1569   5.105   1.994  -0.406
  542TIP3    H2 1570   5.109   2.024  -0.258
  543TIP3   OH2 1571   5.055   2.080  -0.079
  543TIP3    H1 1572   5.141   2.040  -0.054
  543TIP3    H2 1573   5.075   2.176  -0.081
  544TIP3   OH2 1574   4.808   1.781   0.094
  544TIP3    H1 1575   4.738   1.832   0.138
  544TIP3    H2 1576   4.829   1.840   0.018
  545TIP3   OH2 1577   5.947   1.410   0.993
  545TIP3    H1 1578   6.030   1.451   1.024
  545TIP3    H2 1579   5.941   1.329   1.046
  546TIP3   OH2 1580   5.332   2.305  -0.166
  546TIP3    H1 1581   5.238   2.320  -0.143
  546TIP3    H2 1582   5.336   2.331  -0.259
  547TIP3   OH2 1583   5.787   1.650   1.061
  547TIP3    H1 1584   5.813   1.705   1.138
  547TIP3    H2 1585   5.846   1.573   1.071
  548TIP3   OH2 1586   5.074   2.354  -0.096
  548TIP3    H1 1587   5.048   2.426  -0.158
  548TIP3    H2 1588   5.055   2.395  -0.009
  549TIP3   OH2 1589   6.428   1.558   1.069
  549TIP3    H1 1590   6.334   1.546   1.046
  549TIP3    H2 1591   6.471   1.560   0.980
  550TIP3   OH2 1592   6.074   1.769   0.474
  550TIP3    H1 1593   6.003   1.712   0.506
  550TIP3    H2 1594   6.149   1.733   0.527
  551TIP3   OH2 1595   4.792   2.003  -0.090
  551TIP3    H1 1596   4.876   2.051  -0.076
  551TIP3    H2 1597   4.827   1.938  -0.155
  552TIP3   OH2 1598   6.045   2.717   0.371
  552TIP3    H1 1599   6.005   2.765   0.296
  552TIP3    H2 1600   6.140   2.738   0.355
  553TIP3   OH2 1601   5.120   0.971   0.908
  553TIP3    H1 1602   5.096   0.924   0.826
  553TIP3    H2 1603   5.113   0.899   0.973
  554TIP3   OH2 1604   4.656   2.184   0.303
  554TIP3    H1 1605   4.586   2.229   0.352
  554TIP3    H2 1606   4.642   2.226   0.215
  555TIP3   OH2 1607   4.823   2.742   1.354
  555TIP3    H1 1608   4.908   2.743   1.403
  555TIP3    H2 1609   4.801   2.648   1.356
  556TIP3   OH2 1610   5.300   2.699   1.401
  556TIP3    H1 1611   5.394   2.682   1.409
  556TIP3    H2 1612   5.275   2.638   1.329
  557TIP3   OH2 1613   5.939   2.608   1.135
  557TIP3    H1 1614   5.933   2.538   1.204
  557TIP3    H2 1615   6.017   2.659   1.165
  558TIP3   OH2 1616   4.950   2.146   1.556
  558TIP3    H1 1617   4.966   2.050   1.559
  558TIP3    H2 1618   4.862   2.150   1.513
  559TIP3   OH2 1619   4.923   1.816  -0.224
  559TIP3    H1 1620   4.976   1.738  -0.201
  559TIP3    H2 1621   4.945   1.823  -0.320
  560TIP3   OH2 1622   5.558   2.230   1.331
  560TIP3    H1 1623   5.519   2.249   1.243
  560TIP3    H2 1624   5.591   2.139   1.320
  561TIP3   OH2 1625   6.050   2.243   0.937
  561TIP3    H1 1626   6.127   2.284   0.893
  561TIP3    H2 1627   5.982   2.311   0.920
  562TIP3   OH2 1628   5.065   1.889   1.543
  562TIP3    H1 1629   5.143   1.842   1.514
  562TIP3    H2 1630   5.089   1.914   1.634
  563TIP3   OH2 1631   5.148   1.689  -0.012
  563TIP3    H1 1632   5.107   1.670   0.074
  563TIP3    H2 1633   5.145   1.605  -0.059
  564TIP3   OH2 1634   5.412   1.763   1.205
  564TIP3    H1 1635   5.332   1.820   1.205
  564TIP3    H2 1636   5.460   1.795   1.125
  565TIP3   OH2 1637   5.921   2.163   1.332
  565TIP3    H1 1638   6.003   2.138   1.287
  565TIP3    H2 1639   5.919   2.099   1.406
  566TIP3   OH2 1640   5.491   1.535   1.334
  566TIP3    H1 1641   5.514   1.466   1.269
  566TIP3    H2 1642   5.467   1.610   1.275
  567TIP3   OH2 1643   5.527   1.339   1.135
  567TIP3    H1 1644   5.557   1.377   1.051
  567TIP3    H2 1645   5.433   1.317   1.115
  568TIP3   OH2 1646   5.557   1.871   1.005
  568TIP3    H1 1647   5.644   1.884   0.964
  568TIP3    H2 1648   5.502   1.938   0.960
  569TIP3   OH2 1649   6.139   1.838   1.386
  569TIP3    H1 1650   6.187   1.754   1.398
  569TIP3    H2 1651   6.209   1.894   1.349
  570TIP3   OH2 1652   6.177   2.094   1.123
  570TIP3    H1 1653   6.121   2.150   1.065
  570TIP3    H2 1654   6.265   2.113   1.085
  571TIP3   OH2 1655   5.411   1.663   1.570
  571TIP3    H1 1656   5.315   1.652   1.572
  571TIP3    H2 1657   5.434   1.634   1.479
  572TIP3   OH2 1658   5.663   1.102   1.203
  572TIP3    H1 1659   5.609   1.179   1.177
  572TIP3    H2 1660   5.602   1.027   1.188
  573TIP3   OH2 1661   5.789   1.604   1.419
  573TIP3    H1 1662   5.797   1.594   1.516
  573TIP3    H2 1663   5.699   1.571   1.405
  574TIP3   OH2 1664   6.030   1.554   1.270
  574TIP3    H1 1665   5.956   1.554   1.334
  574TIP3    H2 1666   6.105   1.525   1.325
  575TIP3   OH2 1667   6.249   1.495   1.424
  575TIP3    H1 1668   6.264   1.400   1.441
  575TIP3    H2 1669   6.253   1.533   1.514
  576TIP3   OH2 1670   5.743   1.116   1.465
  576TIP3    H1 1671   5.816   1.051   1.466
  576TIP3    H2 1672   5.713   1.106   1.372
  577TIP3   OH2 1673   5.824   1.324   1.620
  577TIP3    H1 1674   5.802   1.252   1.557
  577TIP3    H2 1675   5.746   1.383   1.613
  578TIP3   OH2 1676   5.061   2.549  -0.291
  578TIP3    H1 1677   5.146   2.537  -0.339
  578TIP3    H2 1678   5.011   2.602  -0.354
  579TIP3   OH2 1679   4.537   1.923  -0.031
  579TIP3    H1 1680   4.621   1.966  -0.058
  579TIP3    H2 1681   4.525   1.861  -0.104
  580TIP3   OH2 1682   4.445   2.552   0.351
  580TIP3    H1 1683   4.378   2.493   0.308
  580TIP3    H2 1684   4.483   2.489   0.416
  581TIP3   OH2 1685   4.585   2.393   0.529
  581TIP3    H1 1686   4.548   2.335   0.597
  581TIP3    H2 1687   4.633   2.457   0.586
  582TIP3   OH2 1688   6.296   2.815   0.339
  582TIP3    H1 1689   6.334   2.835   0.426
  582TIP3    H2 1690   6.374   2.818   0.281
  583TIP3   OH2 1691   6.332   2.819   0.621
  583TIP3    H1 1692   6.289   2.731   0.617
  583TIP3    H2 1693   6.411   2.796   0.672
  584TIP3   OH2 1694   6.377   2.496   1.190
  584TIP3    H1 1695   6.306   2.505   1.257
  584TIP3    H2 1696   6.420   2.584   1.195
  585TIP3   OH2 1697   6.373   2.271   0.447
  585TIP3    H1 1698   6.428   2.207   0.400
  585TIP3    H2 1699   6.374   2.348   0.385
  586TIP3   OH2 1700   6.206   2.569   0.640
  586TIP3    H1 1701   6.135   2.610   0.692
  586TIP3    H2 1702   6.156   2.522   0.570
  587TIP3   OH2 1703   4.769   1.799   0.877
  587TIP3    H1 1704   4.795   1.723   0.823
  587TIP3    H2 1705   4.856   1.819   0.918
  588TIP3   OH2 1706   6.421   2.159   1.017
  588TIP3    H1 1707   6.492   2.092   1.008
  588TIP3    H2 1708   6.450   2.229   0.956
  589TIP3   OH2 1709   6.604   1.964   1.028
  589TIP3    H1 1710   6.532   1.913   1.070
  589TIP3    H2 1711   6.678   1.900   1.042
  590TIP3   OH2 1712   6.277   1.642   0.612
  590TIP3    H1 1713   6.372   1.629   0.585
  590TIP3    H2 1714   6.293   1.686   0.697
  591TIP3   OH2 1715   6.368   1.795   0.819
  591TIP3    H1 1716   6.285   1.834   0.855
  591TIP3    H2 1717   6.404   1.870   0.766
  592TIP3   OH2 1718   5.088   1.445   1.593
  592TIP3    H1 1719   5.074   1.519   1.653
  592TIP3    H2 1720   5.003   1.396   1.602
  593TIP3   OH2 1721   6.821   1.355   1.336
  593TIP3    H1 1722   6.878   1.297   1.282
  593TIP3    H2 1723   6.783   1.414   1.267
  594TIP3   OH2 1724   4.945   1.183   0.897
  594TIP3    H1 1725   5.009   1.110   0.911
  594TIP3    H2 1726   5.000   1.262   0.913
  595TIP3   OH2 1727   4.780   1.444   1.007
  595TIP3    H1 1728   4.798   1.449   0.912
  595TIP3    H2 1729   4.757   1.534   1.029
  596TIP3   OH2 1730   6.684   1.509   1.156
  596TIP3    H1 1731   6.589   1.534   1.155
  596TIP3    H2 1732   6.681   1.429   1.101
  597TIP3   OH2 1733   4.698   0.989   0.511
  597TIP3    H1 1734   4.607   0.975   0.543
  597TIP3    H2 1735   4.685   1.062   0.448
  598TIP3   OH2 1736   5.876   2.646  -0.007
  598TIP3    H1 1737   5.904   2.593  -0.084
  598TIP3    H2 1738   5.936   2.723  -0.018
  599TIP3   OH2 1739   4.944   1.039   1.299
  599TIP3    H1 1740   4.892   1.040   1.381
  599TIP3    H2 1741   4.883   1.087   1.239
  600TIP3   OH2 1742   4.986   2.467   1.375
  600TIP3    H1 1743   4.892   2.445   1.361
  600TIP3    H2 1744   4.996   2.453   1.470
  601TIP3   OH2 1745   5.167   2.503   0.924
  601TIP3    H1 1746   5.117   2.578   0.886
  601TIP3    H2 1747   5.253   2.519   0.879
  602TIP3   OH2 1748   5.607   2.748   1.060
  602TIP3    H1 1749   5.648   2.746   1.149
  602TIP3    H2 1750   5.674   2.799   1.010
  603TIP3   OH2 1751   5.787   2.902   0.921
  603TIP3    H1 1752   5.858   2.849   0.881
  603TIP3    H2 1753   5.839   2.958   0.982
  604TIP3   OH2 1754   4.842   2.760   0.949
  604TIP3    H1 1755   4.750   2.790   0.927
  604TIP3    H2 1756   4.853   2.802   1.035
  605TIP3   OH2 1757   5.077   2.740   0.807
  605TIP3    H1 1758   4.990   2.750   0.854
  605TIP3    H2 1759   5.054   2.769   0.718
  606TIP3   OH2 1760   5.503   2.765   0.605
  606TIP3    H1 1761   5.431   2.786   0.543
  606TIP3    H2 1762   5.516   2.850   0.652
  607TIP3   OH2 1763   5.773   2.705   0.659
  607TIP3    H1 1764   5.680   2.722   0.637
  607TIP3    H2 1765   5.818   2.778   0.613
  608TIP3   OH2 1766   5.975   2.896   0.569
  608TIP3    H1 1767   5.964   2.981   0.521
  608TIP3    H2 1768   6.004   2.836   0.496
  609TIP3   OH2 1769   4.759   2.556   0.688
  609TIP3    H1 1770   4.778   2.528   0.779
  609TIP3    H2 1771   4.831   2.510   0.640
  610TIP3   OH2 1772   4.951   2.424   0.549
  610TIP3    H1 1773   4.966   2.339   0.598
  610TIP3    H2 1774   5.041   2.461   0.547
  611TIP3   OH2 1775   5.217   2.522   0.555
  611TIP3    H1 1776   5.247   2.431   0.539
  611TIP3    H2 1777   5.263   2.540   0.639
  612TIP3   OH2 1778   4.545   2.320   0.093
  612TIP3    H1 1779   4.458   2.286   0.066
  612TIP3    H2 1780   4.531   2.414   0.070
  613TIP3   OH2 1781   5.450   1.179   1.641
  613TIP3    H1 1782   5.540   1.155   1.611
  613TIP3    H2 1783   5.442   1.109   1.712
  614TIP3   OH2 1784   4.668   2.369  -0.238
  614TIP3    H1 1785   4.601   2.403  -0.178
  614TIP3    H2 1786   4.679   2.279  -0.209
  615TIP3   OH2 1787   6.305   1.226   1.460
  615TIP3    H1 1788   6.327   1.196   1.551
  615TIP3    H2 1789   6.393   1.227   1.417
  616TIP3   OH2 1790   6.256   2.775   0.947
  616TIP3    H1 1791   6.177   2.745   0.897
  616TIP3    H2 1792   6.237   2.871   0.953
  617TIP3   OH2 1793   6.840   2.065   0.465
  617TIP3    H1 1794   6.881   2.053   0.553
  617TIP3    H2 1795   6.884   2.146   0.438
  618TIP3   OH2 1796   6.781   2.456   0.200
  618TIP3    H1 1797   6.760   2.391   0.131
  618TIP3    H2 1798   6.876   2.443   0.216
  619TIP3   OH2 1799   7.069   2.298   0.306
  619TIP3    H1 1800   7.043   2.371   0.367
  619TIP3    H2 1801   7.163   2.288   0.333
  620TIP3   OH2 1802   6.995   2.502   0.475
  620TIP3    H1 1803   6.975   2.593   0.444
  620TIP3    H2 1804   6.919   2.489   0.536
  621TIP3   OH2 1805   7.209   2.606   0.623
  621TIP3    H1 1806   7.148   2.673   0.661
  621TIP3    H2 1807   7.147   2.554   0.569
  622TIP3   OH2 1808   6.952   2.176   0.708
  622TIP3    H1 1809   6.965   2.261   0.754
  622TIP3    H2 1810   6.862   2.152   0.740
  623TIP3   OH2 1811   7.002   2.776   0.697
  623TIP3    H1 1812   6.968   2.782   0.606
  623TIP3    H2 1813   6.921   2.755   0.749
  624TIP3   OH2 1814   6.580   2.302   0.646
  624TIP3    H1 1815   6.512   2.283   0.579
  624TIP3    H2 1816   6.615   2.214   0.668
  625TIP3   OH2 1817   6.444   2.492   0.286
  625TIP3    H1 1818   6.538   2.496   0.264
  625TIP3    H2 1819   6.433   2.574   0.336
  626TIP3   OH2 1820   7.401   2.727   0.464
  626TIP3    H1 1821   7.403   2.820   0.494
  626TIP3    H2 1822   7.333   2.689   0.522
  627TIP3   OH2 1823   6.779   2.493   0.639
  627TIP3    H1 1824   6.829   2.475   0.721
  627TIP3    H2 1825   6.706   2.428   0.645
  628TIP3   OH2 1826   6.961   1.874   0.719
  628TIP3    H1 1827   6.911   1.921   0.785
  628TIP3    H2 1828   6.919   1.787   0.716
  629TIP3   OH2 1829   6.947   2.414   0.855
  629TIP3    H1 1830   7.028   2.443   0.900
  629TIP3    H2 1831   6.884   2.413   0.929
  630TIP3   OH2 1832   7.508   2.452   0.561
  630TIP3    H1 1833   7.518   2.481   0.652
  630TIP3    H2 1834   7.493   2.533   0.513
  631TIP3   OH2 1835   6.701   2.087   0.785
  631TIP3    H1 1836   6.714   2.077   0.881
  631TIP3    H2 1837   6.625   2.029   0.769
  632TIP3   OH2 1838   7.418   2.207   0.800
  632TIP3    H1 1839   7.338   2.158   0.768
  632TIP3    H2 1840   7.479   2.185   0.727
  633TIP3   OH2 1841   7.184   2.831   0.304
  633TIP3    H1 1842   7.193   2.839   0.208
  633TIP3    H2 1843   7.271   2.796   0.331
  634TIP3   OH2 1844   6.624   2.684   0.435
  634TIP3    H1 1845   6.680   2.611   0.466
  634TIP3    H2 1846   6.662   2.758   0.483
  635TIP3   OH2 1847   6.619   2.999   0.844
  635TIP3    H1 1848   6.705   3.000   0.891
  635TIP3    H2 1849   6.601   2.903   0.841
  636TIP3   OH2 1850   7.093   2.954   0.890
  636TIP3    H1 1851   7.188   2.940   0.897
  636TIP3    H2 1852   7.070   2.895   0.815
  637TIP3   OH2 1853   6.746   2.401   1.044
  637TIP3    H1 1854   6.761   2.306   1.053
  637TIP3    H2 1855   6.659   2.404   1.000
  638TIP3   OH2 1856   7.368   2.487   0.816
  638TIP3    H1 1857   7.317   2.506   0.734
  638TIP3    H2 1858   7.385   2.391   0.807
  639TIP3   OH2 1859   6.871   2.130   1.025
  639TIP3    H1 1860   6.954   2.085   1.004
  639TIP3    H2 1861   6.892   2.166   1.114
  640TIP3   OH2 1862   7.213   2.066   0.689
  640TIP3    H1 1863   7.120   2.094   0.698
  640TIP3    H2 1864   7.204   1.993   0.627
  641TIP3   OH2 1865   7.167   1.944   1.054
  641TIP3    H1 1866   7.110   1.873   1.089
  641TIP3    H2 1867   7.194   1.906   0.968
  642TIP3   OH2 1868   7.030   1.715   1.120
  642TIP3    H1 1869   7.062   1.659   1.047
  642TIP3    H2 1870   7.074   1.677   1.199
  643TIP3   OH2 1871   6.353   2.660   0.036
  643TIP3    H1 1872   6.348   2.575   0.082
  643TIP3    H2 1873   6.423   2.705   0.086
  644TIP3   OH2 1874   6.566   2.065   0.413
  644TIP3    H1 1875   6.569   2.005   0.337
  644TIP3    H2 1876   6.661   2.076   0.431
  645TIP3   OH2 1877   6.768   1.752   1.059
  645TIP3    H1 1878   6.864   1.745   1.077
  645TIP3    H2 1879   6.738   1.669   1.103
  646TIP3   OH2 1880   6.782   2.729   0.862
  646TIP3    H1 1881   6.690   2.702   0.846
  646TIP3    H2 1882   6.792   2.712   0.957
  647TIP3   OH2 1883   6.949   2.768   0.420
  647TIP3    H1 1884   6.903   2.837   0.369
  647TIP3    H2 1885   7.040   2.784   0.383
  648TIP3   OH2 1886   7.405   3.003   0.543
  648TIP3    H1 1887   7.451   3.007   0.630
  648TIP3    H2 1888   7.466   3.050   0.484
  649TIP3   OH2 1889   7.574   3.138   0.337
  649TIP3    H1 1890   7.611   3.115   0.250
  649TIP3    H2 1891   7.588   3.234   0.336
  650TIP3   OH2 1892   6.632   3.009   0.452
  650TIP3    H1 1893   6.546   3.046   0.422
  650TIP3    H2 1894   6.646   3.063   0.532
  651TIP3   OH2 1895   6.850   2.996   0.286
  651TIP3    H1 1896   6.775   2.999   0.349
  651TIP3    H2 1897   6.819   3.060   0.221
  652TIP3   OH2 1898   6.534   2.796   0.198
  652TIP3    H1 1899   6.574   2.771   0.284
  652TIP3    H2 1900   6.612   2.779   0.140
  653TIP3   OH2 1901   6.753   2.698   0.071
  653TIP3    H1 1902   6.765   2.612   0.115
  653TIP3    H2 1903   6.831   2.702   0.013
  654TIP3   OH2 1904   0.880   2.670   2.052
  654TIP3    H1 1905   0.807   2.714   2.004
  654TIP3    H2 1906   0.908   2.740   2.114
  655TIP3   OH2 1907   0.353   3.490   1.648
  655TIP3    H1 1908   0.291   3.416   1.659
  655TIP3    H2 1909   0.332   3.522   1.557
  656TIP3   OH2 1910   0.512   3.402   1.985
  656TIP3    H1 1911   0.510   3.323   1.926
  656TIP3    H2 1912   0.504   3.476   1.922
  657TIP3   OH2 1913   0.724   3.024   1.826
  657TIP3    H1 1914   0.648   3.084   1.833
  657TIP3    H2 1915   0.757   3.047   1.736
  658TIP3   OH2 1916   0.441   2.906   2.148
  658TIP3    H1 1917   0.409   2.980   2.203
  658TIP3    H2 1918   0.362   2.887   2.093
  659TIP3   OH2 1919   0.751   3.746   2.025
  659TIP3    H1 1920   0.751   3.649   2.036
  659TIP3    H2 1921   0.667   3.768   2.069
  660TIP3   OH2 1922  -0.130   3.532   2.186
  660TIP3    H1 1923  -0.136   3.630   2.199
  660TIP3    H2 1924  -0.224   3.510   2.181
  661TIP3   OH2 1925   0.656   2.865   2.308
  661TIP3    H1 1926   0.574   2.881   2.256
  661TIP3    H2 1927   0.659   2.768   2.306
  662TIP3   OH2 1928   0.102   2.867   2.521
  662TIP3    H1 1929   0.141   2.782   2.544
  662TIP3    H2 1930   0.184   2.920   2.520
  663TIP3   OH2 1931   0.445   4.090   2.123
  663TIP3    H1 1932   0.442   4.117   2.029
  663TIP3    H2 1933   0.525   4.138   2.153
  664TIP3   OH2 1934   0.496   3.171   1.829
  664TIP3    H1 1935   0.496   3.198   1.734
  664TIP3    H2 1936   0.448   3.087   1.822
  665TIP3   OH2 1937   0.020   3.303   2.193
  665TIP3    H1 1938   0.014   3.268   2.282
  665TIP3    H2 1939  -0.038   3.382   2.198
  666TIP3   OH2 1940   0.128   3.549   2.064
  666TIP3    H1 1941   0.038   3.546   2.101
  666TIP3    H2 1942   0.174   3.592   2.138
  667TIP3   OH2 1943   0.761   3.462   2.076
  667TIP3    H1 1944   0.664   3.448   2.061
  667TIP3    H2 1945   0.796   3.429   1.990
  668TIP3   OH2 1946   0.272   3.781   1.964
  668TIP3    H1 1947   0.196   3.720   1.953
  668TIP3    H2 1948   0.252   3.848   1.894
  669TIP3   OH2 1949   0.658   2.597   2.231
  669TIP3    H1 1950   0.570   2.559   2.219
  669TIP3    H2 1951   0.692   2.602   2.140
  670TIP3   OH2 1952   0.291   3.794   1.575
  670TIP3    H1 1953   0.249   3.802   1.489
  670TIP3    H2 1954   0.386   3.799   1.551
  671TIP3   OH2 1955  -0.454   3.737   2.590
  671TIP3    H1 1956  -0.362   3.744   2.615
  671TIP3    H2 1957  -0.448   3.730   2.494
  672TIP3   OH2 1958   0.196   3.659   2.311
  672TIP3    H1 1959   0.192   3.588   2.378
  672TIP3    H2 1960   0.275   3.709   2.340
  673TIP3   OH2 1961  -0.178   3.287   2.520
  673TIP3    H1 1962  -0.210   3.264   2.430
  673TIP3    H2 1963  -0.125   3.209   2.543
  674TIP3   OH2 1964   0.293   3.267   2.093
  674TIP3    H1 1965   0.354   3.337   2.064
  674TIP3    H2 1966   0.209   3.313   2.111
  675TIP3   OH2 1967   0.386   2.855   2.542
  675TIP3    H1 1968   0.455   2.793   2.567
  675TIP3    H2 1969   0.434   2.938   2.531
  676TIP3   OH2 1970   0.429   3.155   2.298
  676TIP3    H1 1971   0.376   3.187   2.223
  676TIP3    H2 1972   0.520   3.167   2.263
  677TIP3   OH2 1973   0.541   2.548   2.595
  677TIP3    H1 1974   0.539   2.451   2.611
  677TIP3    H2 1975   0.518   2.584   2.682
  678TIP3   OH2 1976   0.554   3.844   1.516
  678TIP3    H1 1977   0.578   3.880   1.604
  678TIP3    H2 1978   0.610   3.897   1.458
  679TIP3   OH2 1979   0.588   3.876   1.796
  679TIP3    H1 1980   0.545   3.787   1.800
  679TIP3    H2 1981   0.667   3.857   1.848
  680TIP3   OH2 1982   0.704   3.358   1.618
  680TIP3    H1 1983   0.729   3.271   1.581
  680TIP3    H2 1984   0.677   3.409   1.540
  681TIP3   OH2 1985   0.473   3.633   1.840
  681TIP3    H1 1986   0.394   3.673   1.882
  681TIP3    H2 1987   0.433   3.587   1.762
  682TIP3   OH2 1988   0.679   3.208   2.196
  682TIP3    H1 1989   0.745   3.135   2.190
  682TIP3    H2 1990   0.708   3.267   2.126
  683TIP3   OH2 1991   0.858   3.007   2.204
  683TIP3    H1 1992   0.785   2.955   2.244
  683TIP3    H2 1993   0.933   2.948   2.227
  684TIP3   OH2 1994   0.648   2.800   1.965
  684TIP3    H1 1995   0.570   2.825   2.018
  684TIP3    H2 1996   0.664   2.884   1.916
  685TIP3   OH2 1997   1.064   2.409   2.515
  685TIP3    H1 1998   1.125   2.347   2.470
  685TIP3    H2 1999   1.028   2.460   2.439
  686TIP3   OH2 2000   0.927   2.543   2.323
  686TIP3    H1 2001   0.842   2.581   2.352
  686TIP3    H2 2002   0.906   2.520   2.231
  687TIP3   OH2 2003  -0.141   3.798   2.238
  687TIP3    H1 2004  -0.101   3.801   2.328
  687TIP3    H2 2005  -0.074   3.849   2.186
  688TIP3   OH2 2006   0.043   3.939   2.098
  688TIP3    H1 2007   0.118   3.893   2.057
  688TIP3    H2 2008   0.090   4.001   2.157
  689TIP3   OH2 2009   0.018   3.765   1.821
  689TIP3    H1 2010  -0.073   3.785   1.844
  689TIP3    H2 2011   0.054   3.852   1.796
  690TIP3   OH2 2012   0.220   3.966   1.768
  690TIP3    H1 2013   0.206   4.050   1.718
  690TIP3    H2 2014   0.245   3.905   1.695
  691TIP3   OH2 2015   0.586   2.279   2.643
  691TIP3    H1 2016   0.600   2.244   2.733
  691TIP3    H2 2017   0.666   2.249   2.597
  692TIP3   OH2 2018   0.496   3.820   2.128
  692TIP3    H1 2019   0.421   3.794   2.071
  692TIP3    H2 2020   0.486   3.918   2.127
  693TIP3   OH2 2021   1.759   3.205   0.871
  693TIP3    H1 2022   1.748   3.286   0.922
  693TIP3    H2 2023   1.699   3.145   0.916
  694TIP3   OH2 2024   1.769   3.187   1.272
  694TIP3    H1 2025   1.807   3.175   1.361
  694TIP3    H2 2026   1.728   3.100   1.258
  695TIP3   OH2 2027   1.075   3.090   1.637
  695TIP3    H1 2028   1.099   3.016   1.697
  695TIP3    H2 2029   1.157   3.140   1.638
  696TIP3   OH2 2030   2.000   3.500   0.966
  696TIP3    H1 2031   2.013   3.429   1.032
  696TIP3    H2 2032   2.040   3.576   1.012
  697TIP3   OH2 2033   1.043   3.491   1.350
  697TIP3    H1 2034   1.039   3.394   1.362
  697TIP3    H2 2035   1.140   3.505   1.348
  698TIP3   OH2 2036   1.667   3.962   0.969
  698TIP3    H1 2037   1.709   3.883   0.932
  698TIP3    H2 2038   1.660   3.941   1.063
  699TIP3   OH2 2039   1.572   3.421   1.316
  699TIP3    H1 2040   1.610   3.339   1.279
  699TIP3    H2 2041   1.656   3.465   1.341
  700TIP3   OH2 2042   2.586   2.739   1.318
  700TIP3    H1 2043   2.614   2.822   1.361
  700TIP3    H2 2044   2.607   2.757   1.225
  701TIP3   OH2 2045   1.987   2.921   1.348
  701TIP3    H1 2046   2.025   2.834   1.370
  701TIP3    H2 2047   1.952   2.904   1.259
  702TIP3   OH2 2048   2.010   2.678   0.952
  702TIP3    H1 2049   2.089   2.660   1.006
  702TIP3    H2 2050   2.050   2.698   0.866
  703TIP3   OH2 2051   1.408   2.977   1.230
  703TIP3    H1 2052   1.501   2.956   1.249
  703TIP3    H2 2053   1.395   2.931   1.146
  704TIP3   OH2 2054   2.659   2.948   1.486
  704TIP3    H1 2055   2.573   2.994   1.469
  704TIP3    H2 2056   2.675   2.977   1.577
  705TIP3   OH2 2057   1.315   2.558   1.753
  705TIP3    H1 2058   1.245   2.602   1.700
  705TIP3    H2 2059   1.273   2.564   1.841
  706TIP3   OH2 2060   1.426   3.342   1.541
  706TIP3    H1 2061   1.364   3.407   1.580
  706TIP3    H2 2062   1.469   3.394   1.471
  707TIP3   OH2 2063   2.225   2.669   1.120
  707TIP3    H1 2064   2.200   2.633   1.206
  707TIP3    H2 2065   2.276   2.749   1.145
  708TIP3   OH2 2066   1.155   2.692   1.579
  708TIP3    H1 2067   1.223   2.763   1.579
  708TIP3    H2 2068   1.179   2.639   1.501
  709TIP3   OH2 2069   1.252   3.535   1.638
  709TIP3    H1 2070   1.228   3.623   1.604
  709TIP3    H2 2071   1.175   3.519   1.696
  710TIP3   OH2 2072   2.080   3.739   1.112
  710TIP3    H1 2073   1.992   3.732   1.154
  710TIP3    H2 2074   2.076   3.828   1.072
  711TIP3   OH2 2075   2.379   2.634   1.482
  711TIP3    H1 2076   2.291   2.664   1.453
  711TIP3    H2 2077   2.437   2.669   1.411
  712TIP3   OH2 2078   1.695   2.292   1.456
  712TIP3    H1 2079   1.656   2.205   1.465
  712TIP3    H2 2080   1.616   2.349   1.466
  713TIP3   OH2 2081   1.792   3.772   0.795
  713TIP3    H1 2082   1.886   3.745   0.791
  713TIP3    H2 2083   1.808   3.860   0.752
  714TIP3   OH2 2084   1.858   3.506   0.728
  714TIP3    H1 2085   1.902   3.461   0.652
  714TIP3    H2 2086   1.925   3.492   0.799
  715TIP3   OH2 2087   2.311   3.651   1.462
  715TIP3    H1 2088   2.299   3.573   1.404
  715TIP3    H2 2089   2.294   3.726   1.401
  716TIP3   OH2 2090   2.507   3.289   1.308
  716TIP3    H1 2091   2.423   3.341   1.314
  716TIP3    H2 2092   2.536   3.313   1.218
  717TIP3   OH2 2093   1.956   3.135   0.685
  717TIP3    H1 2094   1.892   3.149   0.758
  717TIP3    H2 2095   2.035   3.101   0.733
  718TIP3   OH2 2096   2.185   3.165   1.607
  718TIP3    H1 2097   2.184   3.246   1.661
  718TIP3    H2 2098   2.098   3.172   1.562
  719TIP3   OH2 2099   1.313   3.532   1.256
  719TIP3    H1 2100   1.299   3.502   1.165
  719TIP3    H2 2101   1.402   3.496   1.276
  720TIP3   OH2 2102   1.312   3.102   1.460
  720TIP3    H1 2103   1.349   3.070   1.374
  720TIP3    H2 2104   1.362   3.184   1.477
  721TIP3   OH2 2105   1.839   3.731   1.234
  721TIP3    H1 2106   1.829   3.813   1.286
  721TIP3    H2 2107   1.828   3.661   1.302
  722TIP3   OH2 2108   1.458   3.653   1.784
  722TIP3    H1 2109   1.399   3.714   1.832
  722TIP3    H2 2110   1.392   3.599   1.735
  723TIP3   OH2 2111   1.214   3.212   1.888
  723TIP3    H1 2112   1.216   3.299   1.934
  723TIP3    H2 2113   1.121   3.186   1.903
  724TIP3   OH2 2114   1.251   3.818   1.873
  724TIP3    H1 2115   1.216   3.819   1.783
  724TIP3    H2 2116   1.171   3.798   1.927
  725TIP3   OH2 2117   2.096   3.603   0.109
  725TIP3    H1 2118   2.115   3.699   0.093
  725TIP3    H2 2119   2.186   3.565   0.103
  726TIP3   OH2 2120   0.846   3.358   1.847
  726TIP3    H1 2121   0.792   3.351   1.764
  726TIP3    H2 2122   0.880   3.267   1.859
  727TIP3   OH2 2123   0.712   3.575   1.424
  727TIP3    H1 2124   0.807   3.570   1.443
  727TIP3    H2 2125   0.685   3.642   1.490
  728TIP3   OH2 2126   2.549   3.997   1.510
  728TIP3    H1 2127   2.548   3.901   1.526
  728TIP3    H2 2128   2.466   4.023   1.555
  729TIP3   OH2 2129   1.653   3.783   1.641
  729TIP3    H1 2130   1.651   3.875   1.676
  729TIP3    H2 2131   1.583   3.741   1.696
  730TIP3   OH2 2132   1.363   3.903   0.610
  730TIP3    H1 2133   1.364   3.885   0.514
  730TIP3    H2 2134   1.397   3.993   0.615
  731TIP3   OH2 2135   0.849   3.770   0.975
  731TIP3    H1 2136   0.889   3.745   1.060
  731TIP3    H2 2137   0.804   3.686   0.949
  732TIP3   OH2 2138   1.616   3.799   0.258
  732TIP3    H1 2139   1.682   3.752   0.204
  732TIP3    H2 2140   1.669   3.868   0.303
  733TIP3   OH2 2141   2.442   3.127   1.783
  733TIP3    H1 2142   2.355   3.137   1.742
  733TIP3    H2 2143   2.455   3.030   1.776
  734TIP3   OH2 2144   1.041   3.543   1.808
  734TIP3    H1 2145   1.094   3.529   1.890
  734TIP3    H2 2146   0.969   3.478   1.822
  735TIP3   OH2 2147   1.969   2.473   1.790
  735TIP3    H1 2148   2.037   2.448   1.857
  735TIP3    H2 2149   1.885   2.455   1.837
  736TIP3   OH2 2150   2.208   2.904   1.709
  736TIP3    H1 2151   2.157   2.898   1.793
  736TIP3    H2 2152   2.181   2.991   1.674
  737TIP3   OH2 2153   1.366   2.878   1.609
  737TIP3    H1 2154   1.320   2.897   1.693
  737TIP3    H2 2155   1.347   2.960   1.558
  738TIP3   OH2 2156   1.763   2.895   0.845
  738TIP3    H1 2157   1.672   2.875   0.820
  738TIP3    H2 2158   1.810   2.881   0.762
  739TIP3   OH2 2159   1.915   3.119   1.933
  739TIP3    H1 2160   1.892   3.050   1.998
  739TIP3    H2 2161   2.006   3.140   1.961
  740TIP3   OH2 2162   1.895   2.880   1.092
  740TIP3    H1 2163   1.844   2.908   1.013
  740TIP3    H2 2164   1.934   2.797   1.054
  741TIP3   OH2 2165   1.187   2.905   1.820
  741TIP3    H1 2166   1.219   2.959   1.894
  741TIP3    H2 2167   1.169   2.819   1.863
  742TIP3   OH2 2168   1.905   3.121   1.510
  742TIP3    H1 2169   1.940   3.048   1.453
  742TIP3    H2 2170   1.877   3.068   1.588
  743TIP3   OH2 2171   2.068   2.658   1.387
  743TIP3    H1 2172   2.037   2.670   1.480
  743TIP3    H2 2173   2.003   2.592   1.355
  744TIP3   OH2 2174   2.242   4.346   1.610
  744TIP3    H1 2175   2.240   4.371   1.516
  744TIP3    H2 2176   2.321   4.394   1.641
  745TIP3   OH2 2177   1.197   3.460   2.031
  745TIP3    H1 2178   1.279   3.486   2.078
  745TIP3    H2 2179   1.135   3.456   2.106
  746TIP3   OH2 2180   1.669   2.913   1.287
  746TIP3    H1 2181   1.741   2.870   1.238
  746TIP3    H2 2182   1.671   2.866   1.373
  747TIP3   OH2 2183   1.636   2.813   1.572
  747TIP3    H1 2184   1.547   2.849   1.590
  747TIP3    H2 2185   1.694   2.872   1.625
  748TIP3   OH2 2186   2.273   3.434   1.295
  748TIP3    H1 2187   2.299   3.484   1.215
  748TIP3    H2 2188   2.188   3.393   1.268
  749TIP3   OH2 2189   1.772   3.515   1.666
  749TIP3    H1 2190   1.804   3.493   1.754
  749TIP3    H2 2191   1.733   3.603   1.679
  750TIP3   OH2 2192   1.052   3.210   1.343
  750TIP3    H1 2193   1.109   3.178   1.271
  750TIP3    H2 2194   1.092   3.164   1.419
  751TIP3   OH2 2195   0.953   3.131   1.960
  751TIP3    H1 2196   0.969   3.117   2.056
  751TIP3    H2 2197   0.885   3.064   1.942
  752TIP3   OH2 2198   1.677   3.260   1.969
  752TIP3    H1 2199   1.618   3.195   1.928
  752TIP3    H2 2200   1.765   3.224   1.945
  753TIP3   OH2 2201   1.930   3.776   1.560
  753TIP3    H1 2202   1.834   3.775   1.575
  753TIP3    H2 2203   1.960   3.826   1.639
  754TIP3   OH2 2204   2.343   2.845   0.456
  754TIP3    H1 2205   2.275   2.789   0.416
  754TIP3    H2 2206   2.326   2.932   0.413
  755TIP3   OH2 2207   2.561   3.707   1.551
  755TIP3    H1 2208   2.464   3.701   1.544
  755TIP3    H2 2209   2.587   3.677   1.461
  756TIP3   OH2 2210   2.045   3.658   0.378
  756TIP3    H1 2211   2.016   3.576   0.420
  756TIP3    H2 2212   2.055   3.630   0.285
  757TIP3   OH2 2213   2.037   3.300   1.200
  757TIP3    H1 2214   1.948   3.272   1.226
  757TIP3    H2 2215   2.074   3.216   1.165
  758TIP3   OH2 2216   1.197   3.537   0.975
  758TIP3    H1 2217   1.172   3.626   0.940
  758TIP3    H2 2218   1.109   3.497   0.991
  759TIP3   OH2 2219   1.375   3.327   0.959
  759TIP3    H1 2220   1.320   3.408   0.956
  759TIP3    H2 2221   1.306   3.259   0.966
  760TIP3   OH2 2222   1.438   3.865   1.438
  760TIP3    H1 2223   1.479   3.939   1.389
  760TIP3    H2 2224   1.514   3.832   1.489
  761TIP3   OH2 2225   1.102   3.766   0.860
  761TIP3    H1 2226   1.008   3.782   0.882
  761TIP3    H2 2227   1.129   3.854   0.827
  762TIP3   OH2 2228   1.824   3.500   1.399
  762TIP3    H1 2229   1.809   3.503   1.496
  762TIP3    H2 2230   1.909   3.453   1.395
  763TIP3   OH2 2231   1.815   3.422   0.291
  763TIP3    H1 2232   1.869   3.386   0.364
  763TIP3    H2 2233   1.735   3.369   0.298
  764TIP3   OH2 2234   2.072   4.032   1.447
  764TIP3    H1 2235   1.993   3.975   1.443
  764TIP3    H2 2236   2.055   4.096   1.375
  765TIP3   OH2 2237   2.135   3.877   0.095
  765TIP3    H1 2238   2.188   3.954   0.065
  765TIP3    H2 2239   2.058   3.924   0.133
  766TIP3   OH2 2240   1.154   2.642   1.971
  766TIP3    H1 2241   1.057   2.642   1.985
  766TIP3    H2 2242   1.186   2.592   2.047
  767TIP3   OH2 2243   1.971   3.358   0.523
  767TIP3    H1 2244   1.953   3.273   0.570
  767TIP3    H2 2245   2.062   3.339   0.493
  768TIP3   OH2 2246   0.883   3.729   1.606
  768TIP3    H1 2247   0.935   3.661   1.653
  768TIP3    H2 2248   0.904   3.808   1.657
  769TIP3   OH2 2249   2.000   2.707   1.647
  769TIP3    H1 2250   2.074   2.749   1.693
  769TIP3    H2 2251   1.983   2.627   1.702
  770TIP3   OH2 2252   1.382   3.577   0.498
  770TIP3    H1 2253   1.333   3.612   0.574
  770TIP3    H2 2254   1.393   3.657   0.444
  771TIP3   OH2 2255   1.837   2.959   1.719
  771TIP3    H1 2256   1.858   3.013   1.798
  771TIP3    H2 2257   1.888   2.878   1.736
  772TIP3   OH2 2258   2.473   2.857   1.703
  772TIP3    H1 2259   2.375   2.858   1.714
  772TIP3    H2 2260   2.480   2.816   1.616
  773TIP3   OH2 2261   2.124   3.054   1.093
  773TIP3    H1 2262   2.048   2.994   1.106
  773TIP3    H2 2263   2.196   3.006   1.140
  774TIP3   OH2 2264   2.092   4.008   1.037
  774TIP3    H1 2265   2.049   4.057   0.963
  774TIP3    H2 2266   2.186   4.028   1.017
  775TIP3   OH2 2267   0.868   4.042   2.020
  775TIP3    H1 2268   0.954   4.045   2.068
  775TIP3    H2 2269   0.852   3.946   2.019
  776TIP3   OH2 2270   1.342   4.001   2.064
  776TIP3    H1 2271   1.436   3.984   2.076
  776TIP3    H2 2272   1.321   3.939   1.991
  777TIP3   OH2 2273   1.989   3.906   1.794
  777TIP3    H1 2274   1.978   3.838   1.864
  777TIP3    H2 2275   2.063   3.959   1.828
  778TIP3   OH2 2276   1.776   3.611   0.099
  778TIP3    H1 2277   1.794   3.556   0.178
  778TIP3    H2 2278   1.865   3.627   0.066
  779TIP3   OH2 2279   0.994   3.442   2.224
  779TIP3    H1 2280   1.016   3.347   2.225
  779TIP3    H2 2281   0.911   3.444   2.173
  780TIP3   OH2 2282   1.602   3.532   1.995
  780TIP3    H1 2283   1.562   3.549   1.908
  780TIP3    H2 2284   1.637   3.440   1.986
  781TIP3   OH2 2285   2.093   3.540   1.597
  781TIP3    H1 2286   2.170   3.586   1.557
  781TIP3    H2 2287   2.024   3.608   1.587
  782TIP3   OH2 2288   1.118   3.182   2.202
  782TIP3    H1 2289   1.195   3.130   2.178
  782TIP3    H2 2290   1.144   3.212   2.292
  783TIP3   OH2 2291   1.449   3.061   1.863
  783TIP3    H1 2292   1.373   3.123   1.866
  783TIP3    H2 2293   1.499   3.095   1.785
  784TIP3   OH2 2294   1.964   3.465   1.991
  784TIP3    H1 2295   2.050   3.440   1.957
  784TIP3    H2 2296   1.956   3.405   2.068
  785TIP3   OH2 2297   1.574   2.852   1.989
  785TIP3    H1 2298   1.573   2.772   1.932
  785TIP3    H2 2299   1.530   2.919   1.932
  786TIP3   OH2 2300   1.574   2.638   1.795
  786TIP3    H1 2301   1.600   2.680   1.710
  786TIP3    H2 2302   1.481   2.611   1.777
  787TIP3   OH2 2303   1.598   3.168   1.665
  787TIP3    H1 2304   1.686   3.183   1.628
  787TIP3    H2 2305   1.545   3.238   1.623
  788TIP3   OH2 2306   2.181   3.136   2.046
  788TIP3    H1 2307   2.232   3.057   2.072
  788TIP3    H2 2308   2.251   3.199   2.023
  789TIP3   OH2 2309   2.226   3.392   1.782
  789TIP3    H1 2310   2.167   3.447   1.726
  789TIP3    H2 2311   2.313   3.415   1.743
  790TIP3   OH2 2312   1.444   2.964   2.213
  790TIP3    H1 2313   1.381   2.892   2.233
  790TIP3    H2 2314   1.484   2.933   2.130
  791TIP3   OH2 2315   1.708   2.404   1.865
  791TIP3    H1 2316   1.660   2.487   1.844
  791TIP3    H2 2317   1.639   2.338   1.843
  792TIP3   OH2 2318   1.836   2.905   2.080
  792TIP3    H1 2319   1.828   2.896   2.177
  792TIP3    H2 2320   1.745   2.880   2.054
  793TIP3   OH2 2321   2.070   2.845   1.933
  793TIP3    H1 2322   1.996   2.855   1.996
  793TIP3    H2 2323   2.144   2.822   1.992
  794TIP3   OH2 2324   2.307   2.795   2.081
  794TIP3    H1 2325   2.315   2.700   2.103
  794TIP3    H2 2326   2.296   2.836   2.170
  795TIP3   OH2 2327   1.291   2.744   2.278
  795TIP3    H1 2328   1.292   2.650   2.248
  795TIP3    H2 2329   1.327   2.735   2.368
  796TIP3   OH2 2330   1.798   2.411   2.125
  796TIP3    H1 2331   1.866   2.341   2.117
  796TIP3    H2 2332   1.758   2.406   2.036
  797TIP3   OH2 2333   1.865   2.625   2.285
  797TIP3    H1 2334   1.843   2.555   2.220
  797TIP3    H2 2335   1.788   2.685   2.277
  798TIP3   OH2 2336   0.620   3.730   1.217
  798TIP3    H1 2337   0.649   3.666   1.285
  798TIP3    H2 2338   0.668   3.808   1.248
  799TIP3   OH2 2339   2.348   4.096   1.000
  799TIP3    H1 2340   2.373   4.129   1.089
  799TIP3    H2 2341   2.409   4.143   0.943
  800TIP3   OH2 2342   2.376   4.120   1.282
  800TIP3    H1 2343   2.332   4.032   1.278
  800TIP3    H2 2344   2.450   4.097   1.341
  801TIP3   OH2 2345   2.421   3.797   1.854
  801TIP3    H1 2346   2.350   3.805   1.920
  801TIP3    H2 2347   2.464   3.885   1.860
  802TIP3   OH2 2348   2.242   3.304   0.467
  802TIP3    H1 2349   2.309   3.371   0.440
  802TIP3    H2 2350   2.284   3.267   0.548
  803TIP3   OH2 2351   2.365   3.177   0.677
  803TIP3    H1 2352   2.300   3.134   0.737
  803TIP3    H2 2353   2.431   3.214   0.741
  804TIP3   OH2 2354   2.419   3.569   1.105
  804TIP3    H1 2355   2.476   3.504   1.060
  804TIP3    H2 2356   2.420   3.645   1.043
  805TIP3   OH2 2357   2.250   3.869   1.302
  805TIP3    H1 2358   2.180   3.912   1.355
  805TIP3    H2 2359   2.199   3.823   1.232
  806TIP3   OH2 2360   2.283   3.077   0.312
  806TIP3    H1 2361   2.218   3.097   0.241
  806TIP3    H2 2362   2.266   3.153   0.371
  807TIP3   OH2 2363   2.179   3.035   0.823
  807TIP3    H1 2364   2.175   2.938   0.810
  807TIP3    H2 2365   2.166   3.044   0.920
  808TIP3   OH2 2366   0.813   3.107   1.575
  808TIP3    H1 2367   0.816   3.064   1.489
  808TIP3    H2 2368   0.909   3.106   1.599
  809TIP3   OH2 2369   2.471   3.460   1.679
  809TIP3    H1 2370   2.542   3.393   1.669
  809TIP3    H2 2371   2.500   3.530   1.618
  810TIP3   OH2 2372   2.655   3.262   1.687
  810TIP3    H1 2373   2.580   3.214   1.729
  810TIP3    H2 2374   2.727   3.198   1.706
  811TIP3   OH2 2375   2.174   2.771   0.735
  811TIP3    H1 2376   2.218   2.690   0.769
  811TIP3    H2 2377   2.230   2.789   0.659
  812TIP3   OH2 2378   2.336   2.922   1.212
  812TIP3    H1 2379   2.422   2.947   1.171
  812TIP3    H2 2380   2.350   2.959   1.301
  813TIP3   OH2 2381   2.407   3.067   1.443
  813TIP3    H1 2382   2.331   3.100   1.495
  813TIP3    H2 2383   2.439   3.150   1.400
  814TIP3   OH2 2384   1.026   2.801   2.256
  814TIP3    H1 2385   1.124   2.793   2.257
  814TIP3    H2 2386   1.002   2.717   2.301
  815TIP3   OH2 2387   2.860   2.662   2.000
  815TIP3    H1 2388   2.919   2.597   1.956
  815TIP3    H2 2389   2.829   2.715   1.924
  816TIP3   OH2 2390   2.296   2.545   0.800
  816TIP3    H1 2391   2.331   2.496   0.877
  816TIP3    H2 2392   2.264   2.476   0.739
  817TIP3   OH2 2393   2.728   2.798   1.806
  817TIP3    H1 2394   2.644   2.841   1.832
  817TIP3    H2 2395   2.694   2.728   1.748
  818TIP3   OH2 2396   1.958   3.942   0.678
  818TIP3    H1 2397   1.971   3.947   0.581
  818TIP3    H2 2398   1.983   4.031   0.706
  819TIP3   OH2 2399   1.031   3.773   2.037
  819TIP3    H1 2400   0.937   3.748   2.027
  819TIP3    H2 2401   1.046   3.756   2.131
  820TIP3   OH2 2402   1.211   3.804   1.586
  820TIP3    H1 2403   1.164   3.881   1.549
  820TIP3    H2 2404   1.297   3.818   1.541
  821TIP3   OH2 2405   1.652   4.048   1.724
  821TIP3    H1 2406   1.693   4.046   1.813
  821TIP3    H2 2407   1.719   4.100   1.674
  822TIP3   OH2 2408   1.833   4.201   1.585
  822TIP3    H1 2409   1.906   4.149   1.548
  822TIP3    H2 2410   1.883   4.259   1.647
  823TIP3   OH2 2411   2.628   2.562   1.684
  823TIP3    H1 2412   2.537   2.556   1.650
  823TIP3    H2 2413   2.659   2.469   1.674
  824TIP3   OH2 2414   0.886   4.057   1.617
  824TIP3    H1 2415   0.796   4.088   1.594
  824TIP3    H2 2416   0.902   4.110   1.697
  825TIP3   OH2 2417   1.121   4.039   1.471
  825TIP3    H1 2418   1.034   4.051   1.516
  825TIP3    H2 2419   1.102   4.072   1.381
  826TIP3   OH2 2420   1.549   4.066   1.266
  826TIP3    H1 2421   1.477   4.086   1.203
  826TIP3    H2 2422   1.560   4.154   1.310
  827TIP3   OH2 2423   1.817   4.002   1.313
  827TIP3    H1 2424   1.723   4.024   1.300
  827TIP3    H2 2425   1.860   4.081   1.276
  828TIP3   OH2 2426   2.022   4.197   1.232
  828TIP3    H1 2427   2.008   4.282   1.186
  828TIP3    H2 2428   2.047   4.138   1.157
  829TIP3   OH2 2429   0.811   3.871   1.363
  829TIP3    H1 2430   0.835   3.842   1.453
  829TIP3    H2 2431   0.877   3.819   1.311
  830TIP3   OH2 2432   0.987   3.724   1.214
  830TIP3    H1 2433   1.006   3.640   1.262
  830TIP3    H2 2434   1.077   3.762   1.206
  831TIP3   OH2 2435   1.257   3.818   1.221
  831TIP3    H1 2436   1.286   3.726   1.209
  831TIP3    H2 2437   1.305   3.841   1.303
  832TIP3   OH2 2438   1.844   2.482   1.311
  832TIP3    H1 2439   1.795   2.420   1.369
  832TIP3    H2 2440   1.877   2.423   1.243
  833TIP3   OH2 2441   2.372   2.337   1.206
  833TIP3    H1 2442   2.410   2.399   1.141
  833TIP3    H2 2443   2.280   2.371   1.215
  834TIP3   OH2 2444   2.474   2.460   0.990
  834TIP3    H1 2445   2.542   2.408   0.943
  834TIP3    H2 2446   2.500   2.551   0.965
  835TIP3   OH2 2447   2.104   2.372   1.226
  835TIP3    H1 2448   2.057   2.379   1.142
  835TIP3    H2 2449   2.071   2.286   1.258
  836TIP3   OH2 2450   1.363   3.813   0.348
  836TIP3    H1 2451   1.453   3.816   0.309
  836TIP3    H2 2452   1.308   3.788   0.272
  837TIP3   OH2 2453   2.082   3.931   0.419
  837TIP3    H1 2454   2.070   3.834   0.409
  837TIP3    H2 2455   2.020   3.965   0.352
  838TIP3   OH2 2456   1.283   2.476   2.222
  838TIP3    H1 2457   1.253   2.398   2.272
  838TIP3    H2 2458   1.379   2.471   2.239
  839TIP3   OH2 2459   1.539   2.463   2.329
  839TIP3    H1 2460   1.624   2.440   2.288
  839TIP3    H2 2461   1.528   2.392   2.394
  840TIP3   OH2 2462   2.364   2.523   2.117
  840TIP3    H1 2463   2.382   2.496   2.209
  840TIP3    H2 2464   2.453   2.521   2.077
  841TIP3   OH2 2465   2.302   4.076   1.607
  841TIP3    H1 2466   2.222   4.045   1.561
  841TIP3    H2 2467   2.282   4.172   1.616
  842TIP3   OH2 2468   3.572   3.453   0.371
  842TIP3    H1 2469   3.540   3.543   0.350
  842TIP3    H2 2470   3.494   3.400   0.344
  843TIP3   OH2 2471   3.569   3.449   0.761
  843TIP3    H1 2472   3.604   3.424   0.848
  843TIP3    H2 2473   3.527   3.366   0.733
  844TIP3   OH2 2474   2.865   3.342   1.123
  844TIP3    H1 2475   2.895   3.274   1.186
  844TIP3    H2 2476   2.943   3.399   1.119
  845TIP3   OH2 2477   3.815   3.754   0.439
  845TIP3    H1 2478   3.796   3.686   0.505
  845TIP3    H2 2479   3.842   3.829   0.494
  846TIP3   OH2 2480   2.840   3.754   0.844
  846TIP3    H1 2481   2.831   3.657   0.846
  846TIP3    H2 2482   2.937   3.763   0.840
  847TIP3   OH2 2483   2.547   2.965   0.629
  847TIP3    H1 2484   2.496   3.047   0.644
  847TIP3    H2 2485   2.475   2.904   0.605
  848TIP3   OH2 2486   2.602   3.244   0.807
  848TIP3    H1 2487   2.652   3.166   0.842
  848TIP3    H2 2488   2.664   3.279   0.742
  849TIP3   OH2 2489   3.462   4.212   0.454
  849TIP3    H1 2490   3.508   4.140   0.406
  849TIP3    H2 2491   3.453   4.175   0.542
  850TIP3   OH2 2492   3.366   3.676   0.805
  850TIP3    H1 2493   3.406   3.598   0.762
  850TIP3    H2 2494   3.448   3.722   0.830
  851TIP3   OH2 2495   4.388   2.995   0.803
  851TIP3    H1 2496   4.412   3.080   0.846
  851TIP3    H2 2497   4.398   3.018   0.710
  852TIP3   OH2 2498   3.782   3.178   0.834
  852TIP3    H1 2499   3.825   3.092   0.856
  852TIP3    H2 2500   3.748   3.159   0.745
  853TIP3   OH2 2501   3.118   2.835   0.802
  853TIP3    H1 2502   3.098   2.907   0.739
  853TIP3    H2 2503   3.071   2.761   0.758
  854TIP3   OH2 2504   3.811   2.927   0.423
  854TIP3    H1 2505   3.881   2.913   0.491
  854TIP3    H2 2506   3.865   2.961   0.350
  855TIP3   OH2 2507   2.751   3.037   0.909
  855TIP3    H1 2508   2.834   3.017   0.956
  855TIP3    H2 2509   2.763   2.981   0.829
  856TIP3   OH2 2510   3.191   3.236   0.704
  856TIP3    H1 2511   3.285   3.211   0.717
  856TIP3    H2 2512   3.152   3.152   0.673
  857TIP3   OH2 2513   4.457   3.209   0.969
  857TIP3    H1 2514   4.370   3.251   0.951
  857TIP3    H2 2515   4.462   3.221   1.065
  858TIP3   OH2 2516   3.114   2.820   1.237
  858TIP3    H1 2517   3.054   2.856   1.169
  858TIP3    H2 2518   3.061   2.837   1.318
  859TIP3   OH2 2519   3.463   3.675   0.241
  859TIP3    H1 2520   3.415   3.655   0.159
  859TIP3    H2 2521   3.417   3.756   0.270
  860TIP3   OH2 2522   3.220   3.595   1.029
  860TIP3    H1 2523   3.159   3.663   1.066
  860TIP3    H2 2524   3.263   3.645   0.956
  861TIP3   OH2 2525   4.017   2.929   0.597
  861TIP3    H1 2526   4.041   2.856   0.657
  861TIP3    H2 2527   4.066   3.004   0.635
  862TIP3   OH2 2528   2.985   2.934   1.020
  862TIP3    H1 2529   3.047   3.007   1.043
  862TIP3    H2 2530   3.035   2.893   0.946
  863TIP3   OH2 2531   3.050   3.791   1.128
  863TIP3    H1 2532   3.024   3.879   1.092
  863TIP3    H2 2533   2.971   3.774   1.184
  864TIP3   OH2 2534   2.441   3.480   0.370
  864TIP3    H1 2535   2.402   3.503   0.283
  864TIP3    H2 2536   2.471   3.568   0.402
  865TIP3   OH2 2537   3.882   3.994   0.603
  865TIP3    H1 2538   3.792   3.986   0.644
  865TIP3    H2 2539   3.874   4.082   0.560
  866TIP3   OH2 2540   4.174   2.904   0.974
  866TIP3    H1 2541   4.084   2.919   0.939
  866TIP3    H2 2542   4.230   2.923   0.896
  867TIP3   OH2 2543   3.467   2.536   0.952
  867TIP3    H1 2544   3.453   2.441   0.970
  867TIP3    H2 2545   3.390   2.574   0.998
  868TIP3   OH2 2546   3.584   4.041   0.273
  868TIP3    H1 2547   3.634   3.958   0.255
  868TIP3    H2 2548   3.649   4.106   0.240
  869TIP3   OH2 2549   3.728   3.823   0.186
  869TIP3    H1 2550   3.675   3.747   0.161
  869TIP3    H2 2551   3.767   3.792   0.271
  870TIP3   OH2 2552   4.108   3.907   0.949
  870TIP3    H1 2553   4.094   3.829   0.890
  870TIP3    H2 2554   4.088   3.982   0.889
  871TIP3   OH2 2555   3.400   3.300   0.208
  871TIP3    H1 2556   3.320   3.352   0.188
  871TIP3    H2 2557   3.444   3.297   0.121
  872TIP3   OH2 2558   3.351   3.076  -0.062
  872TIP3    H1 2559   3.423   3.135  -0.034
  872TIP3    H2 2560   3.399   2.995  -0.083
  873TIP3   OH2 2561   4.304   3.549   0.796
  873TIP3    H1 2562   4.218   3.598   0.801
  873TIP3    H2 2563   4.332   3.572   0.705
  874TIP3   OH2 2564   3.747   3.381   0.176
  874TIP3    H1 2565   3.692   3.407   0.253
  874TIP3    H2 2566   3.830   3.356   0.221
  875TIP3   OH2 2567   3.981   3.422   1.092
  875TIP3    H1 2568   3.977   3.506   1.143
  875TIP3    H2 2569   3.895   3.425   1.047
  876TIP3   OH2 2570   2.980   3.380   0.594
  876TIP3    H1 2571   2.941   3.321   0.526
  876TIP3    H2 2572   3.056   3.327   0.625
  877TIP3   OH2 2573   3.110   3.794   0.742
  877TIP3    H1 2574   3.089   3.755   0.656
  877TIP3    H2 2575   3.199   3.758   0.760
  878TIP3   OH2 2576   3.114   3.353   0.949
  878TIP3    H1 2577   3.149   3.329   0.860
  878TIP3    H2 2578   3.158   3.438   0.968
  879TIP3   OH2 2579   3.643   3.990   0.727
  879TIP3    H1 2580   3.628   4.071   0.780
  879TIP3    H2 2581   3.626   3.918   0.790
  880TIP3   OH2 2582   3.254   3.909   1.274
  880TIP3    H1 2583   3.193   3.970   1.320
  880TIP3    H2 2584   3.189   3.856   1.224
  881TIP3   OH2 2585   3.585   3.242  -0.001
  881TIP3    H1 2586   3.644   3.300   0.053
  881TIP3    H2 2587   3.616   3.265  -0.091
  882TIP3   OH2 2588   3.008   3.464   1.376
  882TIP3    H1 2589   3.013   3.552   1.419
  882TIP3    H2 2590   2.914   3.444   1.390
  883TIP3   OH2 2591   3.333   3.917   0.283
  883TIP3    H1 2592   3.411   3.974   0.293
  883TIP3    H2 2593   3.269   3.975   0.240
  884TIP3   OH2 2594   3.047   4.075   1.361
  884TIP3    H1 2595   3.012   4.076   1.270
  884TIP3    H2 2596   2.967   4.054   1.414
  885TIP3   OH2 2597   4.105   2.483   0.051
  885TIP3    H1 2598   4.022   2.500   0.100
  885TIP3    H2 2599   4.113   2.564  -0.002
  886TIP3   OH2 2600   2.850   3.224   0.389
  886TIP3    H1 2601   2.777   3.269   0.341
  886TIP3    H2 2602   2.808   3.141   0.415
  887TIP3   OH2 2603   2.626   3.608   1.308
  887TIP3    H1 2604   2.560   3.584   1.239
  887TIP3    H2 2605   2.665   3.521   1.332
  888TIP3   OH2 2606   2.481   3.799   0.942
  888TIP3    H1 2607   2.577   3.797   0.932
  888TIP3    H2 2608   2.468   3.879   0.995
  889TIP3   OH2 2609   4.346   4.254   0.999
  889TIP3    H1 2610   4.344   4.158   1.014
  889TIP3    H2 2611   4.262   4.280   1.043
  890TIP3   OH2 2612   3.451   4.038   1.131
  890TIP3    H1 2613   3.448   4.130   1.163
  890TIP3    H2 2614   3.379   3.997   1.185
  891TIP3   OH2 2615   3.207   4.168   0.083
  891TIP3    H1 2616   3.160   4.149  -0.000
  891TIP3    H2 2617   3.175   4.257   0.106
  892TIP3   OH2 2618   2.650   4.016   0.467
  892TIP3    H1 2619   2.697   4.006   0.553
  892TIP3    H2 2620   2.595   3.936   0.468
  893TIP3   OH2 2621   3.425   4.030  -0.231
  893TIP3    H1 2622   3.515   3.996  -0.244
  893TIP3    H2 2623   3.433   4.061  -0.139
  894TIP3   OH2 2624   3.463   4.115   0.022
  894TIP3    H1 2625   3.372   4.129   0.057
  894TIP3    H2 2626   3.510   4.083   0.101
  895TIP3   OH2 2627   4.236   3.383   1.269
  895TIP3    H1 2628   4.151   3.394   1.223
  895TIP3    H2 2629   4.251   3.287   1.259
  896TIP3   OH2 2630   2.832   3.791   1.292
  896TIP3    H1 2631   2.880   3.775   1.376
  896TIP3    H2 2632   2.757   3.728   1.301
  897TIP3   OH2 2633   3.230   2.614   1.083
  897TIP3    H1 2634   3.141   2.583   1.054
  897TIP3    H2 2635   3.204   2.695   1.130
  898TIP3   OH2 2636   3.764   2.731   1.276
  898TIP3    H1 2637   3.833   2.702   1.340
  898TIP3    H2 2638   3.681   2.710   1.324
  899TIP3   OH2 2639   4.006   3.162   1.198
  899TIP3    H1 2640   3.953   3.157   1.281
  899TIP3    H2 2641   3.977   3.247   1.159
  900TIP3   OH2 2642   3.672   3.304  -0.252
  900TIP3    H1 2643   3.664   3.266  -0.340
  900TIP3    H2 2644   3.707   3.393  -0.270
  901TIP3   OH2 2645   3.390   2.686   0.055
  901TIP3    H1 2646   3.355   2.675   0.146
  901TIP3    H2 2647   3.362   2.604   0.015
  902TIP3   OH2 2648   3.162   3.131   1.099
  902TIP3    H1 2649   3.112   3.150   1.180
  902TIP3    H2 2650   3.145   3.212   1.046
  903TIP3   OH2 2651   3.044   3.019   0.616
  903TIP3    H1 2652   2.952   2.989   0.634
  903TIP3    H2 2653   3.058   2.977   0.528
  904TIP3   OH2 2654   3.537   3.102   0.344
  904TIP3    H1 2655   3.485   3.172   0.299
  904TIP3    H2 2656   3.591   3.067   0.270
  905TIP3   OH2 2657   3.711   3.378   1.426
  905TIP3    H1 2658   3.688   3.305   1.488
  905TIP3    H2 2659   3.805   3.391   1.449
  906TIP3   OH2 2660   3.694   3.129   0.577
  906TIP3    H1 2661   3.630   3.154   0.507
  906TIP3    H2 2662   3.729   3.047   0.536
  907TIP3   OH2 2663   2.981   3.158   1.307
  907TIP3    H1 2664   3.008   3.222   1.376
  907TIP3    H2 2665   2.969   3.076   1.359
  908TIP3   OH2 2666   3.034   2.615   0.024
  908TIP3    H1 2667   3.040   2.623   0.121
  908TIP3    H2 2668   2.949   2.657   0.009
  909TIP3   OH2 2669   2.584   2.683   0.882
  909TIP3    H1 2670   2.650   2.718   0.946
  909TIP3    H2 2671   2.640   2.648   0.812
  910TIP3   OH2 2672   2.599   2.719   0.447
  910TIP3    H1 2673   2.640   2.737   0.360
  910TIP3    H2 2674   2.523   2.780   0.446
  911TIP3   OH2 2675   3.706   3.375   1.000
  911TIP3    H1 2676   3.738   3.303   0.941
  911TIP3    H2 2677   3.675   3.322   1.076
  912TIP3   OH2 2678   3.374   2.847   0.673
  912TIP3    H1 2679   3.296   2.839   0.732
  912TIP3    H2 2680   3.448   2.826   0.733
  913TIP3   OH2 2681   2.808   2.894   0.679
  913TIP3    H1 2682   2.715   2.901   0.649
  913TIP3    H2 2683   2.832   2.803   0.654
  914TIP3   OH2 2684   3.079   2.893   0.378
  914TIP3    H1 2685   3.173   2.907   0.359
  914TIP3    H2 2686   3.034   2.914   0.293
  915TIP3   OH2 2687   3.871   2.920   0.884
  915TIP3    H1 2688   3.828   2.927   0.972
  915TIP3    H2 2689   3.818   2.852   0.840
  916TIP3   OH2 2690   2.923   2.921   0.158
  916TIP3    H1 2691   2.829   2.899   0.145
  916TIP3    H2 2692   2.953   2.958   0.074
  917TIP3   OH2 2693   4.038   4.602   1.096
  917TIP3    H1 2694   4.035   4.628   1.002
  917TIP3    H2 2695   4.117   4.652   1.127
  918TIP3   OH2 2696   2.993   3.713   1.515
  918TIP3    H1 2697   3.072   3.743   1.564
  918TIP3    H2 2698   2.928   3.711   1.587
  919TIP3   OH2 2699   3.456   3.171   0.774
  919TIP3    H1 2700   3.525   3.124   0.723
  919TIP3    H2 2701   3.459   3.125   0.860
  920TIP3   OH2 2702   2.976   2.652   0.651
  920TIP3    H1 2703   2.937   2.575   0.697
  920TIP3    H2 2704   3.020   2.608   0.577
  921TIP3   OH2 2705   3.432   3.067   1.058
  921TIP3    H1 2706   3.342   3.101   1.075
  921TIP3    H2 2707   3.488   3.128   1.110
  922TIP3   OH2 2708   3.171   3.453   0.154
  922TIP3    H1 2709   3.097   3.390   0.143
  922TIP3    H2 2710   3.152   3.488   0.245
  923TIP3   OH2 2711   4.068   3.689   0.783
  923TIP3    H1 2712   4.090   3.740   0.702
  923TIP3    H2 2713   3.983   3.647   0.758
  924TIP3   OH2 2714   3.647   2.767   0.009
  924TIP3    H1 2715   3.552   2.742   0.015
  924TIP3    H2 2716   3.648   2.860   0.036
  925TIP3   OH2 2717   3.569   3.773   1.153
  925TIP3    H1 2718   3.594   3.753   1.244
  925TIP3    H2 2719   3.529   3.862   1.161
  926TIP3   OH2 2720   3.694   3.015   0.125
  926TIP3    H1 2721   3.790   3.017   0.140
  926TIP3    H2 2722   3.678   3.094   0.070
  927TIP3   OH2 2723   2.862   3.476   0.830
  927TIP3    H1 2724   2.902   3.447   0.745
  927TIP3    H2 2725   2.905   3.417   0.893
  928TIP3   OH2 2726   3.314   3.603  -0.027
  928TIP3    H1 2727   3.268   3.690  -0.017
  928TIP3    H2 2728   3.261   3.548   0.035
  929TIP3   OH2 2729   2.745   3.395   1.444
  929TIP3    H1 2730   2.762   3.382   1.540
  929TIP3    H2 2731   2.674   3.330   1.428
  930TIP3   OH2 2732   3.469   3.513   1.465
  930TIP3    H1 2733   3.408   3.453   1.419
  930TIP3    H2 2734   3.556   3.477   1.436
  931TIP3   OH2 2735   3.728   4.032   1.050
  931TIP3    H1 2736   3.632   4.030   1.063
  931TIP3    H2 2737   3.756   4.084   1.128
  932TIP3   OH2 2738   4.134   3.105  -0.045
  932TIP3    H1 2739   4.073   3.061  -0.110
  932TIP3    H2 2740   4.129   3.195  -0.082
  933TIP3   OH2 2741   4.358   3.963   1.038
  933TIP3    H1 2742   4.260   3.957   1.030
  933TIP3    H2 2743   4.383   3.933   0.948
  934TIP3   OH2 2744   3.865   3.914  -0.144
  934TIP3    H1 2745   3.829   3.865  -0.069
  934TIP3    H2 2746   3.814   3.879  -0.219
  935TIP3   OH2 2747   3.835   3.552   0.699
  935TIP3    H1 2748   3.742   3.528   0.714
  935TIP3    H2 2749   3.868   3.471   0.656
  936TIP3   OH2 2750   2.964   3.780   0.456
  936TIP3    H1 2751   2.962   3.862   0.402
  936TIP3    H2 2752   2.870   3.765   0.470
  937TIP3   OH2 2753   2.529   3.083   0.174
  937TIP3    H1 2754   2.571   3.170   0.188
  937TIP3    H2 2755   2.444   3.094   0.221
  938TIP3   OH2 2756   3.097   3.545   0.398
  938TIP3    H1 2757   3.063   3.635   0.417
  938TIP3    H2 2758   3.063   3.495   0.474
  939TIP3   OH2 2759   3.234   4.123   0.925
  939TIP3    H1 2760   3.275   4.196   0.874
  939TIP3    H2 2761   3.310   4.088   0.973
  940TIP3   OH2 2762   2.883   4.019   0.310
  940TIP3    H1 2763   2.796   4.028   0.355
  940TIP3    H2 2764   2.915   4.112   0.312
  941TIP3   OH2 2765   3.619   3.759   0.885
  941TIP3    H1 2766   3.608   3.758   0.983
  941TIP3    H2 2767   3.698   3.704   0.875
  942TIP3   OH2 2768   3.577   3.615  -0.229
  942TIP3    H1 2769   3.641   3.609  -0.155
  942TIP3    H2 2770   3.494   3.626  -0.182
  943TIP3   OH2 2771   3.869   4.289   0.934
  943TIP3    H1 2772   3.789   4.234   0.928
  943TIP3    H2 2773   3.853   4.354   0.862
  944TIP3   OH2 2774   2.952   2.902   1.451
  944TIP3    H1 2775   2.856   2.907   1.464
  944TIP3    H2 2776   2.980   2.846   1.525
  945TIP3   OH2 2777   3.754   3.579  -0.020
  945TIP3    H1 2778   3.745   3.516   0.054
  945TIP3    H2 2779   3.851   3.584  -0.027
  946TIP3   OH2 2780   2.672   3.985   1.083
  946TIP3    H1 2781   2.725   3.913   1.120
  946TIP3    H2 2782   2.695   4.058   1.141
  947TIP3   OH2 2783   2.965   3.644  -0.227
  947TIP3    H1 2784   2.970   3.556  -0.265
  947TIP3    H2 2785   2.936   3.628  -0.135
  948TIP3   OH2 2786   2.904   3.637   0.044
  948TIP3    H1 2787   2.976   3.614   0.104
  948TIP3    H2 2788   2.908   3.735   0.047
  949TIP3   OH2 2789   2.639   3.331   0.246
  949TIP3    H1 2790   2.574   3.378   0.303
  949TIP3    H2 2791   2.652   3.399   0.177
  950TIP3   OH2 2792   3.789   2.970   1.142
  950TIP3    H1 2793   3.873   3.003   1.176
  950TIP3    H2 2794   3.776   2.887   1.193
  951TIP3   OH2 2795   3.667   2.718   0.299
  951TIP3    H1 2796   3.662   2.740   0.204
  951TIP3    H2 2797   3.710   2.799   0.336
  952TIP3   OH2 2798   3.176   3.833  -0.007
  952TIP3    H1 2799   3.089   3.863   0.026
  952TIP3    H2 2800   3.183   3.885  -0.088
  953TIP3   OH2 2801   3.356   2.899   0.403
  953TIP3    H1 2802   3.423   2.969   0.387
  953TIP3    H2 2803   3.363   2.888   0.500
  954TIP3   OH2 2804   3.630   3.214   1.207
  954TIP3    H1 2805   3.654   3.265   1.287
  954TIP3    H2 2806   3.683   3.133   1.217
  955TIP3   OH2 2807   3.505   2.619   0.503
  955TIP3    H1 2808   3.514   2.688   0.570
  955TIP3    H2 2809   3.565   2.654   0.433
  956TIP3   OH2 2810   2.919   3.908   0.059
  956TIP3    H1 2811   2.890   3.978  -0.004
  956TIP3    H2 2812   2.902   3.952   0.146
  957TIP3   OH2 2813   3.029   2.633   0.303
  957TIP3    H1 2814   3.026   2.723   0.342
  957TIP3    H2 2815   3.125   2.615   0.312
  958TIP3   OH2 2816   4.269   3.112   1.183
  958TIP3    H1 2817   4.172   3.118   1.198
  958TIP3    H2 2818   4.268   3.056   1.103
  959TIP3   OH2 2819   3.921   3.308   0.577
  959TIP3    H1 2820   3.843   3.250   0.590
  959TIP3    H2 2821   3.990   3.260   0.627
  960TIP3   OH2 2822   2.633   3.541   0.055
  960TIP3    H1 2823   2.705   3.606   0.063
  960TIP3    H2 2824   2.675   3.480  -0.009
  961TIP3   OH2 2825   2.626   2.831   0.166
  961TIP3    H1 2826   2.591   2.923   0.167
  961TIP3    H2 2827   2.555   2.784   0.120
  962TIP3   OH2 2828   3.891   4.264   0.528
  962TIP3    H1 2829   3.846   4.313   0.456
  962TIP3    H2 2830   3.985   4.284   0.506
  963TIP3   OH2 2831   2.965   2.536   1.057
  963TIP3    H1 2832   2.933   2.503   0.970
  963TIP3    H2 2833   2.955   2.456   1.113
  964TIP3   OH2 2834   2.501   3.751   0.434
  964TIP3    H1 2835   2.436   3.783   0.498
  964TIP3    H2 2836   2.469   3.794   0.351
  965TIP3   OH2 2837   2.663   4.300   1.506
  965TIP3    H1 2838   2.749   4.300   1.554
  965TIP3    H2 2839   2.643   4.205   1.506
  966TIP3   OH2 2840   3.141   4.257   1.551
  966TIP3    H1 2841   3.236   4.237   1.558
  966TIP3    H2 2842   3.115   4.196   1.479
  967TIP3   OH2 2843   3.141   3.833  -0.306
  967TIP3    H1 2844   3.062   3.780  -0.282
  967TIP3    H2 2845   3.201   3.761  -0.328
  968TIP3   OH2 2846   3.782   4.166   1.284
  968TIP3    H1 2847   3.774   4.096   1.353
  968TIP3    H2 2848   3.858   4.218   1.315
  969TIP3   OH2 2849   2.792   3.703   1.706
  969TIP3    H1 2850   2.808   3.607   1.714
  969TIP3    H2 2851   2.704   3.705   1.663
  970TIP3   OH2 2852   2.780   3.359  -0.078
  970TIP3    H1 2853   2.848   3.328  -0.015
  970TIP3    H2 2854   2.817   3.336  -0.164
  971TIP3   OH2 2855   3.400   3.789   1.480
  971TIP3    H1 2856   3.357   3.807   1.395
  971TIP3    H2 2857   3.430   3.696   1.471
  972TIP3   OH2 2858   3.260   3.544  -0.291
  972TIP3    H1 2859   3.274   3.574  -0.199
  972TIP3    H2 2860   3.280   3.451  -0.283
  973TIP3   OH2 2861   3.892   3.798   1.088
  973TIP3    H1 2862   3.966   3.843   1.045
  973TIP3    H2 2863   3.820   3.863   1.074
  974TIP3   OH2 2864   2.912   3.439   1.690
  974TIP3    H1 2865   2.986   3.382   1.668
  974TIP3    H2 2866   2.938   3.471   1.779
  975TIP3   OH2 2867   2.974   3.257   0.117
  975TIP3    H1 2868   2.947   3.226   0.206
  975TIP3    H2 2869   3.010   3.176   0.076
  976TIP3   OH2 2870   3.247   3.321   1.352
  976TIP3    H1 2871   3.168   3.379   1.354
  976TIP3    H2 2872   3.295   3.355   1.274
  977TIP3   OH2 2873   3.076   3.045  -0.043
  977TIP3    H1 2874   3.077   3.007  -0.131
  977TIP3    H2 2875   3.172   3.062  -0.031
  978TIP3   OH2 2876   3.763   3.722   1.484
  978TIP3    H1 2877   3.842   3.692   1.436
  978TIP3    H2 2878   3.757   3.657   1.556
  979TIP3   OH2 2879   3.371   3.109   1.475
  979TIP3    H1 2880   3.370   3.030   1.417
  979TIP3    H2 2881   3.326   3.176   1.419
  980TIP3   OH2 2882   3.373   2.896   1.283
  980TIP3    H1 2883   3.400   2.936   1.199
  980TIP3    H2 2884   3.279   2.873   1.265
  981TIP3   OH2 2885   3.396   3.430   1.158
  981TIP3    H1 2886   3.481   3.441   1.113
  981TIP3    H2 2887   3.340   3.496   1.112
  982TIP3   OH2 2888   3.979   3.397   1.537
  982TIP3    H1 2889   4.025   3.313   1.549
  982TIP3    H2 2890   4.048   3.454   1.502
  983TIP3   OH2 2891   4.021   3.651   1.274
  983TIP3    H1 2892   3.963   3.705   1.216
  983TIP3    H2 2893   4.108   3.671   1.234
  984TIP3   OH2 2894   3.250   3.216   1.709
  984TIP3    H1 2895   3.180   3.149   1.724
  984TIP3    H2 2896   3.282   3.190   1.620
  985TIP3   OH2 2897   3.504   2.659   1.355
  985TIP3    H1 2898   3.455   2.741   1.331
  985TIP3    H2 2899   3.435   2.591   1.342
  986TIP3   OH2 2900   3.630   3.161   1.568
  986TIP3    H1 2901   3.614   3.147   1.664
  986TIP3    H2 2902   3.540   3.137   1.535
  987TIP3   OH2 2903   3.869   3.113   1.425
  987TIP3    H1 2904   3.793   3.112   1.486
  987TIP3    H2 2905   3.942   3.081   1.482
  988TIP3   OH2 2906   4.103   3.055   1.573
  988TIP3    H1 2907   4.113   2.959   1.590
  988TIP3    H2 2908   4.095   3.091   1.664
  989TIP3   OH2 2909   3.087   2.997   1.763
  989TIP3    H1 2910   3.092   2.905   1.729
  989TIP3    H2 2911   3.123   2.986   1.853
  990TIP3   OH2 2912   3.597   2.667   1.613
  990TIP3    H1 2913   3.663   2.596   1.605
  990TIP3    H2 2914   3.557   2.664   1.524
  991TIP3   OH2 2915   3.664   2.882   1.770
  991TIP3    H1 2916   3.642   2.811   1.706
  991TIP3    H2 2917   3.586   2.941   1.763
  992TIP3   OH2 2918   2.876   4.105  -0.127
  992TIP3    H1 2919   2.968   4.111  -0.159
  992TIP3    H2 2920   2.826   4.147  -0.199
  993TIP3   OH2 2921   2.363   3.498   0.101
  993TIP3    H1 2922   2.452   3.530   0.076
  993TIP3    H2 2923   2.360   3.415   0.052
  994TIP3   OH2 2924   2.281   4.105   0.499
  994TIP3    H1 2925   2.213   4.044   0.462
  994TIP3    H2 2926   2.324   4.045   0.564
  995TIP3   OH2 2927   2.418   3.952   0.685
  995TIP3    H1 2928   2.402   3.883   0.751
  995TIP3    H2 2929   2.469   4.016   0.738
  996TIP3   OH2 2930   4.147   4.350   0.486
  996TIP3    H1 2931   4.167   4.386   0.575
  996TIP3    H2 2932   4.202   4.405   0.429
  997TIP3   OH2 2933   4.170   4.376   0.768
  997TIP3    H1 2934   4.127   4.288   0.765
  997TIP3    H2 2935   4.246   4.355   0.825
  998TIP3   OH2 2936   4.219   4.053   1.341
  998TIP3    H1 2937   4.147   4.062   1.406
  998TIP3    H2 2938   4.261   4.142   1.346
  999TIP3   OH2 2939   4.034   3.564  -0.031
  999TIP3    H1 2940   4.104   3.627  -0.054
  999TIP3    H2 2941   4.073   3.520   0.047
 1000TIP3   OH2 2942   4.164   3.430   0.168
 1000TIP3    H1 2943   4.096   3.387   0.225
 1000TIP3    H2 2944   4.224   3.471   0.235
 1001TIP3   OH2 2945   4.221   3.829   0.597
 1001TIP3    H1 2946   4.272   3.764   0.546
 1001TIP3    H2 2947   4.211   3.903   0.534
 1002TIP3   OH2 2948   4.046   4.125   0.790
 1002TIP3    H1 2949   3.976   4.169   0.842
 1002TIP3    H2 2950   3.995   4.080   0.720
 1003TIP3   OH2 2951   4.088   3.347  -0.191
 1003TIP3    H1 2952   4.012   3.335  -0.250
 1003TIP3    H2 2953   4.059   3.424  -0.138
 1004TIP3   OH2 2954   3.977   3.022  -0.252
 1004TIP3    H1 2955   3.967   3.043  -0.347
 1004TIP3    H2 2956   3.944   2.930  -0.249
 1005TIP3   OH2 2957   3.976   3.289   0.309
 1005TIP3    H1 2958   3.980   3.192   0.302
 1005TIP3    H2 2959   3.961   3.303   0.405
 1006TIP3   OH2 2960   2.601   3.366   1.057
 1006TIP3    H1 2961   2.598   3.332   0.966
 1006TIP3    H2 2962   2.698   3.366   1.074
 1007TIP3   OH2 2963   4.266   3.716   1.168
 1007TIP3    H1 2964   4.337   3.649   1.156
 1007TIP3    H2 2965   4.291   3.785   1.106
 1008TIP3   OH2 2966   4.451   3.518   1.174
 1008TIP3    H1 2967   4.375   3.470   1.214
 1008TIP3    H2 2968   4.523   3.454   1.192
 1009TIP3   OH2 2969   3.912   2.757  -0.229
 1009TIP3    H1 2970   3.997   2.721  -0.197
 1009TIP3    H2 2971   3.847   2.711  -0.174
 1010TIP3   OH2 2972   3.973   3.006   0.202
 1010TIP3    H1 2973   4.013   2.918   0.219
 1010TIP3    H2 2974   4.030   3.037   0.130
 1011TIP3   OH2 2975   4.134   3.178   0.700
 1011TIP3    H1 2976   4.220   3.204   0.660
 1011TIP3    H2 2977   4.146   3.215   0.790
 1012TIP3   OH2 2978   4.204   3.326   0.930
 1012TIP3    H1 2979   4.127   3.357   0.980
 1012TIP3    H2 2980   4.235   3.409   0.887
 1013TIP3   OH2 2981   2.820   3.049   1.729
 1013TIP3    H1 2982   2.918   3.044   1.735
 1013TIP3    H2 2983   2.795   2.964   1.771
 1014TIP3   OH2 2984   4.656   2.919   1.485
 1014TIP3    H1 2985   4.714   2.854   1.442
 1014TIP3    H2 2986   4.625   2.972   1.409
 1015TIP3   OH2 2987   4.082   2.756   0.241
 1015TIP3    H1 2988   4.127   2.739   0.327
 1015TIP3    H2 2989   4.020   2.680   0.239
 1016TIP3   OH2 2990   2.781   2.744   1.064
 1016TIP3    H1 2991   2.842   2.668   1.072
 1016TIP3    H2 2992   2.843   2.818   1.055
 1017TIP3   OH2 2993   2.582   3.015   1.133
 1017TIP3    H1 2994   2.633   3.012   1.050
 1017TIP3    H2 2995   2.612   3.099   1.171
 1018TIP3   OH2 2996   4.524   3.054   1.289
 1018TIP3    H1 2997   4.439   3.097   1.314
 1018TIP3    H2 2998   4.491   2.982   1.233
 1019TIP3   OH2 2999   4.172   2.688  -0.140
 1019TIP3    H1 3000   4.218   2.640  -0.210
 1019TIP3    H2 3001   4.229   2.767  -0.132
 1020TIP3   OH2 3002   2.556   2.520   0.628
 1020TIP3    H1 3003   2.476   2.544   0.678
 1020TIP3    H2 3004   2.571   2.598   0.571
 1021TIP3   OH2 3005   3.740   4.220   0.147
 1021TIP3    H1 3006   3.778   4.210   0.057
 1021TIP3    H2 3007   3.781   4.302   0.177
 1022TIP3   OH2 3008   2.787   2.595   1.449
 1022TIP3    H1 3009   2.737   2.595   1.533
 1022TIP3    H2 3010   2.721   2.637   1.389
 1023TIP3   OH2 3011   2.827   4.028   1.526
 1023TIP3    H1 3012   2.734   4.004   1.510
 1023TIP3    H2 3013   2.837   4.009   1.620
 1024TIP3   OH2 3014   3.008   4.062   1.075
 1024TIP3    H1 3015   2.959   4.138   1.036
 1024TIP3    H2 3016   3.093   4.076   1.029
 1025TIP3   OH2 3017   3.448   4.304   1.211
 1025TIP3    H1 3018   3.489   4.303   1.300
 1025TIP3    H2 3019   3.514   4.356   1.160
 1026TIP3   OH2 3020   3.628   4.458   1.073
 1026TIP3    H1 3021   3.699   4.407   1.031
 1026TIP3    H2 3022   3.679   4.515   1.134
 1027TIP3   OH2 3023   4.424   2.816   1.170
 1027TIP3    H1 3024   4.333   2.808   1.137
 1027TIP3    H2 3025   4.455   2.724   1.159
 1028TIP3   OH2 3026   2.682   4.317   1.099
 1028TIP3    H1 3027   2.592   4.349   1.077
 1028TIP3    H2 3028   2.694   4.360   1.185
 1029TIP3   OH2 3029   2.918   4.297   0.957
 1029TIP3    H1 3030   2.831   4.308   1.002
 1029TIP3    H2 3031   2.898   4.328   0.867
 1030TIP3   OH2 3032   3.344   4.323   0.754
 1030TIP3    H1 3033   3.273   4.341   0.690
 1030TIP3    H2 3034   3.356   4.410   0.796
 1031TIP3   OH2 3035   3.613   4.262   0.806
 1031TIP3    H1 3036   3.519   4.280   0.787
 1031TIP3    H2 3037   3.656   4.337   0.763
 1032TIP3   OH2 3038   3.818   4.453   0.719
 1032TIP3    H1 3039   3.804   4.539   0.673
 1032TIP3    H2 3040   3.844   4.395   0.645
 1033TIP3   OH2 3041   2.593   4.110   0.842
 1033TIP3    H1 3042   2.619   4.083   0.933
 1033TIP3    H2 3043   2.666   4.068   0.791
 1034TIP3   OH2 3044   2.788   3.983   0.701
 1034TIP3    H1 3045   2.803   3.899   0.751
 1034TIP3    H2 3046   2.880   4.019   0.698
 1035TIP3   OH2 3047   3.055   4.075   0.706
 1035TIP3    H1 3048   3.085   3.982   0.697
 1035TIP3    H2 3049   3.102   4.098   0.789
 1036TIP3   OH2 3050   3.606   2.730   0.781
 1036TIP3    H1 3051   3.577   2.660   0.842
 1036TIP3    H2 3052   3.690   2.692   0.746
 1037TIP3   OH2 3053   4.144   2.664   0.708
 1037TIP3    H1 3054   4.184   2.677   0.620
 1037TIP3    H2 3055   4.079   2.594   0.690
 1038TIP3   OH2 3056   4.248   2.718   0.458
 1038TIP3    H1 3057   4.320   2.663   0.420
 1038TIP3    H2 3058   4.282   2.808   0.441
 1039TIP3   OH2 3059   2.873   2.447   0.814
 1039TIP3    H1 3060   2.785   2.406   0.800
 1039TIP3    H2 3061   2.931   2.368   0.803
 1040TIP3   OH2 3062   2.782   2.385   0.528
 1040TIP3    H1 3063   2.732   2.351   0.452
 1040TIP3    H2 3064   2.710   2.426   0.579
 1041TIP3   OH2 3065   3.324   2.473   0.685
 1041TIP3    H1 3066   3.382   2.520   0.624
 1041TIP3    H2 3067   3.351   2.510   0.771
 1042TIP3   OH2 3068   3.832   2.625   0.680
 1042TIP3    H1 3069   3.850   2.618   0.585
 1042TIP3    H2 3070   3.865   2.536   0.706
 1043TIP3   OH2 3071   3.901   2.544   0.234
 1043TIP3    H1 3072   3.811   2.579   0.243
 1043TIP3    H2 3073   3.890   2.458   0.282
 1044TIP3   OH2 3074   2.380   3.885   0.234
 1044TIP3    H1 3075   2.298   3.847   0.197
 1044TIP3    H2 3076   2.364   3.979   0.219
 1045TIP3   OH2 3077   2.788   2.508   0.244
 1045TIP3    H1 3078   2.839   2.426   0.246
 1045TIP3    H2 3079   2.852   2.569   0.285
 1046TIP3   OH2 3080   3.302   2.647   0.315
 1046TIP3    H1 3081   3.362   2.603   0.379
 1046TIP3    H2 3082   3.319   2.740   0.341
 1047TIP3   OH2 3083   3.147   4.080  -0.191
 1047TIP3    H1 3084   3.241   4.091  -0.214
 1047TIP3    H2 3085   3.129   3.999  -0.245
 1048TIP3   OH2 3086   3.871   4.185  -0.097
 1048TIP3    H1 3087   3.864   4.090  -0.118
 1048TIP3    H2 3088   3.864   4.226  -0.185
 1049TIP3   OH2 3089   3.085   2.721   1.696
 1049TIP3    H1 3090   3.050   2.651   1.755
 1049TIP3    H2 3091   3.179   2.722   1.724
 1050TIP3   OH2 3092   3.334   2.719   1.816
 1050TIP3    H1 3093   3.420   2.694   1.777
 1050TIP3    H2 3094   3.322   2.648   1.883
 1051TIP3   OH2 3095   2.451   3.907  -0.102
 1051TIP3    H1 3096   2.444   3.957  -0.021
 1051TIP3    H2 3097   2.544   3.884  -0.108
 1052TIP3   OH2 3098   4.161   2.783   1.604
 1052TIP3    H1 3099   4.179   2.752   1.695
 1052TIP3    H2 3100   4.250   2.777   1.563
 1053TIP3   OH2 3101   4.098   4.333   1.096
 1053TIP3    H1 3102   4.018   4.302   1.047
 1053TIP3    H2 3103   4.078   4.429   1.101
 1054TIP3   OH2 3104   5.330   3.689   0.256
 1054TIP3    H1 3105   5.384   3.686   0.337
 1054TIP3    H2 3106   5.380   3.638   0.192
 1055TIP3   OH2 3107   4.676   3.603   0.597
 1055TIP3    H1 3108   4.698   3.530   0.659
 1055TIP3    H2 3109   4.725   3.676   0.639
 1056TIP3   OH2 3110   4.636   4.009   0.335
 1056TIP3    H1 3111   4.629   3.911   0.338
 1056TIP3    H2 3112   4.734   4.018   0.331
 1057TIP3   OH2 3113   4.346   3.222   0.110
 1057TIP3    H1 3114   4.289   3.299   0.131
 1057TIP3    H2 3115   4.279   3.159   0.080
 1058TIP3   OH2 3116   4.401   3.503   0.297
 1058TIP3    H1 3117   4.447   3.423   0.332
 1058TIP3    H2 3118   4.459   3.529   0.225
 1059TIP3   OH2 3119   5.165   3.926   0.288
 1059TIP3    H1 3120   5.207   3.841   0.264
 1059TIP3    H2 3121   5.246   3.975   0.313
 1060TIP3   OH2 3122   6.176   3.256   0.285
 1060TIP3    H1 3123   6.200   3.329   0.347
 1060TIP3    H2 3124   6.257   3.247   0.234
 1061TIP3   OH2 3125   5.533   3.415   0.352
 1061TIP3    H1 3126   5.598   3.345   0.370
 1061TIP3    H2 3127   5.529   3.411   0.254
 1062TIP3   OH2 3128   4.923   3.102   0.280
 1062TIP3    H1 3129   4.880   3.176   0.234
 1062TIP3    H2 3130   4.872   3.026   0.242
 1063TIP3   OH2 3131   5.587   3.166  -0.036
 1063TIP3    H1 3132   5.669   3.158   0.020
 1063TIP3    H2 3133   5.630   3.173  -0.124
 1064TIP3   OH2 3134   4.546   3.295   0.397
 1064TIP3    H1 3135   4.628   3.272   0.445
 1064TIP3    H2 3136   4.553   3.234   0.321
 1065TIP3   OH2 3137   6.244   3.455   0.463
 1065TIP3    H1 3138   6.160   3.504   0.452
 1065TIP3    H2 3139   6.276   3.492   0.547
 1066TIP3   OH2 3140   4.909   3.075   0.725
 1066TIP3    H1 3141   4.846   3.111   0.659
 1066TIP3    H2 3142   4.857   3.091   0.807
 1067TIP3   OH2 3143   5.011   3.852   0.521
 1067TIP3    H1 3144   4.949   3.918   0.559
 1067TIP3    H2 3145   5.050   3.903   0.448
 1068TIP3   OH2 3146   5.825   3.187   0.095
 1068TIP3    H1 3147   5.859   3.116   0.152
 1068TIP3    H2 3148   5.870   3.265   0.130
 1069TIP3   OH2 3149   4.782   3.189   0.506
 1069TIP3    H1 3150   4.841   3.264   0.531
 1069TIP3    H2 3151   4.833   3.149   0.433
 1070TIP3   OH2 3152   4.844   4.048   0.616
 1070TIP3    H1 3153   4.821   4.135   0.577
 1070TIP3    H2 3154   4.764   4.034   0.672
 1071TIP3   OH2 3155   4.233   3.737  -0.127
 1071TIP3    H1 3156   4.167   3.758  -0.194
 1071TIP3    H2 3157   4.236   3.819  -0.073
 1072TIP3   OH2 3158   5.970   3.153   0.457
 1072TIP3    H1 3159   5.882   3.183   0.427
 1072TIP3    H2 3160   6.028   3.182   0.384
 1073TIP3   OH2 3161   5.260   2.793   0.437
 1073TIP3    H1 3162   5.252   2.699   0.460
 1073TIP3    H2 3163   5.183   2.830   0.487
 1074TIP3   OH2 3164   5.900   4.172   0.448
 1074TIP3    H1 3165   5.900   4.097   0.386
 1074TIP3    H2 3166   5.879   4.247   0.389
 1075TIP3   OH2 3167   6.095   3.795   0.320
 1075TIP3    H1 3168   6.025   3.862   0.303
 1075TIP3    H2 3169   6.133   3.781   0.230
 1076TIP3   OH2 3170   5.776   3.678   0.584
 1076TIP3    H1 3171   5.780   3.759   0.639
 1076TIP3    H2 3172   5.693   3.695   0.535
 1077TIP3   OH2 3173   4.779   3.595   0.096
 1077TIP3    H1 3174   4.714   3.563   0.030
 1077TIP3    H2 3175   4.821   3.511   0.120
 1078TIP3   OH2 3176   4.900   4.022   0.253
 1078TIP3    H1 3177   4.878   4.012   0.160
 1078TIP3    H2 3178   4.996   4.000   0.256
 1079TIP3   OH2 3179   4.947   3.605   0.421
 1079TIP3    H1 3180   4.933   3.643   0.334
 1079TIP3    H2 3181   4.970   3.687   0.471
 1080TIP3   OH2 3182   5.438   4.225   0.208
 1080TIP3    H1 3183   5.429   4.309   0.255
 1080TIP3    H2 3184   5.419   4.160   0.277
 1081TIP3   OH2 3185   5.050   4.164   0.762
 1081TIP3    H1 3186   4.990   4.227   0.808
 1081TIP3    H2 3187   4.984   4.112   0.711
 1082TIP3   OH2 3188   4.799   3.721   0.853
 1082TIP3    H1 3189   4.809   3.808   0.898
 1082TIP3    H2 3190   4.707   3.699   0.881
 1083TIP3   OH2 3191   4.844   4.331   0.848
 1083TIP3    H1 3192   4.809   4.335   0.757
 1083TIP3    H2 3193   4.764   4.310   0.900
 1084TIP3   OH2 3194   4.594   3.479  -0.078
 1084TIP3    H1 3195   4.501   3.504  -0.077
 1084TIP3    H2 3196   4.588   3.382  -0.077
 1085TIP3   OH2 3197   4.423   3.863   0.795
 1085TIP3    H1 3198   4.353   3.845   0.729
 1085TIP3    H2 3199   4.456   3.774   0.817
 1086TIP3   OH2 3200   4.276   4.061   0.424
 1086TIP3    H1 3201   4.373   4.061   0.423
 1086TIP3    H2 3202   4.257   4.139   0.479
 1087TIP3   OH2 3203   6.144   4.503   0.502
 1087TIP3    H1 3204   6.148   4.406   0.516
 1087TIP3    H2 3205   6.064   4.526   0.553
 1088TIP3   OH2 3206   5.247   4.292   0.617
 1088TIP3    H1 3207   5.245   4.385   0.649
 1088TIP3    H2 3208   5.176   4.253   0.673
 1089TIP3   OH2 3209   4.427   4.249  -0.032
 1089TIP3    H1 3210   4.499   4.254   0.034
 1089TIP3    H2 3211   4.352   4.232   0.027
 1090TIP3   OH2 3212   6.029   3.636   0.764
 1090TIP3    H1 3213   5.948   3.649   0.713
 1090TIP3    H2 3214   6.045   3.540   0.753
 1091TIP3   OH2 3215   4.627   4.046   0.779
 1091TIP3    H1 3216   4.675   4.033   0.863
 1091TIP3    H2 3217   4.552   3.984   0.789
 1092TIP3   OH2 3218   5.026   2.876   0.568
 1092TIP3    H1 3219   4.939   2.842   0.538
 1092TIP3    H2 3220   4.995   2.951   0.623
 1093TIP3   OH2 3221   5.562   2.983   0.763
 1093TIP3    H1 3222   5.633   2.958   0.826
 1093TIP3    H2 3223   5.480   2.964   0.814
 1094TIP3   OH2 3224   5.788   3.412   0.674
 1094TIP3    H1 3225   5.746   3.409   0.763
 1094TIP3    H2 3226   5.771   3.504   0.646
 1095TIP3   OH2 3227   4.962   3.385   0.582
 1095TIP3    H1 3228   4.910   3.406   0.663
 1095TIP3    H2 3229   4.949   3.467   0.529
 1096TIP3   OH2 3230   4.819   3.316   0.134
 1096TIP3    H1 3231   4.731   3.278   0.153
 1096TIP3    H2 3232   4.845   3.259   0.059
 1097TIP3   OH2 3233   5.505   3.632   0.907
 1097TIP3    H1 3234   5.484   3.561   0.972
 1097TIP3    H2 3235   5.597   3.652   0.931
 1098TIP3   OH2 3236   5.491   3.393   0.087
 1098TIP3    H1 3237   5.456   3.422   0.000
 1098TIP3    H2 3238   5.525   3.304   0.062
 1099TIP3   OH2 3239   4.781   3.412   0.790
 1099TIP3    H1 3240   4.797   3.478   0.860
 1099TIP3    H2 3241   4.764   3.332   0.843
 1100TIP3   OH2 3242   4.370   2.945   0.368
 1100TIP3    H1 3243   4.448   2.967   0.423
 1100TIP3    H2 3244   4.406   2.898   0.291
 1101TIP3   OH2 3245   4.338   2.919  -0.096
 1101TIP3    H1 3246   4.382   2.949  -0.178
 1101TIP3    H2 3247   4.275   2.992  -0.082
 1102TIP3   OH2 3248   5.487   3.640   0.491
 1102TIP3    H1 3249   5.517   3.562   0.440
 1102TIP3    H2 3250   5.462   3.594   0.574
 1103TIP3   OH2 3251   5.192   3.166   0.233
 1103TIP3    H1 3252   5.100   3.131   0.240
 1103TIP3    H2 3253   5.245   3.083   0.228
 1104TIP3   OH2 3254   4.605   3.152   0.170
 1104TIP3    H1 3255   4.511   3.157   0.140
 1104TIP3    H2 3256   4.630   3.060   0.149
 1105TIP3   OH2 3257   4.881   3.130  -0.055
 1105TIP3    H1 3258   4.977   3.115  -0.064
 1105TIP3    H2 3259   4.860   3.154  -0.147
 1106TIP3   OH2 3260   5.668   3.175   0.364
 1106TIP3    H1 3261   5.636   3.177   0.457
 1106TIP3    H2 3262   5.630   3.093   0.330
 1107TIP3   OH2 3263   5.842   4.853   0.595
 1107TIP3    H1 3264   5.828   4.875   0.500
 1107TIP3    H2 3265   5.918   4.911   0.615
 1108TIP3   OH2 3266   4.791   3.966   1.001
 1108TIP3    H1 3267   4.869   3.998   1.050
 1108TIP3    H2 3268   4.725   3.967   1.074
 1109TIP3   OH2 3269   4.772   2.910   0.153
 1109TIP3    H1 3270   4.733   2.832   0.199
 1109TIP3    H2 3271   4.820   2.867   0.081
 1110TIP3   OH2 3272   5.229   3.347   0.525
 1110TIP3    H1 3273   5.141   3.373   0.562
 1110TIP3    H2 3274   5.290   3.394   0.587
 1111TIP3   OH2 3275   5.869   3.957   0.282
 1111TIP3    H1 3276   5.841   4.003   0.200
 1111TIP3    H2 3277   5.789   3.903   0.297
 1112TIP3   OH2 3278   5.357   4.025   0.643
 1112TIP3    H1 3279   5.394   4.015   0.732
 1112TIP3    H2 3280   5.325   4.117   0.644
 1113TIP3   OH2 3281   4.662   3.730   0.322
 1113TIP3    H1 3282   4.702   3.686   0.246
 1113TIP3    H2 3283   4.682   3.671   0.396
 1114TIP3   OH2 3284   4.543   3.646   0.930
 1114TIP3    H1 3285   4.556   3.634   1.026
 1114TIP3    H2 3286   4.468   3.585   0.914
 1115TIP3   OH2 3287   5.265   3.768   0.952
 1115TIP3    H1 3288   5.204   3.703   0.913
 1115TIP3    H2 3289   5.352   3.734   0.922
 1116TIP3   OH2 3290   5.523   4.277   0.542
 1116TIP3    H1 3291   5.427   4.288   0.550
 1116TIP3    H2 3292   5.554   4.334   0.616
 1117TIP3   OH2 3293   6.153   4.218   0.531
 1117TIP3    H1 3294   6.055   4.218   0.531
 1117TIP3    H2 3295   6.169   4.184   0.440
 1118TIP3   OH2 3296   5.644   3.802   0.244
 1118TIP3    H1 3297   5.556   3.826   0.213
 1118TIP3    H2 3298   5.660   3.717   0.199
 1119TIP3   OH2 3299   4.749   4.018  -0.003
 1119TIP3    H1 3300   4.793   4.102  -0.029
 1119TIP3    H2 3301   4.666   4.052   0.034
 1120TIP3   OH2 3302   4.323   3.316  -0.320
 1120TIP3    H1 3303   4.345   3.404  -0.355
 1120TIP3    H2 3304   4.241   3.332  -0.269
 1121TIP3   OH2 3305   4.875   3.792  -0.082
 1121TIP3    H1 3306   4.827   3.869  -0.047
 1121TIP3    H2 3307   4.856   3.724  -0.016
 1122TIP3   OH2 3308   5.033   4.371   0.413
 1122TIP3    H1 3309   5.069   4.449   0.365
 1122TIP3    H2 3310   5.111   4.343   0.464
 1123TIP3   OH2 3311   5.421   3.999   0.379
 1123TIP3    H1 3312   5.399   4.004   0.474
 1123TIP3    H2 3313   5.515   3.976   0.385
 1124TIP3   OH2 3314   5.659   4.554   0.423
 1124TIP3    H1 3315   5.578   4.499   0.418
 1124TIP3    H2 3316   5.644   4.615   0.349
 1125TIP3   OH2 3317   4.748   3.157   0.936
 1125TIP3    H1 3318   4.651   3.164   0.950
 1125TIP3    H2 3319   4.774   3.102   1.013
 1126TIP3   OH2 3320   4.469   4.241   0.570
 1126TIP3    H1 3321   4.523   4.173   0.614
 1126TIP3    H2 3322   4.490   4.320   0.622
 1127TIP3   OH2 3323   5.587   3.213   0.617
 1127TIP3    H1 3324   5.662   3.263   0.655
 1127TIP3    H2 3325   5.579   3.137   0.679
 1128TIP3   OH2 3326   5.158   3.144  -0.101
 1128TIP3    H1 3327   5.211   3.207  -0.154
 1128TIP3    H2 3328   5.183   3.167  -0.010
 1129TIP3   OH2 3329   5.424   3.466   0.696
 1129TIP3    H1 3330   5.442   3.525   0.772
 1129TIP3    H2 3331   5.484   3.391   0.716
 1130TIP3   OH2 3332   5.321   2.891  -0.004
 1130TIP3    H1 3333   5.349   2.924   0.084
 1130TIP3    H2 3334   5.388   2.932  -0.060
 1131TIP3   OH2 3335   4.808   2.869  -0.227
 1131TIP3    H1 3336   4.783   2.946  -0.175
 1131TIP3    H2 3337   4.899   2.853  -0.193
 1132TIP3   OH2 3338   6.057   3.371   0.681
 1132TIP3    H1 3339   5.959   3.368   0.683
 1132TIP3    H2 3340   6.074   3.325   0.598
 1133TIP3   OH2 3341   5.708   3.567   0.115
 1133TIP3    H1 3342   5.640   3.497   0.105
 1133TIP3    H2 3343   5.785   3.516   0.150
 1134TIP3   OH2 3344   4.382   3.053  -0.331
 1134TIP3    H1 3345   4.368   3.150  -0.324
 1134TIP3    H2 3346   4.303   3.027  -0.380
 1135TIP3   OH2 3347   4.767   2.791   0.538
 1135TIP3    H1 3348   4.731   2.757   0.453
 1135TIP3    H2 3349   4.755   2.714   0.597
 1136TIP3   OH2 3350   4.266   3.990  -0.028
 1136TIP3    H1 3351   4.228   4.047   0.041
 1136TIP3    H2 3352   4.309   4.056  -0.084
 1137TIP3   OH2 3353   4.459   4.556   0.994
 1137TIP3    H1 3354   4.546   4.557   1.042
 1137TIP3    H2 3355   4.439   4.461   0.993
 1138TIP3   OH2 3356   4.936   4.512   1.040
 1138TIP3    H1 3357   5.032   4.496   1.045
 1138TIP3    H2 3358   4.912   4.452   0.967
 1139TIP3   OH2 3359   5.579   4.420   0.770
 1139TIP3    H1 3360   5.572   4.351   0.840
 1139TIP3    H2 3361   5.655   4.473   0.802
 1140TIP3   OH2 3362   4.588   3.960   1.193
 1140TIP3    H1 3363   4.603   3.864   1.201
 1140TIP3    H2 3364   4.500   3.963   1.150
 1141TIP3   OH2 3365   5.196   4.046   0.968
 1141TIP3    H1 3366   5.154   4.066   0.882
 1141TIP3    H2 3367   5.227   3.954   0.956
 1142TIP3   OH2 3368   5.683   4.051   0.566
 1142TIP3    H1 3369   5.762   4.098   0.532
 1142TIP3    H2 3370   5.617   4.123   0.561
 1143TIP3   OH2 3371   4.710   3.694   1.176
 1143TIP3    H1 3372   4.784   3.635   1.159
 1143TIP3    H2 3373   4.734   3.728   1.265
 1144TIP3   OH2 3374   5.047   3.580   0.834
 1144TIP3    H1 3375   4.968   3.637   0.836
 1144TIP3    H2 3376   5.095   3.614   0.755
 1145TIP3   OH2 3377   5.557   3.976   0.969
 1145TIP3    H1 3378   5.643   3.956   0.930
 1145TIP3    H2 3379   5.554   3.914   1.044
 1146TIP3   OH2 3380   5.166   3.368   0.963
 1146TIP3    H1 3381   5.165   3.289   0.906
 1146TIP3    H2 3382   5.122   3.435   0.907
 1147TIP3   OH2 3383   5.166   3.152   0.771
 1147TIP3    H1 3384   5.190   3.182   0.682
 1147TIP3    H2 3385   5.071   3.128   0.759
 1148TIP3   OH2 3386   5.195   3.682   0.631
 1148TIP3    H1 3387   5.281   3.710   0.596
 1148TIP3    H2 3388   5.136   3.752   0.594
 1149TIP3   OH2 3389   5.775   3.652   1.022
 1149TIP3    H1 3390   5.824   3.571   1.042
 1149TIP3    H2 3391   5.845   3.711   0.991
 1150TIP3   OH2 3392   5.816   3.904   0.752
 1150TIP3    H1 3393   5.758   3.960   0.696
 1150TIP3    H2 3394   5.904   3.928   0.716
 1151TIP3   OH2 3395   5.043   3.474   1.195
 1151TIP3    H1 3396   4.975   3.406   1.212
 1151TIP3    H2 3397   5.078   3.445   1.108
 1152TIP3   OH2 3398   5.299   2.914   0.838
 1152TIP3    H1 3399   5.248   2.996   0.821
 1152TIP3    H2 3400   5.229   2.846   0.830
 1153TIP3   OH2 3401   5.427   3.418   1.055
 1153TIP3    H1 3402   5.418   3.405   1.151
 1153TIP3    H2 3403   5.336   3.394   1.027
 1154TIP3   OH2 3404   5.662   3.362   0.906
 1154TIP3    H1 3405   5.589   3.368   0.971
 1154TIP3    H2 3406   5.737   3.336   0.963
 1155TIP3   OH2 3407   5.889   3.309   1.058
 1155TIP3    H1 3408   5.905   3.214   1.076
 1155TIP3    H2 3409   5.887   3.347   1.148
 1156TIP3   OH2 3410   4.885   3.253   1.249
 1156TIP3    H1 3411   4.888   3.161   1.217
 1156TIP3    H2 3412   4.921   3.242   1.339
 1157TIP3   OH2 3413   5.394   2.925   1.097
 1157TIP3    H1 3414   5.462   2.855   1.092
 1157TIP3    H2 3415   5.354   2.917   1.008
 1158TIP3   OH2 3416   5.460   3.140   1.256
 1158TIP3    H1 3417   5.438   3.068   1.192
 1158TIP3    H2 3418   5.381   3.198   1.250
 1159TIP3   OH2 3419   4.069   4.353  -0.010
 1159TIP3    H1 3420   4.001   4.295  -0.051
 1159TIP3    H2 3421   4.111   4.291   0.053
 1160TIP3   OH2 3422   4.226   4.202   0.165
 1160TIP3    H1 3423   4.202   4.141   0.237
 1160TIP3    H2 3424   4.266   4.274   0.219
 1161TIP3   OH2 3425   5.972   4.631   0.313
 1161TIP3    H1 3426   5.935   4.541   0.325
 1161TIP3    H2 3427   6.052   4.624   0.370
 1162TIP3   OH2 3428   6.014   4.309   0.828
 1162TIP3    H1 3429   5.942   4.319   0.894
 1162TIP3    H2 3430   6.057   4.397   0.833
 1163TIP3   OH2 3431   5.833   4.386   0.291
 1163TIP3    H1 3432   5.763   4.432   0.341
 1163TIP3    H2 3433   5.793   4.385   0.202
 1164TIP3   OH2 3434   4.403   3.618   0.547
 1164TIP3    H1 3435   4.395   3.587   0.454
 1164TIP3    H2 3436   4.501   3.621   0.557
 1165TIP3   OH2 3437   6.061   3.972   0.654
 1165TIP3    H1 3438   6.132   3.905   0.644
 1165TIP3    H2 3439   6.092   4.043   0.594
 1166TIP3   OH2 3440   6.241   3.772   0.669
 1166TIP3    H1 3441   6.169   3.721   0.712
 1166TIP3    H2 3442   6.316   3.711   0.683
 1167TIP3   OH2 3443   5.932   3.434   0.189
 1167TIP3    H1 3444   6.013   3.452   0.137
 1167TIP3    H2 3445   5.957   3.471   0.276
 1168TIP3   OH2 3446   5.990   3.570   0.423
 1168TIP3    H1 3447   5.914   3.603   0.475
 1168TIP3    H2 3448   6.028   3.656   0.392
 1169TIP3   OH2 3449   4.618   3.308   1.222
 1169TIP3    H1 3450   4.716   3.301   1.226
 1169TIP3    H2 3451   4.593   3.222   1.259
 1170TIP3   OH2 3452   6.448   3.172   0.973
 1170TIP3    H1 3453   6.510   3.108   0.932
 1170TIP3    H2 3454   6.422   3.227   0.896
 1171TIP3   OH2 3455   4.579   2.996   0.540
 1171TIP3    H1 3456   4.641   2.922   0.555
 1171TIP3    H2 3457   4.640   3.072   0.541
 1172TIP3   OH2 3458   4.381   3.271   0.623
 1172TIP3    H1 3459   4.429   3.270   0.538
 1172TIP3    H2 3460   4.404   3.358   0.658
 1173TIP3   OH2 3461   6.319   3.310   0.777
 1173TIP3    H1 3462   6.234   3.351   0.803
 1173TIP3    H2 3463   6.287   3.237   0.721
 1174TIP3   OH2 3464   4.366   2.779   0.133
 1174TIP3    H1 3465   4.272   2.767   0.156
 1174TIP3    H2 3466   4.360   2.834   0.052
 1175TIP3   OH2 3467   4.584   2.851   0.935
 1175TIP3    H1 3468   4.534   2.848   1.018
 1175TIP3    H2 3469   4.518   2.895   0.876
 1176TIP3   OH2 3470   4.624   4.281   1.012
 1176TIP3    H1 3471   4.530   4.260   0.998
 1176TIP3    H2 3472   4.633   4.268   1.107
 1177TIP3   OH2 3473   4.804   4.318   0.561
 1177TIP3    H1 3474   4.756   4.394   0.522
 1177TIP3    H2 3475   4.890   4.332   0.516
 1178TIP3   OH2 3476   5.242   4.557   0.699
 1178TIP3    H1 3477   5.284   4.558   0.788
 1178TIP3    H2 3478   5.303   4.615   0.650
 1179TIP3   OH2 3479   5.413   4.725   0.569
 1179TIP3    H1 3480   5.476   4.670   0.520
 1179TIP3    H2 3481   5.474   4.777   0.626
 1180TIP3   OH2 3482   6.219   3.070   0.660
 1180TIP3    H1 3483   6.128   3.056   0.629
 1180TIP3    H2 3484   6.255   2.978   0.651
 1181TIP3   OH2 3485   4.476   4.569   0.590
 1181TIP3    H1 3486   4.387   4.601   0.565
 1181TIP3    H2 3487   4.491   4.620   0.670
 1182TIP3   OH2 3488   4.712   4.553   0.447
 1182TIP3    H1 3489   4.626   4.565   0.493
 1182TIP3    H2 3490   4.692   4.590   0.359
 1183TIP3   OH2 3491   5.136   4.574   0.257
 1183TIP3    H1 3492   5.056   4.589   0.202
 1183TIP3    H2 3493   5.153   4.665   0.291
 1184TIP3   OH2 3494   5.395   4.524   0.333
 1184TIP3    H1 3495   5.300   4.528   0.310
 1184TIP3    H2 3496   5.431   4.587   0.269
 1185TIP3   OH2 3497   4.390   4.362   0.328
 1185TIP3    H1 3498   4.413   4.336   0.420
 1185TIP3    H2 3499   4.464   4.322   0.279
 1186TIP3   OH2 3500   4.587   4.231   0.188
 1186TIP3    H1 3501   4.599   4.153   0.247
 1186TIP3    H2 3502   4.673   4.278   0.202
 1187TIP3   OH2 3503   4.835   4.340   0.213
 1187TIP3    H1 3504   4.879   4.297   0.138
 1187TIP3    H2 3505   4.901   4.332   0.285
 1188TIP3   OH2 3506   5.393   2.968   0.248
 1188TIP3    H1 3507   5.369   2.905   0.319
 1188TIP3    H2 3508   5.485   2.939   0.226
 1189TIP3   OH2 3509   5.938   2.908   0.188
 1189TIP3    H1 3510   5.976   2.901   0.098
 1189TIP3    H2 3511   5.845   2.888   0.172
 1190TIP3   OH2 3512   4.673   2.697   0.294
 1190TIP3    H1 3513   4.581   2.664   0.298
 1190TIP3    H2 3514   4.722   2.612   0.287
 1191TIP3   OH2 3515   4.458   2.558  -0.057
 1191TIP3    H1 3516   4.496   2.616  -0.128
 1191TIP3    H2 3517   4.429   2.625   0.007
 1192TIP3   OH2 3518   5.116   2.734   0.178
 1192TIP3    H1 3519   5.189   2.764   0.123
 1192TIP3    H2 3520   5.145   2.759   0.267
 1193TIP3   OH2 3521   5.646   2.874   0.156
 1193TIP3    H1 3522   5.670   2.830   0.073
 1193TIP3    H2 3523   5.642   2.797   0.217
 1194TIP3   OH2 3524   4.576   2.711  -0.252
 1194TIP3    H1 3525   4.584   2.662  -0.334
 1194TIP3    H2 3526   4.658   2.763  -0.249
 1195TIP3   OH2 3527   5.063   2.885  -0.140
 1195TIP3    H1 3528   5.123   2.819  -0.103
 1195TIP3    H2 3529   5.116   2.966  -0.127
 1196TIP3   OH2 3530   4.882   2.978   1.184
 1196TIP3    H1 3531   4.846   2.909   1.241
 1196TIP3    H2 3532   4.976   2.978   1.213
 1197TIP3   OH2 3533   5.131   2.975   1.303
 1197TIP3    H1 3534   5.217   2.949   1.267
 1197TIP3    H2 3535   5.117   2.905   1.371
 1198TIP3   OH2 3536   5.957   3.039   1.090
 1198TIP3    H1 3537   5.975   3.009   1.182
 1198TIP3    H2 3538   6.046   3.035   1.050
 1199TIP3   OH2 3539   5.890   4.582   0.597
 1199TIP3    H1 3540   5.810   4.560   0.546
 1199TIP3    H2 3541   5.883   4.680   0.598
 1200TIP3   OH2 3542   6.721   3.295   0.252
 1200TIP3    H1 3543   6.668   3.294   0.171
 1200TIP3    H2 3544   6.660   3.339   0.314
 1201TIP3   OH2 3545   6.613   3.964   0.386
 1201TIP3    H1 3546   6.616   4.053   0.426
 1201TIP3    H2 3547   6.518   3.961   0.361
 1202TIP3   OH2 3548   6.212   4.105   0.287
 1202TIP3    H1 3549   6.263   4.143   0.214
 1202TIP3    H2 3550   6.270   4.032   0.318
 1203TIP3   OH2 3551   6.448   4.276   0.298
 1203TIP3    H1 3552   6.522   4.294   0.360
 1203TIP3    H2 3553   6.382   4.246   0.359
 1204TIP3   OH2 3554   7.331   3.256   0.265
 1204TIP3    H1 3555   7.399   3.193   0.294
 1204TIP3    H2 3556   7.249   3.213   0.298
 1205TIP3   OH2 3557   7.302   3.908   0.398
 1205TIP3    H1 3558   7.268   3.826   0.443
 1205TIP3    H2 3559   7.396   3.884   0.402
 1206TIP3   OH2 3560   6.563   3.673   0.297
 1206TIP3    H1 3561   6.578   3.746   0.359
 1206TIP3    H2 3562   6.557   3.596   0.356
 1207TIP3   OH2 3563   6.605   4.206   0.522
 1207TIP3    H1 3564   6.679   4.251   0.566
 1207TIP3    H2 3565   6.532   4.228   0.584
 1208TIP3   OH2 3566   6.338   3.909   0.434
 1208TIP3    H1 3567   6.367   3.897   0.527
 1208TIP3    H2 3568   6.262   3.847   0.429
 1209TIP3   OH2 3569   7.058   4.027   0.451
 1209TIP3    H1 3570   6.992   3.961   0.422
 1209TIP3    H2 3571   7.143   3.982   0.428
 1210TIP3   OH2 3572   6.543   3.423   0.435
 1210TIP3    H1 3573   6.446   3.420   0.448
 1210TIP3    H2 3574   6.574   3.364   0.505
 1211TIP3   OH2 3575   6.233   4.781   0.508
 1211TIP3    H1 3576   6.325   4.802   0.536
 1211TIP3    H2 3577   6.237   4.686   0.490
 1212TIP3   OH2 3578   6.726   4.760   0.554
 1212TIP3    H1 3579   6.808   4.732   0.598
 1212TIP3    H2 3580   6.711   4.686   0.493
 1213TIP3   OH2 3581   6.381   4.210   0.693
 1213TIP3    H1 3582   6.395   4.114   0.690
 1213TIP3    H2 3583   6.296   4.219   0.644
 1214TIP3   OH2 3584   6.986   4.304   0.451
 1214TIP3    H1 3585   6.953   4.304   0.361
 1214TIP3    H2 3586   7.026   4.214   0.457
 1215TIP3   OH2 3587   6.500   3.936   0.673
 1215TIP3    H1 3588   6.584   3.905   0.638
 1215TIP3    H2 3589   6.528   3.977   0.757
 1216TIP3   OH2 3590   6.862   3.863   0.348
 1216TIP3    H1 3591   6.775   3.897   0.380
 1216TIP3    H2 3592   6.860   3.898   0.258
 1217TIP3   OH2 3593   7.291   4.230   0.485
 1217TIP3    H1 3594   7.378   4.267   0.464
 1217TIP3    H2 3595   7.311   4.170   0.559
 1218TIP3   OH2 3596   6.953   3.619   0.462
 1218TIP3    H1 3597   6.961   3.537   0.408
 1218TIP3    H2 3598   6.930   3.687   0.396
 1219TIP3   OH2 3599   6.969   3.401   0.291
 1219TIP3    H1 3600   7.007   3.437   0.208
 1219TIP3    H2 3601   6.881   3.366   0.264
 1220TIP3   OH2 3602   7.566   3.895   0.554
 1220TIP3    H1 3603   7.575   3.817   0.495
 1220TIP3    H2 3604   7.646   3.946   0.530
 1221TIP3   OH2 3605   6.836   3.732   0.684
 1221TIP3    H1 3606   6.767   3.665   0.701
 1221TIP3    H2 3607   6.873   3.700   0.599
 1222TIP3   OH2 3608   7.087   3.157   0.343
 1222TIP3    H1 3609   7.038   3.240   0.324
 1222TIP3    H2 3610   7.023   3.088   0.316
 1223TIP3   OH2 3611   7.208   3.692   0.539
 1223TIP3    H1 3612   7.209   3.673   0.635
 1223TIP3    H2 3613   7.121   3.654   0.516
 1224TIP3   OH2 3614   7.470   3.667   0.415
 1224TIP3    H1 3615   7.386   3.631   0.449
 1224TIP3    H2 3616   7.535   3.603   0.449
 1225TIP3   OH2 3617   7.671   3.538   0.556
 1225TIP3    H1 3618   7.711   3.455   0.584
 1225TIP3    H2 3619   7.676   3.592   0.638
 1226TIP3   OH2 3620   6.676   3.511   0.740
 1226TIP3    H1 3621   6.685   3.421   0.704
 1226TIP3    H2 3622   6.716   3.500   0.828
 1227TIP3   OH2 3623   7.185   3.176   0.596
 1227TIP3    H1 3624   7.253   3.107   0.585
 1227TIP3    H2 3625   7.144   3.172   0.506
 1228TIP3   OH2 3626   7.258   3.398   0.743
 1228TIP3    H1 3627   7.235   3.325   0.680
 1228TIP3    H2 3628   7.179   3.456   0.736
 1229TIP3   OH2 3629   6.409   3.558   0.695
 1229TIP3    H1 3630   6.507   3.558   0.704
 1229TIP3    H2 3631   6.388   3.475   0.741
 1230TIP3   OH2 3632   6.380   3.125   0.435
 1230TIP3    H1 3633   6.338   3.110   0.522
 1230TIP3    H2 3634   6.302   3.129   0.378
 1231TIP3   OH2 3635   6.423   4.490   0.536
 1231TIP3    H1 3636   6.332   4.494   0.500
 1231TIP3    H2 3637   6.418   4.548   0.612
 1232TIP3   OH2 3638   6.676   3.234   0.672
 1232TIP3    H1 3639   6.644   3.164   0.732
 1232TIP3    H2 3640   6.771   3.236   0.696
 1233TIP3   OH2 3641   6.926   3.233   0.788
 1233TIP3    H1 3642   7.012   3.211   0.747
 1233TIP3    H2 3643   6.918   3.162   0.854
 1234TIP3   OH2 3644   0.431   4.294   1.468
 1234TIP3    H1 3645   0.457   4.376   1.514
 1234TIP3    H2 3646   0.446   4.318   1.376
 1235TIP3   OH2 3647  -0.117   4.489   1.496
 1235TIP3    H1 3648  -0.097   4.395   1.517
 1235TIP3    H2 3649  -0.051   4.506   1.427
 1236TIP3   OH2 3650   0.502   4.503   1.637
 1236TIP3    H1 3651   0.415   4.546   1.623
 1236TIP3    H2 3652   0.529   4.542   1.722
 1237TIP3   OH2 3653   0.056   4.244   1.255
 1237TIP3    H1 3654   0.087   4.181   1.322
 1237TIP3    H2 3655   0.097   4.327   1.286
 1238TIP3   OH2 3656   0.223   4.209   1.639
 1238TIP3    H1 3657   0.137   4.227   1.597
 1238TIP3    H2 3658   0.285   4.230   1.566
 1239TIP3   OH2 3659   0.153   5.242   1.604
 1239TIP3    H1 3660   0.168   5.154   1.564
 1239TIP3    H2 3661   0.123   5.294   1.528
 1240TIP3   OH2 3662   0.355   4.834   1.466
 1240TIP3    H1 3663   0.281   4.899   1.475
 1240TIP3    H2 3664   0.388   4.859   1.377
 1241TIP3   OH2 3665   0.049   4.725   1.767
 1241TIP3    H1 3666   0.045   4.813   1.809
 1241TIP3    H2 3667  -0.042   4.721   1.729
 1242TIP3   OH2 3668   0.411   5.534   1.672
 1242TIP3    H1 3669   0.418   5.437   1.683
 1242TIP3    H2 3670   0.319   5.547   1.703
 1243TIP3   OH2 3671   0.277   4.681   1.935
 1243TIP3    H1 3672   0.197   4.691   1.881
 1243TIP3    H2 3673   0.295   4.585   1.925
 1244TIP3   OH2 3674  -0.182   4.033   1.937
 1244TIP3    H1 3675  -0.120   4.001   2.005
 1244TIP3    H2 3676  -0.269   3.998   1.967
 1245TIP3   OH2 3677   0.046   4.457   1.856
 1245TIP3    H1 3678   0.000   4.456   1.942
 1245TIP3    H2 3679   0.030   4.547   1.824
 1246TIP3   OH2 3680  -0.219   4.686   2.103
 1246TIP3    H1 3681  -0.246   4.609   2.158
 1246TIP3    H2 3682  -0.123   4.690   2.124
 1247TIP3   OH2 3683  -0.203   4.678   1.676
 1247TIP3    H1 3684  -0.182   4.597   1.624
 1247TIP3    H2 3685  -0.256   4.639   1.750
 1248TIP3   OH2 3686  -0.102   4.220   1.544
 1248TIP3    H1 3687  -0.133   4.239   1.636
 1248TIP3    H2 3688  -0.146   4.137   1.526
 1249TIP3   OH2 3689  -0.476   4.355   1.804
 1249TIP3    H1 3690  -0.501   4.421   1.738
 1249TIP3    H2 3691  -0.390   4.387   1.831
 1250TIP3   OH2 3692   0.148   5.011   1.461
 1250TIP3    H1 3693   0.133   5.060   1.378
 1250TIP3    H2 3694   0.058   4.996   1.496
 1251TIP3   OH2 3695  -0.451   4.787   2.198
 1251TIP3    H1 3696  -0.508   4.763   2.123
 1251TIP3    H2 3697  -0.363   4.770   2.159
 1252TIP3   OH2 3698   0.404   5.253   1.703
 1252TIP3    H1 3699   0.307   5.264   1.695
 1252TIP3    H2 3700   0.425   5.225   1.611
 1253TIP3   OH2 3701  -0.162   4.270   1.801
 1253TIP3    H1 3702  -0.079   4.307   1.836
 1253TIP3    H2 3703  -0.172   4.188   1.855
 1254TIP3   OH2 3704  -0.284   4.531   1.890
 1254TIP3    H1 3705  -0.273   4.595   1.964
 1254TIP3    H2 3706  -0.229   4.457   1.922
 1255TIP3   OH2 3707   0.312   4.415   1.856
 1255TIP3    H1 3708   0.214   4.412   1.860
 1255TIP3    H2 3709   0.326   4.373   1.769
 1256TIP3   OH2 3710  -0.185   5.545   2.083
 1256TIP3    H1 3711  -0.167   5.451   2.100
 1256TIP3    H2 3712  -0.102   5.576   2.043
 1257TIP3   OH2 3713  -0.018   5.058   1.725
 1257TIP3    H1 3714   0.031   5.142   1.713
 1257TIP3    H2 3715  -0.111   5.087   1.717
 1258TIP3   OH2 3716  -0.189   5.012   2.160
 1258TIP3    H1 3717  -0.116   4.982   2.104
 1258TIP3    H2 3718  -0.190   4.944   2.230
 1259TIP3   OH2 3719  -0.614   4.129   1.893
 1259TIP3    H1 3720  -0.555   4.207   1.876
 1259TIP3    H2 3721  -0.687   4.179   1.926
 1260TIP3   OH2 3722   0.038   4.695   2.201
 1260TIP3    H1 3723   0.087   4.612   2.214
 1260TIP3    H2 3724   0.106   4.751   2.161
 1261TIP3   OH2 3725   0.077   4.949   1.952
 1261TIP3    H1 3726   0.026   4.996   1.883
 1261TIP3    H2 3727   0.167   4.963   1.915
 1262TIP3   OH2 3728  -0.443   3.952   2.014
 1262TIP3    H1 3729  -0.493   4.026   1.975
 1262TIP3    H2 3730  -0.511   3.884   2.010
 1263TIP3   OH2 3731  -0.315   4.466   2.238
 1263TIP3    H1 3732  -0.291   4.461   2.332
 1263TIP3    H2 3733  -0.403   4.425   2.237
 1264TIP3   OH2 3734  -0.086   4.411   2.086
 1264TIP3    H1 3735  -0.160   4.410   2.150
 1264TIP3    H2 3736  -0.010   4.383   2.141
 1265TIP3   OH2 3737   0.139   4.355   2.239
 1265TIP3    H1 3738   0.154   4.260   2.255
 1265TIP3    H2 3739   0.136   4.392   2.330
 1266TIP3   OH2 3740  -0.352   3.968   2.275
 1266TIP3    H1 3741  -0.284   3.901   2.258
 1266TIP3    H2 3742  -0.398   3.969   2.188
 1267TIP3   OH2 3743  -0.277   4.181   2.424
 1267TIP3    H1 3744  -0.299   4.103   2.367
 1267TIP3    H2 3745  -0.363   4.228   2.423
 1268TIP3   OH2 3746   0.265   5.356   1.998
 1268TIP3    H1 3747   0.195   5.365   2.066
 1268TIP3    H2 3748   0.311   5.442   2.006
 1269TIP3   OH2 3749   0.312   5.017   1.828
 1269TIP3    H1 3750   0.382   4.948   1.820
 1269TIP3    H2 3751   0.349   5.090   1.775
 1270TIP3   OH2 3752   0.490   4.818   1.840
 1270TIP3    H1 3753   0.419   4.764   1.882
 1270TIP3    H2 3754   0.568   4.760   1.856
 1271TIP3   OH2 3755   0.175   4.466   1.372
 1271TIP3    H1 3756   0.253   4.497   1.322
 1271TIP3    H2 3757   0.193   4.509   1.457
 1272TIP3   OH2 3758   0.249   4.618   1.594
 1272TIP3    H1 3759   0.178   4.657   1.649
 1272TIP3    H2 3760   0.286   4.697   1.550
 1273TIP3   OH2 3761   0.697   4.214   2.149
 1273TIP3    H1 3762   0.760   4.151   2.106
 1273TIP3    H2 3763   0.669   4.270   2.073
 1274TIP3   OH2 3764   0.569   4.355   1.958
 1274TIP3    H1 3765   0.484   4.398   1.981
 1274TIP3    H2 3766   0.535   4.285   1.898
 1275TIP3   OH2 3767   0.469   4.122   1.836
 1275TIP3    H1 3768   0.378   4.111   1.804
 1275TIP3    H2 3769   0.505   4.031   1.823
 1276TIP3   OH2 3770   0.144   4.017   1.389
 1276TIP3    H1 3771   0.221   4.031   1.330
 1276TIP3    H2 3772   0.095   3.951   1.338
 1277TIP3   OH2 3773   0.320   4.036   1.177
 1277TIP3    H1 3774   0.295   4.011   1.086
 1277TIP3    H2 3775   0.351   4.127   1.156
 1278TIP3   OH2 3776   0.206   4.084   2.268
 1278TIP3    H1 3777   0.228   4.054   2.358
 1278TIP3    H2 3778   0.294   4.083   2.225
 1279TIP3   OH2 3779   0.150   5.564   1.735
 1279TIP3    H1 3780   0.060   5.530   1.752
 1279TIP3    H2 3781   0.134   5.660   1.749
 1280TIP3   OH2 3782   1.410   4.995   0.532
 1280TIP3    H1 3783   1.379   5.085   0.511
 1280TIP3    H2 3784   1.335   4.943   0.502
 1281TIP3   OH2 3785   1.407   5.008   0.913
 1281TIP3    H1 3786   1.444   4.983   1.000
 1281TIP3    H2 3787   1.368   4.923   0.885
 1282TIP3   OH2 3788   0.716   4.902   1.274
 1282TIP3    H1 3789   0.746   4.835   1.339
 1282TIP3    H2 3790   0.796   4.956   1.265
 1283TIP3   OH2 3791   1.649   5.314   0.595
 1283TIP3    H1 3792   1.643   5.240   0.657
 1283TIP3    H2 3793   1.684   5.385   0.651
 1284TIP3   OH2 3794   0.693   5.298   1.065
 1284TIP3    H1 3795   0.688   5.200   1.054
 1284TIP3    H2 3796   0.789   5.310   1.052
 1285TIP3   OH2 3797   0.547   4.806   0.935
 1285TIP3    H1 3798   0.565   4.730   0.993
 1285TIP3    H2 3799   0.500   4.764   0.863
 1286TIP3   OH2 3800   1.358   5.739   0.667
 1286TIP3    H1 3801   1.429   5.698   0.613
 1286TIP3    H2 3802   1.376   5.698   0.753
 1287TIP3   OH2 3803   1.219   5.230   0.952
 1287TIP3    H1 3804   1.262   5.149   0.920
 1287TIP3    H2 3805   1.299   5.280   0.977
 1288TIP3   OH2 3806   2.223   4.553   0.954
 1288TIP3    H1 3807   2.252   4.636   0.996
 1288TIP3    H2 3808   2.244   4.570   0.861
 1289TIP3   OH2 3809   1.623   4.734   0.985
 1289TIP3    H1 3810   1.663   4.648   1.006
 1289TIP3    H2 3811   1.587   4.717   0.896
 1290TIP3   OH2 3812   0.970   4.397   0.957
 1290TIP3    H1 3813   0.945   4.471   0.897
 1290TIP3    H2 3814   0.923   4.323   0.915
 1291TIP3   OH2 3815   1.655   4.486   0.578
 1291TIP3    H1 3816   1.729   4.468   0.642
 1291TIP3    H2 3817   1.706   4.514   0.500
 1292TIP3   OH2 3818   0.594   4.584   1.082
 1292TIP3    H1 3819   0.681   4.568   1.124
 1292TIP3    H2 3820   0.603   4.525   1.004
 1293TIP3   OH2 3821   1.037   4.804   0.850
 1293TIP3    H1 3822   1.129   4.776   0.867
 1293TIP3    H2 3823   0.994   4.718   0.828
 1294TIP3   OH2 3824   2.297   4.763   1.122
 1294TIP3    H1 3825   2.211   4.807   1.105
 1294TIP3    H2 3826   2.310   4.787   1.215
 1295TIP3   OH2 3827   0.956   4.374   1.391
 1295TIP3    H1 3828   0.899   4.412   1.321
 1295TIP3    H2 3829   0.902   4.394   1.470
 1296TIP3   OH2 3830   1.300   5.207   0.397
 1296TIP3    H1 3831   1.294   5.179   0.305
 1296TIP3    H2 3832   1.320   5.301   0.390
 1297TIP3   OH2 3833   1.065   5.152   1.183
 1297TIP3    H1 3834   1.002   5.217   1.222
 1297TIP3    H2 3835   1.097   5.201   1.105
 1298TIP3   OH2 3836   1.866   4.492   0.750
 1298TIP3    H1 3837   1.853   4.441   0.831
 1298TIP3    H2 3838   1.916   4.569   0.782
 1299TIP3   OH2 3839   0.833   4.489   1.175
 1299TIP3    H1 3840   0.894   4.563   1.197
 1299TIP3    H2 3841   0.882   4.450   1.099
 1300TIP3   OH2 3842   0.896   5.342   1.290
 1300TIP3    H1 3843   0.871   5.430   1.253
 1300TIP3    H2 3844   0.815   5.324   1.342
 1301TIP3   OH2 3845   1.716   5.549   0.756
 1301TIP3    H1 3846   1.626   5.543   0.795
 1301TIP3    H2 3847   1.713   5.637   0.714
 1302TIP3   OH2 3848   2.016   4.453   1.121
 1302TIP3    H1 3849   1.928   4.479   1.089
 1302TIP3    H2 3850   2.074   4.484   1.049
 1303TIP3   OH2 3851   1.308   4.092   1.102
 1303TIP3    H1 3852   1.291   3.998   1.121
 1303TIP3    H2 3853   1.231   4.133   1.147
 1304TIP3   OH2 3854   1.516   5.629   0.472
 1304TIP3    H1 3855   1.554   5.541   0.449
 1304TIP3    H2 3856   1.548   5.682   0.399
 1305TIP3   OH2 3857   1.550   5.387   0.350
 1305TIP3    H1 3858   1.572   5.319   0.282
 1305TIP3    H2 3859   1.587   5.344   0.430
 1306TIP3   OH2 3860   1.948   5.466   1.099
 1306TIP3    H1 3861   1.936   5.387   1.041
 1306TIP3    H2 3862   1.932   5.539   1.036
 1307TIP3   OH2 3863   1.239   4.854   0.340
 1307TIP3    H1 3864   1.163   4.901   0.303
 1307TIP3    H2 3865   1.301   4.867   0.267
 1308TIP3   OH2 3866   1.145   4.590   0.191
 1308TIP3    H1 3867   1.206   4.636   0.250
 1308TIP3    H2 3868   1.208   4.540   0.135
 1309TIP3   OH2 3869   2.144   5.105   0.946
 1309TIP3    H1 3870   2.060   5.155   0.950
 1309TIP3    H2 3871   2.173   5.127   0.855
 1310TIP3   OH2 3872   1.599   4.949   0.342
 1310TIP3    H1 3873   1.544   4.966   0.423
 1310TIP3    H2 3874   1.682   4.917   0.383
 1311TIP3   OH2 3875   1.822   4.980   1.243
 1311TIP3    H1 3876   1.819   5.062   1.295
 1311TIP3    H2 3877   1.735   4.983   1.198
 1312TIP3   OH2 3878   0.807   4.924   0.752
 1312TIP3    H1 3879   0.795   4.863   0.678
 1312TIP3    H2 3880   0.893   4.893   0.788
 1313TIP3   OH2 3881   0.943   5.292   0.939
 1313TIP3    H1 3882   0.926   5.339   0.856
 1313TIP3    H2 3883   1.040   5.282   0.936
 1314TIP3   OH2 3884   0.966   4.908   1.103
 1314TIP3    H1 3885   0.992   4.892   1.010
 1314TIP3    H2 3886   1.000   4.998   1.119
 1315TIP3   OH2 3887   1.471   5.554   0.875
 1315TIP3    H1 3888   1.474   5.627   0.941
 1315TIP3    H2 3889   1.464   5.475   0.933
 1316TIP3   OH2 3890   1.099   5.468   1.425
 1316TIP3    H1 3891   1.038   5.531   1.470
 1316TIP3    H2 3892   1.033   5.414   1.376
 1317TIP3   OH2 3893   1.450   4.829   0.151
 1317TIP3    H1 3894   1.505   4.867   0.224
 1317TIP3    H2 3895   1.460   4.897   0.084
 1318TIP3   OH2 3896   0.853   5.024   1.524
 1318TIP3    H1 3897   0.858   5.110   1.572
 1318TIP3    H2 3898   0.759   5.002   1.542
 1319TIP3   OH2 3899   0.894   5.638   1.512
 1319TIP3    H1 3900   0.860   5.637   1.421
 1319TIP3    H2 3901   0.814   5.615   1.565
 1320TIP3   OH2 3902   1.937   4.036   0.202
 1320TIP3    H1 3903   1.863   4.043   0.266
 1320TIP3    H2 3904   1.938   4.125   0.164
 1321TIP3   OH2 3905   0.469   5.156   1.457
 1321TIP3    H1 3906   0.445   5.122   1.370
 1321TIP3    H2 3907   0.514   5.078   1.497
 1322TIP3   OH2 3908   2.185   5.811   1.146
 1322TIP3    H1 3909   2.185   5.715   1.162
 1322TIP3    H2 3910   2.102   5.836   1.193
 1323TIP3   OH2 3911   1.295   5.595   1.282
 1323TIP3    H1 3912   1.290   5.688   1.314
 1323TIP3    H2 3913   1.222   5.555   1.334
 1324TIP3   OH2 3914   2.076   4.941   1.421
 1324TIP3    H1 3915   1.992   4.950   1.373
 1324TIP3    H2 3916   2.092   4.845   1.413
 1325TIP3   OH2 3917   0.675   5.345   1.454
 1325TIP3    H1 3918   0.728   5.325   1.534
 1325TIP3    H2 3919   0.601   5.282   1.461
 1326TIP3   OH2 3920   1.072   4.172   1.233
 1326TIP3    H1 3921   0.984   4.143   1.202
 1326TIP3    H2 3922   1.046   4.253   1.282
 1327TIP3   OH2 3923   1.607   4.285   1.426
 1327TIP3    H1 3924   1.675   4.260   1.490
 1327TIP3    H2 3925   1.523   4.267   1.473
 1328TIP3   OH2 3926   1.844   4.717   1.345
 1328TIP3    H1 3927   1.793   4.713   1.430
 1328TIP3    H2 3928   1.817   4.804   1.309
 1329TIP3   OH2 3929   1.215   4.284   0.208
 1329TIP3    H1 3930   1.212   4.249   0.300
 1329TIP3    H2 3931   1.195   4.204   0.155
 1330TIP3   OH2 3932   1.005   4.687   1.252
 1330TIP3    H1 3933   0.955   4.709   1.333
 1330TIP3    H2 3934   0.991   4.768   1.198
 1331TIP3   OH2 3935   0.885   4.583   0.778
 1331TIP3    H1 3936   0.793   4.554   0.797
 1331TIP3    H2 3937   0.898   4.548   0.687
 1332TIP3   OH2 3938   1.381   4.664   0.490
 1332TIP3    H1 3939   1.329   4.732   0.443
 1332TIP3    H2 3940   1.437   4.626   0.419
 1333TIP3   OH2 3941   1.552   4.935   1.575
 1333TIP3    H1 3942   1.528   4.863   1.638
 1333TIP3    H2 3943   1.646   4.949   1.600
 1334TIP3   OH2 3944   1.534   4.686   0.728
 1334TIP3    H1 3945   1.472   4.710   0.656
 1334TIP3    H2 3946   1.572   4.606   0.687
 1335TIP3   OH2 3947   0.823   4.717   1.459
 1335TIP3    H1 3948   0.854   4.778   1.528
 1335TIP3    H2 3949   0.810   4.634   1.510
 1336TIP3   OH2 3950   0.418   4.257   1.049
 1336TIP3    H1 3951   0.489   4.284   1.111
 1336TIP3    H2 3952   0.470   4.228   0.973
 1337TIP3   OH2 3953   1.545   4.934   1.149
 1337TIP3    H1 3954   1.578   4.861   1.091
 1337TIP3    H2 3955   1.515   4.881   1.226
 1338TIP3   OH2 3956   1.224   4.405   0.829
 1338TIP3    H1 3957   1.141   4.397   0.881
 1338TIP3    H2 3958   1.292   4.392   0.897
 1339TIP3   OH2 3959   0.660   4.437   0.861
 1339TIP3    H1 3960   0.590   4.450   0.793
 1339TIP3    H2 3961   0.704   4.355   0.830
 1340TIP3   OH2 3962   0.938   4.500   0.527
 1340TIP3    H1 3963   1.033   4.476   0.535
 1340TIP3    H2 3964   0.917   4.463   0.440
 1341TIP3   OH2 3965   1.706   4.471   1.027
 1341TIP3    H1 3966   1.674   4.484   1.119
 1341TIP3    H2 3967   1.638   4.411   0.992
 1342TIP3   OH2 3968   1.879   6.162   1.247
 1342TIP3    H1 3969   1.879   6.184   1.152
 1342TIP3    H2 3970   1.960   6.207   1.278
 1343TIP3   OH2 3971   0.836   5.269   1.667
 1343TIP3    H1 3972   0.915   5.299   1.716
 1343TIP3    H2 3973   0.771   5.267   1.740
 1344TIP3   OH2 3974   1.298   4.730   0.923
 1344TIP3    H1 3975   1.366   4.683   0.872
 1344TIP3    H2 3976   1.301   4.684   1.009
 1345TIP3   OH2 3977   0.829   4.216   0.811
 1345TIP3    H1 3978   0.788   4.135   0.847
 1345TIP3    H2 3979   0.887   4.179   0.742
 1346TIP3   OH2 3980   1.274   4.625   1.208
 1346TIP3    H1 3981   1.183   4.659   1.226
 1346TIP3    H2 3982   1.330   4.686   1.261
 1347TIP3   OH2 3983   1.909   5.249   0.933
 1347TIP3    H1 3984   1.934   5.298   0.851
 1347TIP3    H2 3985   1.825   5.206   0.907
 1348TIP3   OH2 3986   1.482   4.339   0.138
 1348TIP3    H1 3987   1.389   4.321   0.160
 1348TIP3    H2 3988   1.497   4.423   0.184
 1349TIP3   OH2 3989   1.417   5.335   1.300
 1349TIP3    H1 3990   1.434   5.306   1.391
 1349TIP3    H2 3991   1.369   5.419   1.313
 1350TIP3   OH2 3992   1.538   4.582   0.273
 1350TIP3    H1 3993   1.634   4.576   0.291
 1350TIP3    H2 3994   1.532   4.654   0.209
 1351TIP3   OH2 3995   0.706   5.043   0.984
 1351TIP3    H1 3996   0.743   5.006   0.901
 1351TIP3    H2 3997   0.709   4.964   1.040
 1352TIP3   OH2 3998   0.589   4.958   1.599
 1352TIP3    H1 3999   0.621   4.949   1.691
 1352TIP3    H2 4000   0.525   4.885   1.593
 1353TIP3   OH2 4001   1.312   5.073   1.608
 1353TIP3    H1 4002   1.250   5.011   1.566
 1353TIP3    H2 4003   1.398   5.035   1.582
 1354TIP3   OH2 4004   1.568   5.601   1.193
 1354TIP3    H1 4005   1.473   5.589   1.212
 1354TIP3    H2 4006   1.597   5.646   1.275
 1355TIP3   OH2 4007   1.980   4.661   0.113
 1355TIP3    H1 4008   1.920   4.618   0.047
 1355TIP3    H2 4009   1.980   4.751   0.073
 1356TIP3   OH2 4010   2.198   5.523   1.188
 1356TIP3    H1 4011   2.100   5.515   1.181
 1356TIP3    H2 4012   2.224   5.492   1.098
 1357TIP3   OH2 4013   1.675   5.112   0.845
 1357TIP3    H1 4014   1.583   5.085   0.863
 1357TIP3    H2 4015   1.710   5.030   0.806
 1358TIP3   OH2 4016   1.074   5.694   1.109
 1358TIP3    H1 4017   1.089   5.709   1.015
 1358TIP3    H2 4018   1.158   5.655   1.139
 1359TIP3   OH2 4019   1.469   5.322   1.033
 1359TIP3    H1 4020   1.453   5.322   1.130
 1359TIP3    H2 4021   1.544   5.262   1.026
 1360TIP3   OH2 4022   1.713   5.846   1.091
 1360TIP3    H1 4023   1.636   5.787   1.090
 1360TIP3    H2 4024   1.693   5.907   1.017
 1361TIP3   OH2 4025   0.794   4.459   1.601
 1361TIP3    H1 4026   0.698   4.464   1.617
 1361TIP3    H2 4027   0.823   4.405   1.677
 1362TIP3   OH2 4028   1.621   5.178   0.187
 1362TIP3    H1 4029   1.606   5.097   0.239
 1362TIP3    H2 4030   1.709   5.158   0.148
 1363TIP3   OH2 4031   0.559   5.547   1.288
 1363TIP3    H1 4032   0.569   5.458   1.250
 1363TIP3    H2 4033   0.608   5.534   1.371
 1364TIP3   OH2 4034   1.634   4.523   1.286
 1364TIP3    H1 4035   1.713   4.561   1.327
 1364TIP3    H2 4036   1.620   4.442   1.340
 1365TIP3   OH2 4037   1.465   4.312   0.452
 1365TIP3    H1 4038   1.505   4.273   0.372
 1365TIP3    H2 4039   1.540   4.364   0.488
 1366TIP3   OH2 4040   1.203   4.456   0.561
 1366TIP3    H1 4041   1.277   4.516   0.537
 1366TIP3    H2 4042   1.215   4.449   0.658
 1367TIP3   OH2 4043   1.473   4.773   1.357
 1367TIP3    H1 4044   1.494   4.825   1.437
 1367TIP3    H2 4045   1.524   4.691   1.370
 1368TIP3   OH2 4046   1.357   4.188   0.668
 1368TIP3    H1 4047   1.346   4.266   0.725
 1368TIP3    H2 4048   1.404   4.228   0.591
 1369TIP3   OH2 4049   0.895   4.175   0.446
 1369TIP3    H1 4050   0.881   4.267   0.419
 1369TIP3    H2 4051   0.992   4.169   0.448
 1370TIP3   OH2 4052   2.109   4.673   1.339
 1370TIP3    H1 4053   2.012   4.674   1.349
 1370TIP3    H2 4054   2.117   4.625   1.255
 1371TIP3   OH2 4055   1.760   4.867   0.730
 1371TIP3    H1 4056   1.684   4.808   0.741
 1371TIP3    H2 4057   1.831   4.819   0.779
 1372TIP3   OH2 4058   1.741   5.817   0.685
 1372TIP3    H1 4059   1.709   5.865   0.606
 1372TIP3    H2 4060   1.837   5.833   0.673
 1373TIP3   OH2 4061   0.806   4.096   1.202
 1373TIP3    H1 4062   0.775   4.058   1.118
 1373TIP3    H2 4063   0.803   4.020   1.263
 1374TIP3   OH2 4064   0.489   5.828   1.665
 1374TIP3    H1 4065   0.579   5.832   1.702
 1374TIP3    H2 4066   0.475   5.732   1.661
 1375TIP3   OH2 4067   0.985   5.820   1.699
 1375TIP3    H1 4068   1.077   5.792   1.709
 1375TIP3    H2 4069   0.956   5.758   1.629
 1376TIP3   OH2 4070   1.624   5.723   1.433
 1376TIP3    H1 4071   1.614   5.653   1.502
 1376TIP3    H2 4072   1.700   5.774   1.466
 1377TIP3   OH2 4073   0.635   5.274   1.856
 1377TIP3    H1 4074   0.654   5.191   1.904
 1377TIP3    H2 4075   0.549   5.256   1.813
 1378TIP3   OH2 4076   1.242   5.347   1.632
 1378TIP3    H1 4077   1.197   5.365   1.546
 1378TIP3    H2 4078   1.271   5.254   1.621
 1379TIP3   OH2 4079   1.733   5.354   1.237
 1379TIP3    H1 4080   1.807   5.402   1.194
 1379TIP3    H2 4081   1.660   5.416   1.224
 1380TIP3   OH2 4082   0.756   4.976   1.830
 1380TIP3    H1 4083   0.839   4.927   1.827
 1380TIP3    H2 4084   0.766   5.020   1.917
 1381TIP3   OH2 4085   1.086   4.876   1.499
 1381TIP3    H1 4086   1.010   4.937   1.504
 1381TIP3    H2 4087   1.136   4.912   1.423
 1382TIP3   OH2 4088   1.605   5.281   1.633
 1382TIP3    H1 4089   1.684   5.250   1.588
 1382TIP3    H2 4090   1.598   5.217   1.707
 1383TIP3   OH2 4091   1.212   4.667   1.624
 1383TIP3    H1 4092   1.212   4.588   1.567
 1383TIP3    H2 4093   1.167   4.734   1.568
 1384TIP3   OH2 4094   1.215   4.453   1.433
 1384TIP3    H1 4095   1.241   4.494   1.348
 1384TIP3    H2 4096   1.121   4.430   1.416
 1385TIP3   OH2 4097   1.240   4.987   1.309
 1385TIP3    H1 4098   1.323   4.997   1.261
 1385TIP3    H2 4099   1.182   5.052   1.263
 1386TIP3   OH2 4100   1.820   4.953   1.686
 1386TIP3    H1 4101   1.866   4.870   1.704
 1386TIP3    H2 4102   1.891   5.009   1.651
 1387TIP3   OH2 4103   1.863   5.208   1.424
 1387TIP3    H1 4104   1.805   5.262   1.366
 1387TIP3    H2 4105   1.951   5.228   1.384
 1388TIP3   OH2 4106   1.078   4.777   1.846
 1388TIP3    H1 4107   1.017   4.704   1.867
 1388TIP3    H2 4108   1.121   4.745   1.765
 1389TIP3   OH2 4109   1.345   4.215   1.503
 1389TIP3    H1 4110   1.297   4.298   1.480
 1389TIP3    H2 4111   1.275   4.148   1.492
 1390TIP3   OH2 4112   1.471   4.719   1.719
 1390TIP3    H1 4113   1.458   4.705   1.815
 1390TIP3    H2 4114   1.381   4.695   1.688
 1391TIP3   OH2 4115   1.709   4.668   1.573
 1391TIP3    H1 4116   1.634   4.670   1.636
 1391TIP3    H2 4117   1.783   4.638   1.631
 1392TIP3   OH2 4118   1.941   4.611   1.722
 1392TIP3    H1 4119   1.953   4.516   1.740
 1392TIP3    H2 4120   1.935   4.649   1.813
 1393TIP3   OH2 4121   0.925   4.556   1.917
 1393TIP3    H1 4122   0.932   4.465   1.882
 1393TIP3    H2 4123   0.963   4.544   2.007
 1394TIP3   OH2 4124   1.438   4.226   1.762
 1394TIP3    H1 4125   1.505   4.155   1.756
 1394TIP3    H2 4126   1.399   4.220   1.672
 1395TIP3   OH2 4127   1.504   4.442   1.919
 1395TIP3    H1 4128   1.482   4.370   1.855
 1395TIP3    H2 4129   1.424   4.499   1.913
 1396TIP3   OH2 4130   1.991   5.913   0.640
 1396TIP3    H1 4131   2.016   5.944   0.729
 1396TIP3    H2 4132   2.055   5.957   0.583
 1397TIP3   OH2 4133   2.014   5.934   0.921
 1397TIP3    H1 4134   1.969   5.847   0.918
 1397TIP3    H2 4135   2.089   5.912   0.978
 1398TIP3   OH2 4136   2.059   5.612   1.490
 1398TIP3    H1 4137   1.987   5.620   1.557
 1398TIP3    H2 4138   2.101   5.700   1.497
 1399TIP3   OH2 4139   1.880   5.119   0.107
 1399TIP3    H1 4140   1.949   5.183   0.077
 1399TIP3    H2 4141   1.924   5.081   0.186
 1400TIP3   OH2 4142   2.003   4.993   0.316
 1400TIP3    H1 4143   1.941   4.947   0.376
 1400TIP3    H2 4144   2.071   5.027   0.378
 1401TIP3   OH2 4145   2.058   5.385   0.743
 1401TIP3    H1 4146   2.114   5.318   0.700
 1401TIP3    H2 4147   2.053   5.455   0.676
 1402TIP3   OH2 4148   1.887   5.685   0.938
 1402TIP3    H1 4149   1.817   5.724   0.994
 1402TIP3    H2 4150   1.835   5.636   0.871
 1403TIP3   OH2 4151   1.945   4.892  -0.036
 1403TIP3    H1 4152   1.866   4.867  -0.087
 1403TIP3    H2 4153   1.915   4.974   0.009
 1404TIP3   OH2 4154   1.817   4.585  -0.087
 1404TIP3    H1 4155   1.746   4.636  -0.131
 1404TIP3    H2 4156   1.786   4.493  -0.097
 1405TIP3   OH2 4157   1.823   4.844   0.463
 1405TIP3    H1 4158   1.828   4.747   0.455
 1405TIP3    H2 4159   1.808   4.856   0.560
 1406TIP3   OH2 4160   0.454   4.909   1.222
 1406TIP3    H1 4161   0.456   4.883   1.128
 1406TIP3    H2 4162   0.551   4.910   1.241
 1407TIP3   OH2 4163   2.108   5.274   1.317
 1407TIP3    H1 4164   2.178   5.206   1.307
 1407TIP3    H2 4165   2.136   5.342   1.255
 1408TIP3   OH2 4166   2.291   5.076   1.327
 1408TIP3    H1 4167   2.216   5.027   1.367
 1408TIP3    H2 4168   2.363   5.013   1.344
 1409TIP3   OH2 4169   1.748   4.320  -0.082
 1409TIP3    H1 4170   1.834   4.285  -0.052
 1409TIP3    H2 4171   1.685   4.276  -0.023
 1410TIP3   OH2 4172   1.812   4.562   0.351
 1410TIP3    H1 4173   1.850   4.473   0.368
 1410TIP3    H2 4174   1.873   4.593   0.281
 1411TIP3   OH2 4175   1.974   4.737   0.850
 1411TIP3    H1 4176   2.060   4.762   0.809
 1411TIP3    H2 4177   1.988   4.774   0.940
 1412TIP3   OH2 4178   2.045   4.883   1.081
 1412TIP3    H1 4179   1.968   4.916   1.131
 1412TIP3    H2 4180   2.077   4.964   1.037
 1413TIP3   OH2 4181   0.656   4.601   1.866
 1413TIP3    H1 4182   0.752   4.606   1.882
 1413TIP3    H2 4183   0.635   4.518   1.915
 1414TIP3   OH2 4184   2.496   4.476   1.636
 1414TIP3    H1 4185   2.555   4.411   1.594
 1414TIP3    H2 4186   2.466   4.529   1.559
 1415TIP3   OH2 4187   1.918   4.315   0.397
 1415TIP3    H1 4188   1.967   4.298   0.480
 1415TIP3    H2 4189   1.853   4.241   0.403
 1416TIP3   OH2 4190   0.624   4.302   1.217
 1416TIP3    H1 4191   0.686   4.227   1.223
 1416TIP3    H2 4192   0.687   4.376   1.207
 1417TIP3   OH2 4193   0.415   4.572   1.288
 1417TIP3    H1 4194   0.473   4.569   1.209
 1417TIP3    H2 4195   0.441   4.656   1.327
 1418TIP3   OH2 4196   2.365   4.612   1.440
 1418TIP3    H1 4197   2.279   4.654   1.463
 1418TIP3    H2 4198   2.334   4.539   1.384
 1419TIP3   OH2 4199   2.009   4.254   0.009
 1419TIP3    H1 4200   2.075   4.188  -0.017
 1419TIP3    H2 4201   2.064   4.334   0.017
 1420TIP3   OH2 4202   0.629   4.150   1.599
 1420TIP3    H1 4203   0.580   4.154   1.682
 1420TIP3    H2 4204   0.565   4.194   1.539
 1421TIP3   OH2 4205   0.679   5.586   1.675
 1421TIP3    H1 4206   0.586   5.557   1.663
 1421TIP3    H2 4207   0.693   5.565   1.768
 1422TIP3   OH2 4208   0.850   5.607   1.235
 1422TIP3    H1 4209   0.780   5.633   1.172
 1422TIP3    H2 4210   0.930   5.642   1.190
 1423TIP3   OH2 4211   1.293   5.861   1.363
 1423TIP3    H1 4212   1.334   5.858   1.452
 1423TIP3    H2 4213   1.361   5.912   1.313
 1424TIP3   OH2 4214   1.472   6.016   1.224
 1424TIP3    H1 4215   1.542   5.961   1.184
 1424TIP3    H2 4216   1.525   6.072   1.284
 1425TIP3   OH2 4217   2.265   4.375   1.321
 1425TIP3    H1 4218   2.174   4.366   1.287
 1425TIP3    H2 4219   2.298   4.282   1.311
 1426TIP3   OH2 4220   1.218   5.910   0.880
 1426TIP3    H1 4221   1.122   5.887   0.869
 1426TIP3    H2 4222   1.214   5.977   0.951
 1427TIP3   OH2 4223   1.464   5.822   0.958
 1427TIP3    H1 4224   1.372   5.846   0.932
 1427TIP3    H2 4225   1.514   5.894   0.918
 1428TIP3   OH2 4226   1.658   6.004   0.872
 1428TIP3    H1 4227   1.650   6.090   0.825
 1428TIP3    H2 4228   1.690   5.944   0.800
 1429TIP3   OH2 4229   1.472   4.292   0.943
 1429TIP3    H1 4230   1.429   4.220   0.992
 1429TIP3    H2 4231   1.537   4.245   0.888
 1430TIP3   OH2 4232   1.986   4.176   0.848
 1430TIP3    H1 4233   2.025   4.224   0.771
 1430TIP3    H2 4234   1.891   4.191   0.834
 1431TIP3   OH2 4235   2.089   4.270   0.612
 1431TIP3    H1 4236   2.161   4.218   0.571
 1431TIP3    H2 4237   2.121   4.361   0.595
 1432TIP3   OH2 4238   0.711   4.000   0.954
 1432TIP3    H1 4239   0.628   3.951   0.957
 1432TIP3    H2 4240   0.775   3.924   0.950
 1433TIP3   OH2 4241   1.153   4.047   0.833
 1433TIP3    H1 4242   1.221   4.071   0.768
 1433TIP3    H2 4243   1.195   4.073   0.916
 1434TIP3   OH2 4244   1.709   4.175   0.802
 1434TIP3    H1 4245   1.702   4.141   0.711
 1434TIP3    H2 4246   1.691   4.095   0.856
 1435TIP3   OH2 4247   1.163   4.201   0.467
 1435TIP3    H1 4248   1.218   4.152   0.530
 1435TIP3    H2 4249   1.184   4.293   0.496
 1436TIP3   OH2 4250   0.926   4.278   1.845
 1436TIP3    H1 4251   0.892   4.209   1.905
 1436TIP3    H2 4252   1.020   4.280   1.873
 1437TIP3   OH2 4253   1.174   4.276   1.965
 1437TIP3    H1 4254   1.261   4.253   1.928
 1437TIP3    H2 4255   1.164   4.206   2.032
 1438TIP3   OH2 4256   2.001   4.340   1.754
 1438TIP3    H1 4257   2.019   4.310   1.846
 1438TIP3    H2 4258   2.090   4.335   1.714
 1439TIP3   OH2 4259   1.940   5.892   1.247
 1439TIP3    H1 4260   1.860   5.860   1.200
 1439TIP3    H2 4261   1.919   5.987   1.254
 1440TIP3   OH2 4262   3.199   5.272   0.063
 1440TIP3    H1 4263   3.190   5.355   0.010
 1440TIP3    H2 4264   3.120   5.279   0.118
 1441TIP3   OH2 4265   3.200   5.259   0.400
 1441TIP3    H1 4266   3.235   5.245   0.490
 1441TIP3    H2 4267   3.163   5.171   0.381
 1442TIP3   OH2 4268   2.501   5.157   0.761
 1442TIP3    H1 4269   2.532   5.089   0.824
 1442TIP3    H2 4270   2.581   5.211   0.753
 1443TIP3   OH2 4271   3.467   5.557   0.073
 1443TIP3    H1 4272   3.436   5.494   0.140
 1443TIP3    H2 4273   3.482   5.637   0.125
 1444TIP3   OH2 4274   2.476   5.569   0.480
 1444TIP3    H1 4275   2.469   5.471   0.483
 1444TIP3    H2 4276   2.573   5.578   0.473
 1445TIP3   OH2 4277   2.183   4.772   0.266
 1445TIP3    H1 4278   2.134   4.855   0.282
 1445TIP3    H2 4279   2.113   4.716   0.229
 1446TIP3   OH2 4280   2.241   5.059   0.444
 1446TIP3    H1 4281   2.290   4.981   0.480
 1446TIP3    H2 4282   2.301   5.091   0.376
 1447TIP3   OH2 4283   3.062   5.992   0.130
 1447TIP3    H1 4284   3.124   5.993   0.055
 1447TIP3    H2 4285   3.119   5.979   0.206
 1448TIP3   OH2 4286   3.004   5.490   0.442
 1448TIP3    H1 4287   3.045   5.412   0.402
 1448TIP3    H2 4288   3.086   5.537   0.468
 1449TIP3   OH2 4289   4.017   4.806   0.443
 1449TIP3    H1 4290   4.044   4.893   0.479
 1449TIP3    H2 4291   4.058   4.808   0.354
 1450TIP3   OH2 4292   3.437   5.006   0.506
 1450TIP3    H1 4293   3.459   4.912   0.514
 1450TIP3    H2 4294   3.445   5.020   0.411
 1451TIP3   OH2 4295   2.755   4.651   0.440
 1451TIP3    H1 4296   2.735   4.723   0.376
 1451TIP3    H2 4297   2.706   4.577   0.396
 1452TIP3   OH2 4298   3.448   4.745   0.055
 1452TIP3    H1 4299   3.521   4.728   0.120
 1452TIP3    H2 4300   3.502   4.772  -0.022
 1453TIP3   OH2 4301   2.388   4.853   0.547
 1453TIP3    H1 4302   2.471   4.832   0.595
 1453TIP3    H2 4303   2.400   4.797   0.468
 1454TIP3   OH2 4304   2.830   5.049   0.342
 1454TIP3    H1 4305   2.922   5.021   0.356
 1454TIP3    H2 4306   2.788   4.966   0.309
 1455TIP3   OH2 4307   4.093   5.018   0.611
 1455TIP3    H1 4308   4.008   5.064   0.591
 1455TIP3    H2 4309   4.111   5.053   0.700
 1456TIP3   OH2 4310   2.751   4.634   0.874
 1456TIP3    H1 4311   2.691   4.670   0.806
 1456TIP3    H2 4312   2.698   4.651   0.955
 1457TIP3   OH2 4313   3.130   5.481  -0.088
 1457TIP3    H1 4314   3.089   5.435  -0.163
 1457TIP3    H2 4315   3.075   5.560  -0.079
 1458TIP3   OH2 4316   2.856   5.410   0.665
 1458TIP3    H1 4317   2.796   5.478   0.703
 1458TIP3    H2 4318   2.900   5.460   0.594
 1459TIP3   OH2 4319   3.651   4.748   0.236
 1459TIP3    H1 4320   3.638   4.700   0.319
 1459TIP3    H2 4321   3.708   4.822   0.265
 1460TIP3   OH2 4322   2.622   4.750   0.658
 1460TIP3    H1 4323   2.684   4.822   0.682
 1460TIP3    H2 4324   2.671   4.709   0.583
 1461TIP3   OH2 4325   2.686   5.606   0.766
 1461TIP3    H1 4326   2.661   5.693   0.729
 1461TIP3    H2 4327   2.608   5.589   0.822
 1462TIP3   OH2 4328   2.078   5.290   0.002
 1462TIP3    H1 4329   2.042   5.306  -0.088
 1462TIP3    H2 4330   2.094   5.382   0.032
 1463TIP3   OH2 4331   3.518   5.798   0.242
 1463TIP3    H1 4332   3.431   5.785   0.285
 1463TIP3    H2 4333   3.508   5.890   0.212
 1464TIP3   OH2 4334   3.810   4.707   0.606
 1464TIP3    H1 4335   3.723   4.736   0.574
 1464TIP3    H2 4336   3.871   4.740   0.536
 1465TIP3   OH2 4337   3.106   4.351   0.591
 1465TIP3    H1 4338   3.090   4.256   0.607
 1465TIP3    H2 4339   3.028   4.389   0.637
 1466TIP3   OH2 4340   3.736   5.723   0.590
 1466TIP3    H1 4341   3.733   5.646   0.529
 1466TIP3    H2 4342   3.734   5.799   0.529
 1467TIP3   OH2 4343   3.092   5.222  -0.243
 1467TIP3    H1 4344   3.008   5.207  -0.197
 1467TIP3    H2 4345   3.158   5.170  -0.196
 1468TIP3   OH2 4346   3.940   5.361   0.435
 1468TIP3    H1 4347   3.857   5.412   0.442
 1468TIP3    H2 4348   3.967   5.381   0.343
 1469TIP3   OH2 4349   3.337   5.126  -0.115
 1469TIP3    H1 4350   3.301   5.191  -0.050
 1469TIP3    H2 4351   3.433   5.142  -0.105
 1470TIP3   OH2 4352   3.618   5.238   0.733
 1470TIP3    H1 4353   3.619   5.320   0.785
 1470TIP3    H2 4354   3.533   5.247   0.687
 1471TIP3   OH2 4355   2.614   5.194   0.234
 1471TIP3    H1 4356   2.573   5.135   0.167
 1471TIP3    H2 4357   2.692   5.141   0.262
 1472TIP3   OH2 4358   2.743   5.604   0.380
 1472TIP3    H1 4359   2.724   5.571   0.291
 1472TIP3    H2 4360   2.833   5.569   0.397
 1473TIP3   OH2 4361   2.749   5.168   0.586
 1473TIP3    H1 4362   2.784   5.144   0.498
 1473TIP3    H2 4363   2.794   5.253   0.605
 1474TIP3   OH2 4364   3.279   5.802   0.363
 1474TIP3    H1 4365   3.264   5.884   0.414
 1474TIP3    H2 4366   3.262   5.732   0.429
 1475TIP3   OH2 4367   2.891   5.724   0.911
 1475TIP3    H1 4368   2.831   5.786   0.957
 1475TIP3    H2 4369   2.826   5.670   0.861
 1476TIP3   OH2 4370   2.646   5.279   1.014
 1476TIP3    H1 4371   2.650   5.367   1.057
 1476TIP3    H2 4372   2.551   5.259   1.026
 1477TIP3   OH2 4373   2.976   5.732  -0.053
 1477TIP3    H1 4374   3.031   5.782   0.008
 1477TIP3    H2 4375   2.893   5.783  -0.050
 1478TIP3   OH2 4376   2.684   5.890   0.998
 1478TIP3    H1 4377   2.650   5.891   0.906
 1478TIP3    H2 4378   2.604   5.870   1.050
 1479TIP3   OH2 4379   2.480   5.034   0.045
 1479TIP3    H1 4380   2.411   5.072  -0.013
 1479TIP3    H2 4381   2.452   4.942   0.051
 1480TIP3   OH2 4382   2.263   5.423   0.945
 1480TIP3    H1 4383   2.197   5.398   0.877
 1480TIP3    H2 4384   2.302   5.336   0.969
 1481TIP3   OH2 4385   2.119   5.621   0.568
 1481TIP3    H1 4386   2.214   5.606   0.566
 1481TIP3    H2 4387   2.113   5.694   0.632
 1482TIP3   OH2 4388   3.088   5.854   0.768
 1482TIP3    H1 4389   3.085   5.946   0.801
 1482TIP3    H2 4390   3.017   5.812   0.822
 1483TIP3   OH2 4391   2.270   5.807   0.117
 1483TIP3    H1 4392   2.347   5.809   0.179
 1483TIP3    H2 4393   2.202   5.779   0.180
 1484TIP3   OH2 4394   3.871   5.195   0.912
 1484TIP3    H1 4395   3.791   5.208   0.860
 1484TIP3    H2 4396   3.887   5.099   0.900
 1485TIP3   OH2 4397   2.468   5.606   0.930
 1485TIP3    H1 4398   2.518   5.590   1.013
 1485TIP3    H2 4399   2.394   5.542   0.938
 1486TIP3   OH2 4400   2.867   4.429   0.719
 1486TIP3    H1 4401   2.778   4.398   0.691
 1486TIP3    H2 4402   2.841   4.510   0.767
 1487TIP3   OH2 4403   3.403   4.543   0.913
 1487TIP3    H1 4404   3.471   4.516   0.977
 1487TIP3    H2 4405   3.319   4.523   0.960
 1488TIP3   OH2 4406   3.639   4.972   0.830
 1488TIP3    H1 4407   3.590   4.971   0.916
 1488TIP3    H2 4408   3.615   5.059   0.793
 1489TIP3   OH2 4409   3.025   4.500  -0.301
 1489TIP3    H1 4410   2.981   4.469  -0.219
 1489TIP3    H2 4411   2.983   4.444  -0.367
 1490TIP3   OH2 4412   2.799   4.946   0.736
 1490TIP3    H1 4413   2.749   4.965   0.818
 1490TIP3    H2 4414   2.782   5.027   0.683
 1491TIP3   OH2 4415   2.681   4.833   0.252
 1491TIP3    H1 4416   2.589   4.805   0.271
 1491TIP3    H2 4417   2.692   4.791   0.163
 1492TIP3   OH2 4418   3.184   4.894  -0.091
 1492TIP3    H1 4419   3.179   4.988  -0.071
 1492TIP3    H2 4420   3.274   4.892  -0.127
 1493TIP3   OH2 4421   3.349   5.192   1.064
 1493TIP3    H1 4422   3.326   5.120   1.127
 1493TIP3    H2 4423   3.443   5.207   1.086
 1494TIP3   OH2 4424   3.332   4.931   0.228
 1494TIP3    H1 4425   3.272   4.968   0.162
 1494TIP3    H2 4426   3.362   4.850   0.183
 1495TIP3   OH2 4427   2.618   4.973   0.944
 1495TIP3    H1 4428   2.648   5.035   1.012
 1495TIP3    H2 4429   2.606   4.891   0.996
 1496TIP3   OH2 4430   2.691   4.384  -0.326
 1496TIP3    H1 4431   2.664   4.423  -0.242
 1496TIP3    H2 4432   2.652   4.443  -0.392
 1497TIP3   OH2 4433   2.212   4.495   0.524
 1497TIP3    H1 4434   2.287   4.525   0.579
 1497TIP3    H2 4435   2.254   4.460   0.444
 1498TIP3   OH2 4436   2.177   4.477   0.041
 1498TIP3    H1 4437   2.230   4.513  -0.032
 1498TIP3    H2 4438   2.120   4.553   0.062
 1499TIP3   OH2 4439   3.322   5.201   0.650
 1499TIP3    H1 4440   3.367   5.130   0.599
 1499TIP3    H2 4441   3.298   5.149   0.729
 1500TIP3   OH2 4442   3.013   4.640   0.312
 1500TIP3    H1 4443   2.931   4.640   0.365
 1500TIP3    H2 4444   3.081   4.643   0.381
 1501TIP3   OH2 4445   2.444   4.709   0.319
 1501TIP3    H1 4446   2.350   4.716   0.291
 1501TIP3    H2 4447   2.468   4.617   0.296
 1502TIP3   OH2 4448   2.703   4.706   0.011
 1502TIP3    H1 4449   2.797   4.723  -0.012
 1502TIP3    H2 4450   2.655   4.737  -0.069
 1503TIP3   OH2 4451   3.501   4.731   0.514
 1503TIP3    H1 4452   3.470   4.741   0.607
 1503TIP3    H2 4453   3.433   4.672   0.478
 1504TIP3   OH2 4454   2.539   4.752  -0.199
 1504TIP3    H1 4455   2.459   4.701  -0.219
 1504TIP3    H2 4456   2.598   4.731  -0.275
 1505TIP3   OH2 4457   3.672   6.426   0.734
 1505TIP3    H1 4458   3.674   6.448   0.639
 1505TIP3    H2 4459   3.755   6.466   0.765
 1506TIP3   OH2 4460   2.629   5.528   1.152
 1506TIP3    H1 4461   2.709   5.557   1.200
 1506TIP3    H2 4462   2.565   5.526   1.225
 1507TIP3   OH2 4463   3.100   4.980   0.414
 1507TIP3    H1 4464   3.181   4.941   0.378
 1507TIP3    H2 4465   3.096   4.939   0.503
 1508TIP3   OH2 4466   2.613   4.467   0.292
 1508TIP3    H1 4467   2.578   4.389   0.340
 1508TIP3    H2 4468   2.651   4.427   0.213
 1509TIP3   OH2 4469   3.069   4.884   0.694
 1509TIP3    H1 4470   2.979   4.917   0.714
 1509TIP3    H2 4471   3.126   4.942   0.749
 1510TIP3   OH2 4472   2.805   5.260  -0.192
 1510TIP3    H1 4473   2.721   5.214  -0.208
 1510TIP3    H2 4474   2.786   5.308  -0.109
 1511TIP3   OH2 4475   3.704   5.502   0.423
 1511TIP3    H1 4476   3.730   5.551   0.342
 1511TIP3    H2 4477   3.619   5.461   0.397
 1512TIP3   OH2 4478   3.200   5.586   0.790
 1512TIP3    H1 4479   3.236   5.568   0.878
 1512TIP3    H2 4480   3.166   5.676   0.798
 1513TIP3   OH2 4481   2.498   5.292   0.468
 1513TIP3    H1 4482   2.537   5.263   0.383
 1513TIP3    H2 4483   2.542   5.232   0.530
 1514TIP3   OH2 4484   2.381   5.211   1.082
 1514TIP3    H1 4485   2.399   5.197   1.177
 1514TIP3    H2 4486   2.312   5.144   1.066
 1515TIP3   OH2 4487   3.107   5.326   1.102
 1515TIP3    H1 4488   3.047   5.267   1.055
 1515TIP3    H2 4489   3.194   5.292   1.074
 1516TIP3   OH2 4490   3.362   5.848   0.687
 1516TIP3    H1 4491   3.266   5.847   0.703
 1516TIP3    H2 4492   3.393   5.899   0.765
 1517TIP3   OH2 4493   3.999   5.746   0.690
 1517TIP3    H1 4494   3.909   5.784   0.689
 1517TIP3    H2 4495   4.019   5.744   0.594
 1518TIP3   OH2 4496   3.468   5.367   0.336
 1518TIP3    H1 4497   3.374   5.344   0.350
 1518TIP3    H2 4498   3.501   5.284   0.297
 1519TIP3   OH2 4499   2.609   5.587   0.109
 1519TIP3    H1 4500   2.604   5.664   0.048
 1519TIP3    H2 4501   2.516   5.564   0.113
 1520TIP3   OH2 4502   2.167   4.897  -0.201
 1520TIP3    H1 4503   2.212   4.981  -0.180
 1520TIP3    H2 4504   2.089   4.902  -0.142
 1521TIP3   OH2 4505   2.752   5.361   0.056
 1521TIP3    H1 4506   2.711   5.450   0.066
 1521TIP3    H2 4507   2.704   5.310   0.123
 1522TIP3   OH2 4508   2.869   5.936   0.563
 1522TIP3    H1 4509   2.909   6.010   0.512
 1522TIP3    H2 4510   2.947   5.902   0.610
 1523TIP3   OH2 4511   2.519   5.804  -0.028
 1523TIP3    H1 4512   2.426   5.821  -0.012
 1523TIP3    H2 4513   2.557   5.894  -0.028
 1524TIP3   OH2 4514   3.256   5.572   0.523
 1524TIP3    H1 4515   3.244   5.571   0.621
 1524TIP3    H2 4516   3.339   5.522   0.515
 1525TIP3   OH2 4517   3.503   6.095   0.578
 1525TIP3    H1 4518   3.426   6.035   0.571
 1525TIP3    H2 4519   3.486   6.160   0.507
 1526TIP3   OH2 4520   2.589   4.717   1.088
 1526TIP3    H1 4521   2.493   4.721   1.100
 1526TIP3    H2 4522   2.617   4.660   1.161
 1527TIP3   OH2 4523   2.306   5.799   0.721
 1527TIP3    H1 4524   2.361   5.728   0.757
 1527TIP3    H2 4525   2.334   5.874   0.775
 1528TIP3   OH2 4526   2.280   5.137  -0.115
 1528TIP3    H1 4527   2.212   5.189  -0.066
 1528TIP3    H2 4528   2.329   5.206  -0.162
 1529TIP3   OH2 4529   3.428   4.781   0.774
 1529TIP3    H1 4530   3.509   4.820   0.811
 1529TIP3    H2 4531   3.417   4.700   0.828
 1530TIP3   OH2 4532   3.294   4.546  -0.065
 1530TIP3    H1 4533   3.275   4.584  -0.152
 1530TIP3    H2 4534   3.352   4.615  -0.026
 1531TIP3   OH2 4535   2.984   4.706   0.031
 1531TIP3    H1 4536   3.054   4.765  -0.001
 1531TIP3    H2 4537   3.000   4.700   0.126
 1532TIP3   OH2 4538   3.264   5.025   0.851
 1532TIP3    H1 4539   3.291   5.075   0.931
 1532TIP3    H2 4540   3.321   4.946   0.855
 1533TIP3   OH2 4541   3.139   4.435   0.138
 1533TIP3    H1 4542   3.134   4.508   0.202
 1533TIP3    H2 4543   3.197   4.475   0.069
 1534TIP3   OH2 4544   2.645   4.441  -0.054
 1534TIP3    H1 4545   2.651   4.533  -0.023
 1534TIP3    H2 4546   2.740   4.417  -0.053
 1535TIP3   OH2 4547   3.906   4.928   0.829
 1535TIP3    H1 4548   3.807   4.927   0.835
 1535TIP3    H2 4549   3.917   4.890   0.741
 1536TIP3   OH2 4550   3.544   5.111   0.235
 1536TIP3    H1 4551   3.479   5.039   0.228
 1536TIP3    H2 4552   3.622   5.067   0.276
 1537TIP3   OH2 4553   2.235   4.635  -0.189
 1537TIP3    H1 4554   2.220   4.732  -0.195
 1537TIP3    H2 4555   2.153   4.602  -0.227
 1538TIP3   OH2 4556   3.534   6.071   0.185
 1538TIP3    H1 4557   3.489   6.079   0.098
 1538TIP3    H2 4558   3.626   6.062   0.160
 1539TIP3   OH2 4559   2.603   4.348   0.690
 1539TIP3    H1 4560   2.571   4.314   0.604
 1539TIP3    H2 4561   2.592   4.270   0.748
 1540TIP3   OH2 4562   2.113   5.559   0.055
 1540TIP3    H1 4563   2.080   5.604   0.133
 1540TIP3    H2 4564   2.178   5.622   0.020
 1541TIP3   OH2 4565   2.301   6.114   1.144
 1541TIP3    H1 4566   2.387   6.115   1.192
 1541TIP3    H2 4567   2.282   6.018   1.143
 1542TIP3   OH2 4568   2.777   6.071   1.189
 1542TIP3    H1 4569   2.872   6.053   1.196
 1542TIP3    H2 4570   2.753   6.010   1.116
 1543TIP3   OH2 4571   3.416   5.981   0.924
 1543TIP3    H1 4572   3.410   5.910   0.992
 1543TIP3    H2 4573   3.496   6.030   0.952
 1544TIP3   OH2 4574   2.429   5.517   1.344
 1544TIP3    H1 4575   2.445   5.421   1.351
 1544TIP3    H2 4576   2.341   5.519   1.300
 1545TIP3   OH2 4577   3.035   5.602   1.118
 1545TIP3    H1 4578   2.996   5.621   1.031
 1545TIP3    H2 4579   3.068   5.510   1.108
 1546TIP3   OH2 4580   3.524   5.612   0.724
 1546TIP3    H1 4581   3.603   5.654   0.683
 1546TIP3    H2 4582   3.458   5.682   0.710
 1547TIP3   OH2 4583   2.548   5.254   1.327
 1547TIP3    H1 4584   2.623   5.198   1.303
 1547TIP3    H2 4585   2.575   5.284   1.416
 1548TIP3   OH2 4586   2.607   5.062  -0.238
 1548TIP3    H1 4587   2.578   5.017  -0.158
 1548TIP3    H2 4588   2.692   5.019  -0.254
 1549TIP3   OH2 4589   2.883   5.134   0.988
 1549TIP3    H1 4590   2.806   5.194   0.990
 1549TIP3    H2 4591   2.933   5.168   0.910
 1550TIP3   OH2 4592   3.400   5.536   1.120
 1550TIP3    H1 4593   3.480   5.509   1.072
 1550TIP3    H2 4594   3.397   5.471   1.192
 1551TIP3   OH2 4595   3.007   4.924   1.113
 1551TIP3    H1 4596   3.008   4.845   1.056
 1551TIP3    H2 4597   2.963   4.991   1.056
 1552TIP3   OH2 4598   3.010   4.711   0.921
 1552TIP3    H1 4599   3.037   4.750   0.836
 1552TIP3    H2 4600   2.916   4.687   0.903
 1553TIP3   OH2 4601   3.034   5.245   0.794
 1553TIP3    H1 4602   3.119   5.258   0.751
 1553TIP3    H2 4603   2.978   5.311   0.749
 1554TIP3   OH2 4604   3.617   5.212   1.174
 1554TIP3    H1 4605   3.666   5.128   1.182
 1554TIP3    H2 4606   3.685   5.270   1.137
 1555TIP3   OH2 4607   3.652   5.463   0.911
 1555TIP3    H1 4608   3.597   5.520   0.852
 1555TIP3    H2 4609   3.741   5.483   0.873
 1556TIP3   OH2 4610   2.886   5.031   1.346
 1556TIP3    H1 4611   2.817   4.963   1.361
 1556TIP3    H2 4612   2.919   5.005   1.258
 1557TIP3   OH2 4613   3.141   4.473   0.991
 1557TIP3    H1 4614   3.092   4.555   0.968
 1557TIP3    H2 4615   3.072   4.404   0.979
 1558TIP3   OH2 4616   3.267   4.975   1.206
 1558TIP3    H1 4617   3.252   4.961   1.301
 1558TIP3    H2 4618   3.178   4.952   1.172
 1559TIP3   OH2 4619   3.506   4.927   1.061
 1559TIP3    H1 4620   3.431   4.927   1.123
 1559TIP3    H2 4621   3.580   4.896   1.118
 1560TIP3   OH2 4622   3.737   4.869   1.212
 1560TIP3    H1 4623   3.749   4.773   1.228
 1560TIP3    H2 4624   3.732   4.905   1.303
 1561TIP3   OH2 4625   2.724   4.811   1.400
 1561TIP3    H1 4626   2.728   4.720   1.367
 1561TIP3    H2 4627   2.761   4.800   1.490
 1562TIP3   OH2 4628   3.235   4.482   1.249
 1562TIP3    H1 4629   3.301   4.411   1.242
 1562TIP3    H2 4630   3.195   4.477   1.159
 1563TIP3   OH2 4631   3.301   4.697   1.406
 1563TIP3    H1 4632   3.279   4.626   1.342
 1563TIP3    H2 4633   3.223   4.755   1.400
 1564TIP3   OH2 4634   2.013   5.306  -0.266
 1564TIP3    H1 4635   2.075   5.308  -0.339
 1564TIP3    H2 4636   1.958   5.229  -0.287
 1565TIP3   OH2 4637   1.923   5.901   0.129
 1565TIP3    H1 4638   1.835   5.929   0.159
 1565TIP3    H2 4639   1.958   5.852   0.206
 1566TIP3   OH2 4640   2.067   5.762   0.320
 1566TIP3    H1 4641   2.050   5.694   0.388
 1566TIP3    H2 4642   2.113   5.827   0.377
 1567TIP3   OH2 4643   3.807   6.197   0.409
 1567TIP3    H1 4644   3.774   6.105   0.403
 1567TIP3    H2 4645   3.887   6.182   0.462
 1568TIP3   OH2 4646   3.856   5.863   0.983
 1568TIP3    H1 4647   3.784   5.878   1.047
 1568TIP3    H2 4648   3.897   5.952   0.977
 1569TIP3   OH2 4649   3.854   5.633   0.232
 1569TIP3    H1 4650   3.899   5.569   0.175
 1569TIP3    H2 4651   3.815   5.695   0.170
 1570TIP3   OH2 4652   3.686   5.941   0.426
 1570TIP3    H1 4653   3.622   5.982   0.487
 1570TIP3    H2 4654   3.628   5.888   0.368
 1571TIP3   OH2 4655   3.611   5.091  -0.037
 1571TIP3    H1 4656   3.624   4.995  -0.048
 1571TIP3    H2 4657   3.603   5.101   0.060
 1572TIP3   OH2 4658   2.238   5.182   0.694
 1572TIP3    H1 4659   2.236   5.146   0.602
 1572TIP3    H2 4660   2.335   5.182   0.711
 1573TIP3   OH2 4661   3.896   5.521   0.806
 1573TIP3    H1 4662   3.970   5.459   0.794
 1573TIP3    H2 4663   3.925   5.597   0.752
 1574TIP3   OH2 4664   4.085   5.330   0.813
 1574TIP3    H1 4665   4.012   5.281   0.857
 1574TIP3    H2 4666   4.160   5.268   0.830
 1575TIP3   OH2 4667   3.611   4.817  -0.162
 1575TIP3    H1 4668   3.650   4.727  -0.145
 1575TIP3    H2 4669   3.681   4.855  -0.217
 1576TIP3   OH2 4670   3.761   4.989   0.345
 1576TIP3    H1 4671   3.846   5.018   0.305
 1576TIP3    H2 4672   3.776   5.024   0.435
 1577TIP3   OH2 4673   3.840   5.139   0.572
 1577TIP3    H1 4674   3.763   5.175   0.619
 1577TIP3    H2 4675   3.873   5.218   0.525
 1578TIP3   OH2 4676   2.458   4.865   1.370
 1578TIP3    H1 4677   2.555   4.859   1.373
 1578TIP3    H2 4678   2.433   4.779   1.408
 1579TIP3   OH2 4679   4.294   4.733   1.124
 1579TIP3    H1 4680   4.352   4.668   1.081
 1579TIP3    H2 4681   4.262   4.786   1.048
 1580TIP3   OH2 4682   3.702   4.571  -0.110
 1580TIP3    H1 4683   3.761   4.548  -0.036
 1580TIP3    H2 4684   3.649   4.488  -0.117
 1581TIP3   OH2 4685   2.419   4.557   0.699
 1581TIP3    H1 4686   2.480   4.482   0.708
 1581TIP3    H2 4687   2.481   4.632   0.692
 1582TIP3   OH2 4688   2.219   4.830   0.771
 1582TIP3    H1 4689   2.269   4.825   0.687
 1582TIP3    H2 4690   2.252   4.913   0.807
 1583TIP3   OH2 4691   4.160   4.867   0.930
 1583TIP3    H1 4692   4.075   4.910   0.949
 1583TIP3    H2 4693   4.129   4.796   0.871
 1584TIP3   OH2 4694   2.205   4.335   0.272
 1584TIP3    H1 4695   2.113   4.328   0.302
 1584TIP3    H2 4696   2.198   4.392   0.193
 1585TIP3   OH2 4697   2.425   4.413   1.087
 1585TIP3    H1 4698   2.374   4.409   1.170
 1585TIP3    H2 4699   2.358   4.452   1.027
 1586TIP3   OH2 4700   2.463   5.845   1.162
 1586TIP3    H1 4701   2.371   5.818   1.147
 1586TIP3    H2 4702   2.476   5.823   1.256
 1587TIP3   OH2 4703   2.643   5.876   0.712
 1587TIP3    H1 4704   2.597   5.954   0.673
 1587TIP3    H2 4705   2.730   5.888   0.667
 1588TIP3   OH2 4706   3.086   6.120   0.849
 1588TIP3    H1 4707   3.128   6.119   0.937
 1588TIP3    H2 4708   3.153   6.170   0.797
 1589TIP3   OH2 4709   3.269   6.269   0.708
 1589TIP3    H1 4710   3.343   6.217   0.674
 1589TIP3    H2 4711   3.317   6.329   0.769
 1590TIP3   OH2 4712   4.060   4.632   0.808
 1590TIP3    H1 4713   3.970   4.625   0.773
 1590TIP3    H2 4714   4.092   4.539   0.796
 1591TIP3   OH2 4715   2.316   6.129   0.737
 1591TIP3    H1 4716   2.227   6.164   0.715
 1591TIP3    H2 4717   2.333   6.174   0.820
 1592TIP3   OH2 4718   2.555   6.111   0.595
 1592TIP3    H1 4719   2.467   6.123   0.638
 1592TIP3    H2 4720   2.537   6.144   0.505
 1593TIP3   OH2 4721   2.979   6.137   0.403
 1593TIP3    H1 4722   2.924   6.151   0.323
 1593TIP3    H2 4723   2.987   6.228   0.438
 1594TIP3   OH2 4724   3.245   6.071   0.435
 1594TIP3    H1 4725   3.151   6.094   0.426
 1594TIP3    H2 4726   3.288   6.155   0.410
 1595TIP3   OH2 4727   3.455   6.263   0.372
 1595TIP3    H1 4728   3.435   6.344   0.320
 1595TIP3    H2 4729   3.485   6.201   0.302
 1596TIP3   OH2 4730   2.231   5.922   0.478
 1596TIP3    H1 4731   2.256   5.896   0.570
 1596TIP3    H2 4732   2.307   5.881   0.430
 1597TIP3   OH2 4733   2.427   5.798   0.337
 1597TIP3    H1 4734   2.443   5.714   0.386
 1597TIP3    H2 4735   2.518   5.835   0.335
 1598TIP3   OH2 4736   2.689   5.890   0.346
 1598TIP3    H1 4737   2.722   5.800   0.331
 1598TIP3    H2 4738   2.739   5.913   0.427
 1599TIP3   OH2 4739   3.271   4.545   0.429
 1599TIP3    H1 4740   3.228   4.474   0.479
 1599TIP3    H2 4741   3.345   4.499   0.386
 1600TIP3   OH2 4742   3.783   4.433   0.345
 1600TIP3    H1 4743   3.820   4.479   0.266
 1600TIP3    H2 4744   3.688   4.448   0.334
 1601TIP3   OH2 4745   3.878   4.513   0.101
 1601TIP3    H1 4746   3.949   4.462   0.058
 1601TIP3    H2 4747   3.913   4.604   0.084
 1602TIP3   OH2 4748   2.514   4.255   0.443
 1602TIP3    H1 4749   2.422   4.221   0.446
 1602TIP3    H2 4750   2.563   4.170   0.439
 1603TIP3   OH2 4751   2.284   4.123   0.091
 1603TIP3    H1 4752   2.333   4.174   0.022
 1603TIP3    H2 4753   2.268   4.191   0.158
 1604TIP3   OH2 4754   2.959   4.287   0.325
 1604TIP3    H1 4755   3.012   4.339   0.263
 1604TIP3    H2 4756   2.982   4.327   0.410
 1605TIP3   OH2 4757   3.503   4.434   0.306
 1605TIP3    H1 4758   3.506   4.399   0.216
 1605TIP3    H2 4759   3.490   4.352   0.360
 1606TIP3   OH2 4760   3.534   4.359  -0.089
 1606TIP3    H1 4761   3.445   4.390  -0.110
 1606TIP3    H2 4762   3.518   4.268  -0.057
 1607TIP3   OH2 4763   2.427   4.268  -0.095
 1607TIP3    H1 4764   2.448   4.239  -0.185
 1607TIP3    H2 4765   2.498   4.332  -0.078
 1608TIP3   OH2 4766   2.922   4.449  -0.043
 1608TIP3    H1 4767   2.989   4.411   0.016
 1608TIP3    H2 4768   2.935   4.544  -0.023
 1609TIP3   OH2 4769   2.722   4.536   1.335
 1609TIP3    H1 4770   2.687   4.465   1.392
 1609TIP3    H2 4771   2.816   4.536   1.363
 1610TIP3   OH2 4772   2.972   4.534   1.454
 1610TIP3    H1 4773   3.057   4.508   1.415
 1610TIP3    H2 4774   2.958   4.464   1.521
 1611TIP3   OH2 4775   3.798   4.597   1.241
 1611TIP3    H1 4776   3.817   4.567   1.332
 1611TIP3    H2 4777   3.887   4.592   1.200
 1612TIP3   OH2 4778   3.710   6.150   0.754
 1612TIP3    H1 4779   3.643   6.119   0.691
 1612TIP3    H2 4780   3.707   6.247   0.741
 1613TIP3   OH2 4781   4.316   5.416   0.239
 1613TIP3    H1 4782   4.341   5.351   0.308
 1613TIP3    H2 4783   4.352   5.498   0.276
 1614TIP3   OH2 4784   4.189   5.052   0.098
 1614TIP3    H1 4785   4.287   5.046   0.097
 1614TIP3    H2 4786   4.172   5.114   0.024
 1615TIP3   OH2 4787   4.547   4.891   0.374
 1615TIP3    H1 4788   4.496   4.924   0.297
 1615TIP3    H2 4789   4.486   4.913   0.447
 1616TIP3   OH2 4790   4.453   4.982   0.134
 1616TIP3    H1 4791   4.500   5.067   0.135
 1616TIP3    H2 4792   4.483   4.944   0.050
 1617TIP3   OH2 4793   4.491   5.838   0.293
 1617TIP3    H1 4794   4.472   5.912   0.231
 1617TIP3    H2 4795   4.406   5.835   0.342
 1618TIP3   OH2 4796   4.893   4.594   0.131
 1618TIP3    H1 4797   4.859   4.508   0.162
 1618TIP3    H2 4798   4.815   4.650   0.152
 1619TIP3   OH2 4799   4.649   5.945   0.489
 1619TIP3    H1 4800   4.596   6.027   0.499
 1619TIP3    H2 4801   4.596   5.900   0.420
 1620TIP3   OH2 4802   4.432   5.540   0.494
 1620TIP3    H1 4803   4.440   5.629   0.535
 1620TIP3    H2 4804   4.341   5.518   0.521
 1621TIP3   OH2 4805   4.463   6.151   0.495
 1621TIP3    H1 4806   4.420   6.160   0.410
 1621TIP3    H2 4807   4.384   6.150   0.555
 1622TIP3   OH2 4808   4.056   5.677   0.430
 1622TIP3    H1 4809   3.986   5.651   0.367
 1622TIP3    H2 4810   4.092   5.592   0.462
 1623TIP3   OH2 4811   5.623   5.468   0.441
 1623TIP3    H1 4812   5.675   5.498   0.365
 1623TIP3    H2 4813   5.604   5.375   0.419
 1624TIP3   OH2 4814   4.256   5.859   0.423
 1624TIP3    H1 4815   4.294   5.867   0.513
 1624TIP3    H2 4816   4.184   5.794   0.437
 1625TIP3   OH2 4817   4.656   4.695   0.217
 1625TIP3    H1 4818   4.567   4.664   0.190
 1625TIP3    H2 4819   4.630   4.774   0.268
 1626TIP3   OH2 4820   5.199   4.801   0.396
 1626TIP3    H1 4821   5.268   4.781   0.463
 1626TIP3    H2 4822   5.116   4.782   0.445
 1627TIP3   OH2 4823   5.463   5.246   0.345
 1627TIP3    H1 4824   5.402   5.220   0.417
 1627TIP3    H2 4825   5.403   5.247   0.268
 1628TIP3   OH2 4826   4.607   5.221   0.214
 1628TIP3    H1 4827   4.554   5.230   0.295
 1628TIP3    H2 4828   4.546   5.255   0.146
 1629TIP3   OH2 4829   5.143   5.450   0.553
 1629TIP3    H1 4830   5.121   5.373   0.610
 1629TIP3    H2 4831   5.239   5.457   0.569
 1630TIP3   OH2 4832   4.413   5.227   0.424
 1630TIP3    H1 4833   4.452   5.286   0.491
 1630TIP3    H2 4834   4.399   5.145   0.476
 1631TIP3   OH2 4835   4.009   4.737   0.029
 1631TIP3    H1 4836   4.078   4.766   0.091
 1631TIP3    H2 4837   4.023   4.797  -0.047
 1632TIP3   OH2 4838   4.423   5.778   0.643
 1632TIP3    H1 4839   4.502   5.819   0.682
 1632TIP3    H2 4840   4.359   5.790   0.716
 1633TIP3   OH2 4841   4.861   5.095   0.205
 1633TIP3    H1 4842   4.780   5.147   0.191
 1633TIP3    H2 4843   4.927   5.164   0.224
 1634TIP3   OH2 4844   4.998   5.826   0.331
 1634TIP3    H1 4845   5.011   5.820   0.427
 1634TIP3    H2 4846   4.916   5.878   0.325
 1635TIP3   OH2 4847   4.177   5.465   0.568
 1635TIP3    H1 4848   4.196   5.455   0.663
 1635TIP3    H2 4849   4.105   5.401   0.556
 1636TIP3   OH2 4850   4.903   5.578   0.596
 1636TIP3    H1 4851   4.845   5.532   0.535
 1636TIP3    H2 4852   4.991   5.542   0.570
 1637TIP3   OH2 4853   4.381   4.976   0.578
 1637TIP3    H1 4854   4.285   4.979   0.589
 1637TIP3    H2 4855   4.408   4.917   0.651
 1638TIP3   OH2 4856   4.093   6.040   0.292
 1638TIP3    H1 4857   4.138   5.955   0.305
 1638TIP3    H2 4858   4.117   6.081   0.376
 1639TIP3   OH2 4859   5.202   5.060   0.295
 1639TIP3    H1 4860   5.290   5.060   0.257
 1639TIP3    H2 4861   5.195   4.969   0.329
 1640TIP3   OH2 4862   5.042   5.288   0.333
 1640TIP3    H1 4863   5.090   5.336   0.403
 1640TIP3    H2 4864   5.101   5.210   0.321
 1641TIP3   OH2 4865   4.400   4.610   0.201
 1641TIP3    H1 4866   4.364   4.579   0.115
 1641TIP3    H2 4867   4.390   4.529   0.255
 1642TIP3   OH2 4868   4.589   6.327   0.669
 1642TIP3    H1 4869   4.679   6.290   0.666
 1642TIP3    H2 4870   4.545   6.272   0.602
 1643TIP3   OH2 4871   4.226   5.766   0.838
 1643TIP3    H1 4872   4.238   5.670   0.831
 1643TIP3    H2 4873   4.141   5.778   0.791
 1644TIP3   OH2 4874   4.867   5.856   0.611
 1644TIP3    H1 4875   4.789   5.877   0.553
 1644TIP3    H2 4876   4.873   5.759   0.605
 1645TIP3   OH2 4877   4.345   5.498   0.816
 1645TIP3    H1 4878   4.428   5.455   0.792
 1645TIP3    H2 4879   4.369   5.541   0.900
 1646TIP3   OH2 4880   4.654   5.381   0.492
 1646TIP3    H1 4881   4.582   5.447   0.497
 1646TIP3    H2 4882   4.709   5.421   0.421
 1647TIP3   OH2 4883   5.195   5.795   0.607
 1647TIP3    H1 4884   5.291   5.794   0.599
 1647TIP3    H2 4885   5.180   5.726   0.674
 1648TIP3   OH2 4886   4.804   5.178   0.604
 1648TIP3    H1 4887   4.806   5.097   0.549
 1648TIP3    H2 4888   4.753   5.240   0.548
 1649TIP3   OH2 4889   4.804   4.956   0.432
 1649TIP3    H1 4890   4.832   4.999   0.348
 1649TIP3    H2 4891   4.710   4.935   0.412
 1650TIP3   OH2 4892   4.822   5.509   0.324
 1650TIP3    H1 4893   4.911   5.471   0.315
 1650TIP3    H2 4894   4.827   5.582   0.260
 1651TIP3   OH2 4895   5.425   5.468   0.662
 1651TIP3    H1 4896   5.441   5.372   0.660
 1651TIP3    H2 4897   5.504   5.499   0.615
 1652TIP3   OH2 4898   4.683   5.287   0.836
 1652TIP3    H1 4899   4.614   5.219   0.848
 1652TIP3    H2 4900   4.715   5.266   0.746
 1653TIP3   OH2 4901   4.941   4.723   0.479
 1653TIP3    H1 4902   4.891   4.807   0.462
 1653TIP3    H2 4903   4.870   4.657   0.466
 1654TIP3   OH2 4904   5.061   5.232   0.694
 1654TIP3    H1 4905   5.040   5.219   0.788
 1654TIP3    H2 4906   4.973   5.209   0.655
 1655TIP3   OH2 4907   5.310   5.198   0.565
 1655TIP3    H1 4908   5.226   5.185   0.614
 1655TIP3    H2 4909   5.376   5.151   0.619
 1656TIP3   OH2 4910   5.540   5.123   0.703
 1656TIP3    H1 4911   5.551   5.027   0.719
 1656TIP3    H2 4912   5.534   5.160   0.794
 1657TIP3   OH2 4913   4.519   5.068   0.887
 1657TIP3    H1 4914   4.525   4.977   0.852
 1657TIP3    H2 4915   4.556   5.055   0.977
 1658TIP3   OH2 4916   5.030   4.737   0.738
 1658TIP3    H1 4917   5.097   4.666   0.730
 1658TIP3    H2 4918   4.991   4.733   0.648
 1659TIP3   OH2 4919   5.097   4.953   0.894
 1659TIP3    H1 4920   5.075   4.882   0.829
 1659TIP3    H2 4921   5.020   5.013   0.886
 1660TIP3   OH2 4922   4.045   5.423   0.180
 1660TIP3    H1 4923   4.052   5.420   0.084
 1660TIP3    H2 4924   4.140   5.431   0.203
 1661TIP3   OH2 4925   4.252   5.118   0.854
 1661TIP3    H1 4926   4.349   5.114   0.857
 1661TIP3    H2 4927   4.229   5.032   0.895
 1662TIP3   OH2 4928   6.105   4.986   0.623
 1662TIP3    H1 4929   6.151   4.913   0.576
 1662TIP3    H2 4930   6.086   5.046   0.548
 1663TIP3   OH2 4931   4.199   4.798   0.229
 1663TIP3    H1 4932   4.276   4.738   0.224
 1663TIP3    H2 4933   4.233   4.878   0.186
 1664TIP3   OH2 4934   4.000   5.095   0.283
 1664TIP3    H1 4935   4.065   5.069   0.214
 1664TIP3    H2 4936   4.035   5.181   0.310
 1665TIP3   OH2 4937   5.910   5.117   0.479
 1665TIP3    H1 4938   5.817   5.126   0.457
 1665TIP3    H2 4939   5.958   5.115   0.395
 1666TIP3   OH2 4940   4.220   4.666   0.573
 1666TIP3    H1 4941   4.169   4.667   0.656
 1666TIP3    H2 4942   4.157   4.709   0.512
 1667TIP3   OH2 4943   5.816   4.868   0.316
 1667TIP3    H1 4944   5.738   4.833   0.270
 1667TIP3    H2 4945   5.879   4.794   0.309
 1668TIP3   OH2 4946   4.094   6.404   0.341
 1668TIP3    H1 4947   4.028   6.444   0.282
 1668TIP3    H2 4948   4.082   6.310   0.322
 1669TIP3   OH2 4949   4.300   4.498  -0.020
 1669TIP3    H1 4950   4.207   4.470  -0.030
 1669TIP3    H2 4951   4.348   4.419  -0.052
 1670TIP3   OH2 4952   4.518   4.791   0.821
 1670TIP3    H1 4953   4.484   4.721   0.880
 1670TIP3    H2 4954   4.612   4.793   0.848
 1671TIP3   OH2 4955   4.767   4.791   0.941
 1671TIP3    H1 4956   4.852   4.767   0.900
 1671TIP3    H2 4957   4.756   4.719   1.006
 1672TIP3   OH2 4958   5.599   4.853   0.730
 1672TIP3    H1 4959   5.616   4.824   0.822
 1672TIP3    H2 4960   5.689   4.848   0.691
 1673TIP3   OH2 4961   0.389   6.052   1.800
 1673TIP3    H1 4962   0.417   5.964   1.766
 1673TIP3    H2 4963   0.293   6.042   1.809
 1674TIP3   OH2 4964   1.849   6.361   0.588
 1674TIP3    H1 4965   1.886   6.446   0.621
 1674TIP3    H2 4966   1.858   6.372   0.491
 1675TIP3   OH2 4967   1.934   6.576   0.748
 1675TIP3    H1 4968   1.869   6.634   0.705
 1675TIP3    H2 4969   1.940   6.613   0.838
 1676TIP3   OH2 4970   1.668   6.258   0.767
 1676TIP3    H1 4971   1.588   6.311   0.762
 1676TIP3    H2 4972   1.723   6.293   0.693
 1677TIP3   OH2 4973   1.714   6.754   1.065
 1677TIP3    H1 4974   1.628   6.763   1.022
 1677TIP3    H2 4975   1.730   6.658   1.056
 1678TIP3   OH2 4976   1.245   6.088   1.083
 1678TIP3    H1 4977   1.317   6.058   1.144
 1678TIP3    H2 4978   1.164   6.066   1.135
 1679TIP3   OH2 4979   1.490   6.542   0.982
 1679TIP3    H1 4980   1.447   6.512   1.065
 1679TIP3    H2 4981   1.431   6.616   0.961
 1680TIP3   OH2 4982   1.188   6.782   1.244
 1680TIP3    H1 4983   1.159   6.690   1.266
 1680TIP3    H2 4984   1.279   6.780   1.279
 1681TIP3   OH2 4985   1.349   6.284   0.928
 1681TIP3    H1 4986   1.395   6.329   1.000
 1681TIP3    H2 4987   1.310   6.208   0.976
 1682TIP3   OH2 4988   1.754   6.492   0.977
 1682TIP3    H1 4989   1.655   6.495   0.978
 1682TIP3    H2 4990   1.770   6.442   0.896
 1683TIP3   OH2 4991   1.236   7.109   1.331
 1683TIP3    H1 4992   1.301   7.107   1.260
 1683TIP3    H2 4993   1.261   7.033   1.386
 1684TIP3   OH2 4994   1.462   6.768   1.319
 1684TIP3    H1 4995   1.514   6.688   1.339
 1684TIP3    H2 4996   1.532   6.831   1.295
 1685TIP3   OH2 4997   1.515   7.019   1.058
 1685TIP3    H1 4998   1.451   7.084   1.024
 1685TIP3    H2 4999   1.593   7.045   1.006
 1686TIP3   OH2 5000   0.987   6.017   1.151
 1686TIP3    H1 5001   0.956   6.063   1.070
 1686TIP3    H2 5002   0.941   5.932   1.142
 1687TIP3   OH2 5003   1.105   6.545   1.361
 1687TIP3    H1 5004   1.134   6.548   1.453
 1687TIP3    H2 5005   1.041   6.473   1.367
 1688TIP3   OH2 5006   1.355   6.472   1.203
 1688TIP3    H1 5007   1.278   6.477   1.262
 1688TIP3    H2 5008   1.428   6.448   1.265
 1689TIP3   OH2 5009   1.575   6.423   1.359
 1689TIP3    H1 5010   1.590   6.328   1.378
 1689TIP3    H2 5011   1.570   6.462   1.449
 1690TIP3   OH2 5012   1.086   6.042   1.407
 1690TIP3    H1 5013   1.148   5.967   1.400
 1690TIP3    H2 5014   1.037   6.031   1.323
 1691TIP3   OH2 5015   1.146   6.262   1.552
 1691TIP3    H1 5016   1.129   6.181   1.498
 1691TIP3    H2 5017   1.059   6.305   1.552
 1692TIP3   OH2 5018   1.706   7.445   1.134
 1692TIP3    H1 5019   1.632   7.437   1.199
 1692TIP3    H2 5020   1.739   7.534   1.156
 1693TIP3   OH2 5021   1.774   7.104   0.937
 1693TIP3    H1 5022   1.831   7.025   0.954
 1693TIP3    H2 5023   1.794   7.118   0.844
 1694TIP3   OH2 5024   1.929   6.890   0.981
 1694TIP3    H1 5025   1.855   6.836   1.017
 1694TIP3    H2 5026   2.002   6.826   0.990
 1695TIP3   OH2 5027   2.131   6.288   1.274
 1695TIP3    H1 5028   2.192   6.223   1.233
 1695TIP3    H2 5029   2.105   6.342   1.197
 1696TIP3   OH2 5030   2.005   6.426   1.078
 1696TIP3    H1 5031   1.919   6.468   1.098
 1696TIP3    H2 5032   1.975   6.352   1.021
 1697TIP3   OH2 5033   1.903   6.188   0.959
 1697TIP3    H1 5034   1.813   6.176   0.924
 1697TIP3    H2 5035   1.939   6.096   0.950
 1698TIP3   OH2 5036   1.674   5.982   0.484
 1698TIP3    H1 5037   1.710   6.060   0.440
 1698TIP3    H2 5038   1.581   5.986   0.460
 1699TIP3   OH2 5039   6.936   2.848   8.071
 1699TIP3    H1 5040   6.967   2.813   8.156
 1699TIP3    H2 5041   7.021   2.868   8.025
 1700TIP3   OH2 5042   0.817   6.075   1.622
 1700TIP3    H1 5043   0.901   6.031   1.599
 1700TIP3    H2 5044   0.780   6.011   1.685
 1701TIP3   OH2 5045   1.640   6.156   1.392
 1701TIP3    H1 5046   1.657   6.123   1.483
 1701TIP3    H2 5047   1.729   6.149   1.351
 1702TIP3   OH2 5048   2.163   6.986   0.435
 1702TIP3    H1 5049   2.191   6.909   0.488
 1702TIP3    H2 5050   2.245   7.010   0.389
 1703TIP3   OH2 5051   2.410   6.482   0.080
 1703TIP3    H1 5052   2.343   6.525   0.024
 1703TIP3    H2 5053   2.389   6.388   0.061
 1704TIP3   OH2 5054   3.716   6.830   0.252
 1704TIP3    H1 5055   3.677   6.915   0.224
 1704TIP3    H2 5056   3.775   6.858   0.323
 1705TIP3   OH2 5057   2.390   6.442   0.519
 1705TIP3    H1 5058   2.338   6.481   0.445
 1705TIP3    H2 5059   2.333   6.464   0.595
 1706TIP3   OH2 5060   2.537   7.233   0.293
 1706TIP3    H1 5061   2.444   7.256   0.316
 1706TIP3    H2 5062   2.565   7.312   0.246
 1707TIP3   OH2 5063   2.264   6.546   0.305
 1707TIP3    H1 5064   2.295   6.638   0.318
 1707TIP3    H2 5065   2.314   6.524   0.224
 1708TIP3   OH2 5066   3.411   6.491   0.232
 1708TIP3    H1 5067   3.314   6.497   0.220
 1708TIP3    H2 5068   3.437   6.579   0.198
 1709TIP3   OH2 5069   2.745   6.174   0.225
 1709TIP3    H1 5070   2.739   6.078   0.242
 1709TIP3    H2 5071   2.667   6.206   0.275
 1710TIP3   OH2 5072   3.262   7.071   0.380
 1710TIP3    H1 5073   3.242   7.134   0.452
 1710TIP3    H2 5074   3.172   7.055   0.344
 1711TIP3   OH2 5075   2.424   6.982   0.234
 1711TIP3    H1 5076   2.422   6.964   0.138
 1711TIP3    H2 5077   2.477   7.064   0.237
 1712TIP3   OH2 5078   2.547   7.436   0.549
 1712TIP3    H1 5079   2.511   7.526   0.564
 1712TIP3    H2 5080   2.486   7.401   0.483
 1713TIP3   OH2 5081   2.296   7.104   0.666
 1713TIP3    H1 5082   2.294   7.191   0.711
 1713TIP3    H2 5083   2.202   7.087   0.651
 1714TIP3   OH2 5084   3.498   7.007   0.529
 1714TIP3    H1 5085   3.422   7.018   0.468
 1714TIP3    H2 5086   3.511   6.911   0.529
 1715TIP3   OH2 5087   2.082   7.423   0.614
 1715TIP3    H1 5088   2.162   7.403   0.666
 1715TIP3    H2 5089   2.036   7.339   0.613
 1716TIP3   OH2 5090   2.507   6.243   0.356
 1716TIP3    H1 5091   2.418   6.212   0.329
 1716TIP3    H2 5092   2.482   6.325   0.404
 1717TIP3   OH2 5093   3.040   6.363   0.552
 1717TIP3    H1 5094   3.110   6.332   0.613
 1717TIP3    H2 5095   2.957   6.339   0.599
 1718TIP3   OH2 5096   3.275   6.789   0.465
 1718TIP3    H1 5097   3.227   6.790   0.551
 1718TIP3    H2 5098   3.250   6.874   0.426
 1719TIP3   OH2 5099   2.436   6.757   0.382
 1719TIP3    H1 5100   2.384   6.781   0.461
 1719TIP3    H2 5101   2.429   6.838   0.327
 1720TIP3   OH2 5102   2.989   7.005   0.700
 1720TIP3    H1 5103   2.966   6.933   0.761
 1720TIP3    H2 5104   3.084   7.018   0.722
 1721TIP3   OH2 5105   2.264   6.783   0.604
 1721TIP3    H1 5106   2.320   6.828   0.670
 1721TIP3    H2 5107   2.251   6.695   0.645
 1722TIP3   OH2 5108   3.008   7.003   0.310
 1722TIP3    H1 5109   2.989   6.989   0.216
 1722TIP3    H2 5110   2.959   6.931   0.354
 1723TIP3   OH2 5111   2.665   6.471  -0.025
 1723TIP3    H1 5112   2.580   6.496   0.018
 1723TIP3    H2 5113   2.725   6.465   0.051
 1724TIP3   OH2 5114   3.139   6.508   0.195
 1724TIP3    H1 5115   3.102   6.563   0.267
 1724TIP3    H2 5116   3.060   6.461   0.164
 1725TIP3   OH2 5117   2.274   7.348   0.797
 1725TIP3    H1 5118   2.354   7.371   0.849
 1725TIP3    H2 5119   2.208   7.337   0.868
 1726TIP3   OH2 5120   2.831   6.766   0.124
 1726TIP3    H1 5121   2.785   6.709   0.061
 1726TIP3    H2 5122   2.798   6.732   0.209
 1727TIP3   OH2 5123   2.312   6.250  -0.036
 1727TIP3    H1 5124   2.283   6.161  -0.009
 1727TIP3    H2 5125   2.388   6.235  -0.095
 1728TIP3   OH2 5126   2.701   6.686   0.353
 1728TIP3    H1 5127   2.609   6.719   0.360
 1728TIP3    H2 5128   2.752   6.749   0.409
 1729TIP3   OH2 5129   2.864   7.442   0.433
 1729TIP3    H1 5130   2.883   7.370   0.494
 1729TIP3    H2 5131   2.778   7.472   0.464
 1730TIP3   OH2 5132   2.001   7.054   0.742
 1730TIP3    H1 5133   2.044   7.030   0.826
 1730TIP3    H2 5134   1.986   6.968   0.702
 1731TIP3   OH2 5135   2.749   7.130   0.744
 1731TIP3    H1 5136   2.689   7.082   0.685
 1731TIP3    H2 5137   2.836   7.097   0.714
 1732TIP3   OH2 5138   2.229   6.528   0.731
 1732TIP3    H1 5139   2.132   6.528   0.741
 1732TIP3    H2 5140   2.256   6.469   0.803
 1733TIP3   OH2 5141   3.051   6.613   0.436
 1733TIP3    H1 5142   3.140   6.643   0.462
 1733TIP3    H2 5143   3.046   6.525   0.480
 1734TIP3   OH2 5144   2.889   6.832   0.491
 1734TIP3    H1 5145   2.926   6.883   0.565
 1734TIP3    H2 5146   2.949   6.753   0.489
 1735TIP3   OH2 5147   3.540   6.737   0.478
 1735TIP3    H1 5148   3.442   6.734   0.475
 1735TIP3    H2 5149   3.563   6.732   0.384
 1736TIP3   OH2 5150   2.246   6.158   0.327
 1736TIP3    H1 5151   2.215   6.121   0.242
 1736TIP3    H2 5152   2.235   6.082   0.388
 1737TIP3   OH2 5153   2.059   7.299   0.966
 1737TIP3    H1 5154   2.097   7.209   0.962
 1737TIP3    H2 5155   1.967   7.278   0.988
 1738TIP3   OH2 5156   2.684   7.394   0.778
 1738TIP3    H1 5157   2.641   7.403   0.690
 1738TIP3    H2 5158   2.722   7.304   0.771
 1739TIP3   OH2 5159   3.146   7.433   0.387
 1739TIP3    H1 5160   3.176   7.499   0.323
 1739TIP3    H2 5161   3.052   7.459   0.398
 1740TIP3   OH2 5162   2.191   7.059   0.964
 1740TIP3    H1 5163   2.270   7.010   0.937
 1740TIP3    H2 5164   2.216   7.090   1.053
 1741TIP3   OH2 5165   2.516   6.944   0.626
 1741TIP3    H1 5166   2.445   7.012   0.633
 1741TIP3    H2 5167   2.571   6.981   0.553
 1742TIP3   OH2 5168   3.044   7.344   0.756
 1742TIP3    H1 5169   3.119   7.314   0.703
 1742TIP3    H2 5170   3.043   7.278   0.828
 1743TIP3   OH2 5171   2.642   6.737   0.754
 1743TIP3    H1 5172   2.644   6.658   0.697
 1743TIP3    H2 5173   2.601   6.804   0.694
 1744TIP3   OH2 5174   2.645   6.521   0.569
 1744TIP3    H1 5175   2.672   6.564   0.485
 1744TIP3    H2 5176   2.552   6.496   0.550
 1745TIP3   OH2 5177   2.682   7.061   0.449
 1745TIP3    H1 5178   2.767   7.050   0.405
 1745TIP3    H2 5179   2.636   7.126   0.391
 1746TIP3   OH2 5180   3.256   7.026   0.813
 1746TIP3    H1 5181   3.303   6.942   0.815
 1746TIP3    H2 5182   3.324   7.085   0.777
 1747TIP3   OH2 5183   3.272   7.279   0.570
 1747TIP3    H1 5184   3.225   7.338   0.507
 1747TIP3    H2 5185   3.365   7.291   0.539
 1748TIP3   OH2 5186   2.520   6.847   0.983
 1748TIP3    H1 5187   2.454   6.776   0.998
 1748TIP3    H2 5188   2.556   6.822   0.896
 1749TIP3   OH2 5189   2.780   6.286   0.629
 1749TIP3    H1 5190   2.730   6.368   0.608
 1749TIP3    H2 5191   2.712   6.217   0.616
 1750TIP3   OH2 5192   2.903   6.790   0.842
 1750TIP3    H1 5193   2.889   6.775   0.937
 1750TIP3    H2 5194   2.814   6.766   0.809
 1751TIP3   OH2 5195   3.148   6.748   0.701
 1751TIP3    H1 5196   3.071   6.744   0.761
 1751TIP3    H2 5197   3.220   6.715   0.757
 1752TIP3   OH2 5198   3.373   6.682   0.850
 1752TIP3    H1 5199   3.387   6.586   0.865
 1752TIP3    H2 5200   3.371   6.718   0.942
 1753TIP3   OH2 5201   2.361   6.626   1.037
 1753TIP3    H1 5202   2.367   6.535   1.003
 1753TIP3    H2 5203   2.399   6.613   1.127
 1754TIP3   OH2 5204   2.871   6.296   0.887
 1754TIP3    H1 5205   2.939   6.226   0.881
 1754TIP3    H2 5206   2.833   6.291   0.797
 1755TIP3   OH2 5207   2.938   6.511   1.044
 1755TIP3    H1 5208   2.917   6.439   0.980
 1755TIP3    H2 5209   2.860   6.570   1.036
 1756TIP3   OH2 5210   3.513   7.707   0.582
 1756TIP3    H1 5211   3.441   7.685   0.646
 1756TIP3    H2 5212   3.563   7.773   0.631
 1757TIP3   OH2 5213   3.533   7.335   0.497
 1757TIP3    H1 5214   3.605   7.269   0.509
 1757TIP3    H2 5215   3.553   7.359   0.404
 1758TIP3   OH2 5216   3.725   7.146   0.536
 1758TIP3    H1 5217   3.645   7.089   0.526
 1758TIP3    H2 5218   3.793   7.087   0.498
 1759TIP3   OH2 5219   2.095   6.678   1.004
 1759TIP3    H1 5220   2.193   6.672   1.008
 1759TIP3    H2 5221   2.071   6.591   1.042
 1760TIP3   OH2 5222   3.931   6.540   0.762
 1760TIP3    H1 5223   3.994   6.476   0.726
 1760TIP3    H2 5224   3.911   6.595   0.684
 1761TIP3   OH2 5225   2.056   6.366   0.340
 1761TIP3    H1 5226   2.128   6.302   0.353
 1761TIP3    H2 5227   2.108   6.448   0.325
 1762TIP3   OH2 5228   3.796   6.685   0.569
 1762TIP3    H1 5229   3.707   6.722   0.583
 1762TIP3    H2 5230   3.773   6.609   0.512
 1763TIP3   OH2 5231   2.060   6.229   0.723
 1763TIP3    H1 5232   2.009   6.225   0.806
 1763TIP3    H2 5233   1.995   6.268   0.662
 1764TIP3   OH2 5234   3.697   6.443   0.449
 1764TIP3    H1 5235   3.603   6.427   0.428
 1764TIP3    H2 5236   3.733   6.352   0.441
 1765TIP3   OH2 5237   2.932   6.345   0.079
 1765TIP3    H1 5238   2.871   6.292   0.133
 1765TIP3    H2 5239   2.944   6.287   0.003
 1766TIP3   OH2 5240   2.149   6.047   0.085
 1766TIP3    H1 5241   2.061   6.005   0.090
 1766TIP3    H2 5242   2.205   5.967   0.080
 1767TIP3   OH2 5243   2.602   6.062   0.004
 1767TIP3    H1 5244   2.687   6.045  -0.042
 1767TIP3    H2 5245   2.633   6.122   0.074
 1768TIP3   OH2 5246   2.358   6.349   0.972
 1768TIP3    H1 5247   2.325   6.278   1.030
 1768TIP3    H2 5248   2.453   6.350   0.998
 1769TIP3   OH2 5249   2.608   6.349   1.090
 1769TIP3    H1 5250   2.693   6.325   1.050
 1769TIP3    H2 5251   2.597   6.278   1.157
 1770TIP3   OH2 5252   3.434   6.412   0.878
 1770TIP3    H1 5253   3.455   6.380   0.969
 1770TIP3    H2 5254   3.523   6.409   0.836
 1771TIP3   OH2 5255   3.856   7.552   0.497
 1771TIP3    H1 5256   3.892   7.463   0.476
 1771TIP3    H2 5257   3.801   7.570   0.420
 1772TIP3   OH2 5258   3.990   7.321   0.456
 1772TIP3    H1 5259   4.030   7.235   0.444
 1772TIP3    H2 5260   4.019   7.346   0.546
 1773TIP3   OH2 5261   4.322   7.098   0.455
 1773TIP3    H1 5262   4.256   7.034   0.491
 1773TIP3    H2 5263   4.370   7.038   0.394
 1774TIP3   OH2 5264   4.151   6.899   0.533
 1774TIP3    H1 5265   4.153   6.805   0.500
 1774TIP3    H2 5266   4.191   6.883   0.621
 1775TIP3   OH2 5267   4.733   6.765   0.523
 1775TIP3    H1 5268   4.700   6.703   0.456
 1775TIP3    H2 5269   4.658   6.827   0.532
 1776TIP3   OH2 5270   3.887   6.928   0.469
 1776TIP3    H1 5271   3.984   6.927   0.487
 1776TIP3    H2 5272   3.861   6.848   0.518
 1777TIP3   OH2 5273   3.825   6.504   0.209
 1777TIP3    H1 5274   3.787   6.480   0.296
 1777TIP3    H2 5275   3.798   6.596   0.203
 1778TIP3   OH2 5276   4.158   6.633   0.484
 1778TIP3    H1 5277   4.139   6.545   0.445
 1778TIP3    H2 5278   4.251   6.621   0.513
 1779TIP3   OH2 5279   4.412   6.610   0.587
 1779TIP3    H1 5280   4.496   6.573   0.556
 1779TIP3    H2 5281   4.397   6.554   0.666
 1780TIP3   OH2 5282   1.389   0.039   3.992
 1780TIP3    H1 5283   1.389  -0.006   4.076
 1780TIP3    H2 5284   1.418   0.129   4.015
 1781TIP3   OH2 5285   1.048   0.505   3.979
 1781TIP3    H1 5286   1.091   0.427   3.941
 1781TIP3    H2 5287   1.034   0.478   4.070
 1782TIP3   OH2 5288   1.992  -0.507   4.522
 1782TIP3    H1 5289   1.918  -0.447   4.502
 1782TIP3    H2 5290   2.056  -0.450   4.567
 1783TIP3   OH2 5291   1.459   0.299   4.136
 1783TIP3    H1 5292   1.365   0.296   4.165
 1783TIP3    H2 5293   1.460   0.385   4.090
 1784TIP3   OH2 5294   1.683   0.208   4.481
 1784TIP3    H1 5295   1.677   0.134   4.418
 1784TIP3    H2 5296   1.668   0.285   4.422
 1785TIP3   OH2 5297   1.879  -0.152   4.324
 1785TIP3    H1 5298   1.798  -0.097   4.327
 1785TIP3    H2 5299   1.911  -0.131   4.234
 1786TIP3   OH2 5300   1.206   0.315   4.232
 1786TIP3    H1 5301   1.196   0.396   4.285
 1786TIP3    H2 5302   1.197   0.244   4.298
 1787TIP3   OH2 5303   1.922   0.557   4.528
 1787TIP3    H1 5304   1.923   0.460   4.543
 1787TIP3    H2 5305   1.838   0.581   4.573
 1788TIP3   OH2 5306   1.056   0.369   4.626
 1788TIP3    H1 5307   1.044   0.454   4.673
 1788TIP3    H2 5308   0.982   0.316   4.663
 1789TIP3   OH2 5309   1.819  -0.326   4.802
 1789TIP3    H1 5310   1.734  -0.280   4.792
 1789TIP3    H2 5311   1.795  -0.418   4.785
 1790TIP3   OH2 5312   1.616   0.906   4.625
 1790TIP3    H1 5313   1.612   0.930   4.531
 1790TIP3    H2 5314   1.696   0.954   4.654
 1791TIP3   OH2 5315   1.646  -0.001   4.307
 1791TIP3    H1 5316   1.682   0.050   4.231
 1791TIP3    H2 5317   1.565  -0.041   4.268
 1792TIP3   OH2 5318   1.324   0.333   4.600
 1792TIP3    H1 5319   1.227   0.345   4.593
 1792TIP3    H2 5320   1.344   0.396   4.672
 1793TIP3   OH2 5321   1.936   0.272   4.565
 1793TIP3    H1 5322   1.838   0.261   4.560
 1793TIP3    H2 5323   1.960   0.242   4.474
 1794TIP3   OH2 5324   1.427  -0.151   4.216
 1794TIP3    H1 5325   1.336  -0.174   4.241
 1794TIP3    H2 5326   1.448  -0.217   4.149
 1795TIP3   OH2 5327   0.830   0.445   4.477
 1795TIP3    H1 5328   0.852   0.510   4.408
 1795TIP3    H2 5329   0.918   0.424   4.512
 1796TIP3   OH2 5330   1.247   0.099   4.410
 1796TIP3    H1 5331   1.223   0.107   4.503
 1796TIP3    H2 5332   1.343   0.100   4.416
 1797TIP3   OH2 5333   1.444   0.596   4.463
 1797TIP3    H1 5334   1.362   0.546   4.448
 1797TIP3    H2 5335   1.437   0.662   4.391
 1798TIP3   OH2 5336   1.470   0.564   4.058
 1798TIP3    H1 5337   1.425   0.615   3.987
 1798TIP3    H2 5338   1.563   0.586   4.037
 1799TIP3   OH2 5339   1.362   0.468   4.845
 1799TIP3    H1 5340   1.402   0.392   4.889
 1799TIP3    H2 5341   1.433   0.535   4.856
 1800TIP3   OH2 5342   1.471   0.105   4.623
 1800TIP3    H1 5343   1.554   0.135   4.582
 1800TIP3    H2 5344   1.420   0.189   4.620
 1801TIP3   OH2 5345   1.633  -0.064   4.787
 1801TIP3    H1 5346   1.577  -0.008   4.730
 1801TIP3    H2 5347   1.721  -0.038   4.753
 1802TIP3   OH2 5348   1.723   0.655   4.020
 1802TIP3    H1 5349   1.750   0.696   4.103
 1802TIP3    H2 5350   1.780   0.699   3.955
 1803TIP3   OH2 5351   1.749   0.681   4.304
 1803TIP3    H1 5352   1.708   0.592   4.294
 1803TIP3    H2 5353   1.826   0.657   4.356
 1804TIP3   OH2 5354   1.793   0.356   4.869
 1804TIP3    H1 5355   1.724   0.363   4.938
 1804TIP3    H2 5356   1.838   0.443   4.878
 1805TIP3   OH2 5357   1.797   0.129   4.124
 1805TIP3    H1 5358   1.850   0.064   4.075
 1805TIP3    H2 5359   1.798   0.206   4.063
 1806TIP3   OH2 5360   1.624   0.427   4.323
 1806TIP3    H1 5361   1.553   0.473   4.371
 1806TIP3    H2 5362   1.576   0.383   4.251
 1807TIP3   OH2 5363   1.865   0.026   4.685
 1807TIP3    H1 5364   1.934  -0.044   4.678
 1807TIP3    H2 5365   1.900   0.096   4.628
 1808TIP3   OH2 5366   2.030  -0.182   4.707
 1808TIP3    H1 5367   1.957  -0.235   4.746
 1808TIP3    H2 5368   2.105  -0.243   4.726
 1809TIP3   OH2 5369   1.706  -0.513   4.245
 1809TIP3    H1 5370   1.786  -0.488   4.195
 1809TIP3    H2 5371   1.725  -0.468   4.329
 1810TIP3   OH2 5372   1.762  -0.356   4.468
 1810TIP3    H1 5373   1.677  -0.317   4.495
 1810TIP3    H2 5374   1.805  -0.280   4.421
 1811TIP3   OH2 5375   1.284   0.541   3.671
 1811TIP3    H1 5376   1.325   0.492   3.598
 1811TIP3    H2 5377   1.358   0.581   3.718
 1812TIP3   OH2 5378   1.030   0.616   4.749
 1812TIP3    H1 5379   1.072   0.606   4.837
 1812TIP3    H2 5380   1.097   0.667   4.700
 1813TIP3   OH2 5381   1.213   0.758   4.606
 1813TIP3    H1 5382   1.283   0.713   4.556
 1813TIP3    H2 5383   1.266   0.817   4.664
 1814TIP3   OH2 5384   0.930   0.629   4.283
 1814TIP3    H1 5385   0.855   0.646   4.223
 1814TIP3    H2 5386   0.946   0.719   4.318
 1815TIP3   OH2 5387   1.195   0.569   4.339
 1815TIP3    H1 5388   1.100   0.586   4.322
 1815TIP3    H2 5389   1.236   0.643   4.292
 1816TIP3   OH2 5390   1.398   0.756   4.248
 1816TIP3    H1 5391   1.382   0.842   4.202
 1816TIP3    H2 5392   1.424   0.698   4.173
 1817TIP3   OH2 5393   1.673   0.636   4.626
 1817TIP3    H1 5394   1.596   0.607   4.573
 1817TIP3    H2 5395   1.656   0.732   4.630
 1818TIP3   OH2 5396   2.937   0.014   3.398
 1818TIP3    H1 5397   2.903   0.100   3.366
 1818TIP3    H2 5398   2.873  -0.045   3.354
 1819TIP3   OH2 5399   2.943   0.033   3.771
 1819TIP3    H1 5400   2.963   0.006   3.864
 1819TIP3    H2 5401   2.899  -0.047   3.739
 1820TIP3   OH2 5402   2.236  -0.100   4.139
 1820TIP3    H1 5403   2.266  -0.170   4.200
 1820TIP3    H2 5404   2.313  -0.042   4.141
 1821TIP3   OH2 5405   3.139   0.309   3.507
 1821TIP3    H1 5406   3.204   0.240   3.525
 1821TIP3    H2 5407   3.190   0.391   3.526
 1822TIP3   OH2 5408   2.204   0.309   3.865
 1822TIP3    H1 5409   2.198   0.211   3.865
 1822TIP3    H2 5410   2.300   0.322   3.860
 1823TIP3   OH2 5411   1.990  -0.181   3.801
 1823TIP3    H1 5412   2.025  -0.264   3.841
 1823TIP3    H2 5413   2.068  -0.126   3.791
 1824TIP3   OH2 5414   2.830   0.776   3.469
 1824TIP3    H1 5415   2.877   0.701   3.427
 1824TIP3    H2 5416   2.829   0.752   3.563
 1825TIP3   OH2 5417   3.156  -0.260   3.865
 1825TIP3    H1 5418   3.185  -0.345   3.900
 1825TIP3    H2 5419   3.121  -0.282   3.777
 1826TIP3   OH2 5420   2.440  -0.652   3.802
 1826TIP3    H1 5421   2.433  -0.564   3.758
 1826TIP3    H2 5422   2.400  -0.711   3.738
 1827TIP3   OH2 5423   3.152  -0.488   3.493
 1827TIP3    H1 5424   3.214  -0.535   3.552
 1827TIP3    H2 5425   3.204  -0.489   3.410
 1828TIP3   OH2 5426   2.098  -0.408   3.910
 1828TIP3    H1 5427   2.189  -0.400   3.947
 1828TIP3    H2 5428   2.107  -0.491   3.862
 1829TIP3   OH2 5429   2.561  -0.208   3.719
 1829TIP3    H1 5430   2.656  -0.225   3.738
 1829TIP3    H2 5431   2.528  -0.299   3.703
 1830TIP3   OH2 5432   3.787  -0.255   4.020
 1830TIP3    H1 5433   3.712  -0.200   3.988
 1830TIP3    H2 5434   3.844  -0.190   4.063
 1831TIP3   OH2 5435   2.826   0.228   3.269
 1831TIP3    H1 5436   2.796   0.216   3.177
 1831TIP3    H2 5437   2.784   0.313   3.291
 1832TIP3   OH2 5438   2.598   0.169   4.038
 1832TIP3    H1 5439   2.520   0.210   4.079
 1832TIP3    H2 5440   2.660   0.243   4.043
 1833TIP3   OH2 5441   2.351  -0.432   3.987
 1833TIP3    H1 5442   2.423  -0.390   4.038
 1833TIP3    H2 5443   2.380  -0.525   3.992
 1834TIP3   OH2 5444   2.418   0.348   4.143
 1834TIP3    H1 5445   2.395   0.438   4.110
 1834TIP3    H2 5446   2.340   0.333   4.201
 1835TIP3   OH2 5447   3.237   0.558   3.627
 1835TIP3    H1 5448   3.160   0.578   3.680
 1835TIP3    H2 5449   3.247   0.641   3.576
 1836TIP3   OH2 5450   2.960   0.599   3.303
 1836TIP3    H1 5451   3.008   0.517   3.277
 1836TIP3    H2 5452   3.018   0.665   3.260
 1837TIP3   OH2 5453   3.098   0.378   3.213
 1837TIP3    H1 5454   3.082   0.304   3.153
 1837TIP3    H2 5455   3.110   0.334   3.298
 1838TIP3   OH2 5456   3.485   0.469   3.968
 1838TIP3    H1 5457   3.474   0.389   3.912
 1838TIP3    H2 5458   3.467   0.541   3.906
 1839TIP3   OH2 5459   2.784  -0.137   3.220
 1839TIP3    H1 5460   2.701  -0.091   3.196
 1839TIP3    H2 5461   2.825  -0.154   3.133
 1840TIP3   OH2 5462   3.682   0.105   3.811
 1840TIP3    H1 5463   3.599   0.158   3.820
 1840TIP3    H2 5464   3.709   0.129   3.720
 1841TIP3   OH2 5465   3.123  -0.044   3.199
 1841TIP3    H1 5466   3.068  -0.028   3.279
 1841TIP3    H2 5467   3.206  -0.076   3.240
 1842TIP3   OH2 5468   3.351  -0.015   4.098
 1842TIP3    H1 5469   3.368   0.059   4.158
 1842TIP3    H2 5470   3.260   0.002   4.071
 1843TIP3   OH2 5471   2.357  -0.061   3.609
 1843TIP3    H1 5472   2.333  -0.110   3.529
 1843TIP3    H2 5473   2.434  -0.112   3.644
 1844TIP3   OH2 5474   2.462   0.360   3.753
 1844TIP3    H1 5475   2.442   0.328   3.664
 1844TIP3    H2 5476   2.544   0.314   3.776
 1845TIP3   OH2 5477   2.489  -0.084   3.968
 1845TIP3    H1 5478   2.524  -0.117   3.882
 1845TIP3    H2 5479   2.538  -0.000   3.981
 1846TIP3   OH2 5480   2.627   0.468   4.287
 1846TIP3    H1 5481   2.571   0.531   4.337
 1846TIP3    H2 5482   2.557   0.416   4.242
 1847TIP3   OH2 5483   2.977  -0.195   3.022
 1847TIP3    H1 5484   3.033  -0.135   3.074
 1847TIP3    H2 5485   3.000  -0.172   2.929
 1848TIP3   OH2 5486   2.374   0.040   4.379
 1848TIP3    H1 5487   2.381   0.121   4.433
 1848TIP3    H2 5488   2.283   0.012   4.401
 1849TIP3   OH2 5489   2.708   0.477   3.308
 1849TIP3    H1 5490   2.784   0.538   3.313
 1849TIP3    H2 5491   2.645   0.526   3.254
 1850TIP3   OH2 5492   2.422   0.634   4.377
 1850TIP3    H1 5493   2.387   0.636   4.286
 1850TIP3    H2 5494   2.341   0.614   4.430
 1851TIP3   OH2 5495   3.278   0.409   2.621
 1851TIP3    H1 5496   3.285   0.505   2.603
 1851TIP3    H2 5497   3.371   0.380   2.606
 1852TIP3   OH2 5498   2.000   0.167   4.324
 1852TIP3    H1 5499   1.937   0.144   4.253
 1852TIP3    H2 5500   2.039   0.081   4.348
 1853TIP3   OH2 5501   1.857   0.355   3.963
 1853TIP3    H1 5502   1.953   0.358   3.950
 1853TIP3    H2 5503   1.841   0.439   4.009
 1854TIP3   OH2 5504   3.718   0.812   4.013
 1854TIP3    H1 5505   3.719   0.716   4.030
 1854TIP3    H2 5506   3.635   0.837   4.059
 1855TIP3   OH2 5507   2.818   0.603   4.141
 1855TIP3    H1 5508   2.819   0.694   4.179
 1855TIP3    H2 5509   2.752   0.560   4.200
 1856TIP3   OH2 5510   2.591   0.728   3.100
 1856TIP3    H1 5511   2.540   0.711   3.020
 1856TIP3    H2 5512   2.557   0.814   3.130
 1857TIP3   OH2 5513   2.034   0.591   3.483
 1857TIP3    H1 5514   2.076   0.576   3.571
 1857TIP3    H2 5515   1.982   0.507   3.474
 1858TIP3   OH2 5516   2.785   0.629   2.742
 1858TIP3    H1 5517   2.843   0.557   2.706
 1858TIP3    H2 5518   2.819   0.635   2.834
 1859TIP3   OH2 5519   2.841   0.678   3.007
 1859TIP3    H1 5520   2.753   0.685   3.050
 1859TIP3    H2 5521   2.895   0.642   3.080
 1860TIP3   OH2 5522   3.616  -0.069   4.273
 1860TIP3    H1 5523   3.540  -0.021   4.311
 1860TIP3    H2 5524   3.589  -0.161   4.285
 1861TIP3   OH2 5525   2.205   0.350   4.311
 1861TIP3    H1 5526   2.255   0.334   4.394
 1861TIP3    H2 5527   2.132   0.286   4.320
 1862TIP3   OH2 5528   3.359  -0.274   4.236
 1862TIP3    H1 5529   3.358  -0.234   4.323
 1862TIP3    H2 5530   3.361  -0.196   4.178
 1863TIP3   OH2 5531   3.043  -0.133   2.758
 1863TIP3    H1 5532   3.035  -0.164   2.666
 1863TIP3    H2 5533   3.128  -0.085   2.751
 1864TIP3   OH2 5534   2.551  -0.302   4.130
 1864TIP3    H1 5535   2.494  -0.286   4.207
 1864TIP3    H2 5536   2.535  -0.222   4.076
 1865TIP3   OH2 5537   2.420  -0.442   3.621
 1865TIP3    H1 5538   2.326  -0.436   3.604
 1865TIP3    H2 5539   2.457  -0.456   3.533
 1866TIP3   OH2 5540   2.908  -0.339   3.357
 1866TIP3    H1 5541   2.864  -0.268   3.306
 1866TIP3    H2 5542   2.968  -0.377   3.288
 1867TIP3   OH2 5543   3.082  -0.032   4.422
 1867TIP3    H1 5544   3.081  -0.111   4.479
 1867TIP3    H2 5545   3.176  -0.004   4.430
 1868TIP3   OH2 5546   3.047  -0.272   3.611
 1868TIP3    H1 5547   2.989  -0.239   3.540
 1868TIP3    H2 5548   3.076  -0.355   3.567
 1869TIP3   OH2 5549   2.353  -0.277   4.328
 1869TIP3    H1 5550   2.388  -0.220   4.397
 1869TIP3    H2 5551   2.340  -0.361   4.374
 1870TIP3   OH2 5552   3.054  -0.058   4.009
 1870TIP3    H1 5553   3.099  -0.130   3.959
 1870TIP3    H2 5554   3.042  -0.106   4.094
 1871TIP3   OH2 5555   3.411   1.162   4.114
 1871TIP3    H1 5556   3.410   1.189   4.020
 1871TIP3    H2 5557   3.491   1.210   4.146
 1872TIP3   OH2 5558   2.367   0.275   4.534
 1872TIP3    H1 5559   2.448   0.301   4.581
 1872TIP3    H2 5560   2.304   0.273   4.608
 1873TIP3   OH2 5561   2.818  -0.263   3.790
 1873TIP3    H1 5562   2.900  -0.297   3.750
 1873TIP3    H2 5563   2.824  -0.301   3.881
 1874TIP3   OH2 5564   2.825  -0.345   4.050
 1874TIP3    H1 5565   2.736  -0.347   4.090
 1874TIP3    H2 5566   2.880  -0.306   4.121
 1875TIP3   OH2 5567   2.537  -0.002   3.185
 1875TIP3    H1 5568   2.441  -0.003   3.176
 1875TIP3    H2 5569   2.542   0.040   3.275
 1876TIP3   OH2 5570   3.450   0.252   3.798
 1876TIP3    H1 5571   3.476   0.303   3.717
 1876TIP3    H2 5572   3.361   0.221   3.777
 1877TIP3   OH2 5573   2.917   0.328   4.146
 1877TIP3    H1 5574   2.972   0.299   4.220
 1877TIP3    H2 5575   2.903   0.422   4.166
 1878TIP3   OH2 5576   3.068  -0.424   3.150
 1878TIP3    H1 5577   3.164  -0.412   3.150
 1878TIP3    H2 5578   3.037  -0.353   3.089
 1879TIP3   OH2 5579   2.230   0.021   3.846
 1879TIP3    H1 5580   2.277   0.001   3.762
 1879TIP3    H2 5581   2.285  -0.026   3.911
 1880TIP3   OH2 5582   2.689   0.165   3.021
 1880TIP3    H1 5583   2.647   0.253   3.028
 1880TIP3    H2 5584   2.629   0.110   3.075
 1881TIP3   OH2 5585   2.119  -0.042   4.464
 1881TIP3    H1 5586   2.147  -0.057   4.557
 1881TIP3    H2 5587   2.052  -0.112   4.452
 1882TIP3   OH2 5588   2.840   0.076   4.485
 1882TIP3    H1 5589   2.782   0.015   4.437
 1882TIP3    H2 5590   2.929   0.045   4.455
 1883TIP3   OH2 5591   3.098   0.586   4.071
 1883TIP3    H1 5592   3.002   0.600   4.077
 1883TIP3    H2 5593   3.129   0.641   4.146
 1884TIP3   OH2 5594   3.513  -0.341   2.963
 1884TIP3    H1 5595   3.457  -0.394   2.901
 1884TIP3    H2 5596   3.498  -0.252   2.924
 1885TIP3   OH2 5597   3.733   0.526   4.057
 1885TIP3    H1 5598   3.635   0.516   4.052
 1885TIP3    H2 5599   3.757   0.493   3.968
 1886TIP3   OH2 5600   3.213   0.482   2.883
 1886TIP3    H1 5601   3.188   0.408   2.939
 1886TIP3    H2 5602   3.227   0.440   2.796
 1887TIP3   OH2 5603   3.195   0.110   3.701
 1887TIP3    H1 5604   3.147   0.046   3.758
 1887TIP3    H2 5605   3.253   0.046   3.655
 1888TIP3   OH2 5606   2.334   0.340   3.474
 1888TIP3    H1 5607   2.334   0.422   3.421
 1888TIP3    H2 5608   2.239   0.321   3.476
 1889TIP3   OH2 5609   2.478   0.111   3.424
 1889TIP3    H1 5610   2.440   0.200   3.435
 1889TIP3    H2 5611   2.439   0.064   3.500
 1890TIP3   OH2 5612   2.610   0.679   3.941
 1890TIP3    H1 5613   2.650   0.753   3.891
 1890TIP3    H2 5614   2.686   0.651   3.996
 1891TIP3   OH2 5615   2.261   0.577   3.326
 1891TIP3    H1 5616   2.174   0.588   3.372
 1891TIP3    H2 5617   2.293   0.670   3.327
 1892TIP3   OH2 5618   3.026   0.295   3.880
 1892TIP3    H1 5619   2.968   0.317   3.956
 1892TIP3    H2 5620   3.112   0.304   3.928
 1893TIP3   OH2 5621   2.977   0.214   2.780
 1893TIP3    H1 5622   3.017   0.189   2.866
 1893TIP3    H2 5623   2.886   0.181   2.789
 1894TIP3   OH2 5624   3.240   0.847   3.949
 1894TIP3    H1 5625   3.160   0.791   3.940
 1894TIP3    H2 5626   3.226   0.912   3.878
 1895TIP3   OH2 5627   3.307   0.683   2.603
 1895TIP3    H1 5628   3.344   0.754   2.548
 1895TIP3    H2 5629   3.228   0.729   2.637
 1896TIP3   OH2 5630   3.131   0.154   3.008
 1896TIP3    H1 5631   3.121   0.083   3.076
 1896TIP3    H2 5632   3.227   0.146   2.990
 1897TIP3   OH2 5633   2.046   0.546   4.101
 1897TIP3    H1 5634   2.098   0.475   4.141
 1897TIP3    H2 5635   2.073   0.622   4.154
 1898TIP3   OH2 5636   2.300   0.201   3.034
 1898TIP3    H1 5637   2.308   0.180   3.127
 1898TIP3    H2 5638   2.289   0.298   3.038
 1899TIP3   OH2 5639   2.559   0.400   3.027
 1899TIP3    H1 5640   2.469   0.427   3.055
 1899TIP3    H2 5641   2.552   0.410   2.930
 1900TIP3   OH2 5642   2.716  -0.528   3.405
 1900TIP3    H1 5643   2.783  -0.457   3.396
 1900TIP3    H2 5644   2.764  -0.593   3.459
 1901TIP3   OH2 5645   3.016  -0.221   4.225
 1901TIP3    H1 5646   3.016  -0.162   4.304
 1901TIP3    H2 5647   3.079  -0.288   4.254
 1902TIP3   OH2 5648   2.295   0.468   3.075
 1902TIP3    H1 5649   2.261   0.539   3.016
 1902TIP3    H2 5650   2.275   0.506   3.164
 1903TIP3   OH2 5651   3.295  -0.122   3.599
 1903TIP3    H1 5652   3.218  -0.180   3.617
 1903TIP3    H2 5653   3.367  -0.170   3.645
 1904TIP3   OH2 5654   3.265   0.818   3.539
 1904TIP3    H1 5655   3.222   0.867   3.465
 1904TIP3    H2 5656   3.359   0.842   3.522
 1905TIP3   OH2 5657   1.912   0.351   3.455
 1905TIP3    H1 5658   1.823   0.316   3.471
 1905TIP3    H2 5659   1.932   0.310   3.369
 1906TIP3   OH2 5660   2.037   0.858   4.529
 1906TIP3    H1 5661   2.124   0.858   4.573
 1906TIP3    H2 5662   2.020   0.762   4.522
 1907TIP3   OH2 5663   2.511   0.816   4.569
 1907TIP3    H1 5664   2.606   0.801   4.580
 1907TIP3    H2 5665   2.491   0.754   4.495
 1908TIP3   OH2 5666   2.512   0.405   2.755
 1908TIP3    H1 5667   2.442   0.338   2.753
 1908TIP3    H2 5668   2.545   0.392   2.664
 1909TIP3   OH2 5669   3.156   0.724   4.300
 1909TIP3    H1 5670   3.148   0.654   4.369
 1909TIP3    H2 5671   3.234   0.774   4.331
 1910TIP3   OH2 5672   2.934   0.436   2.612
 1910TIP3    H1 5673   2.977   0.371   2.671
 1910TIP3    H2 5674   2.993   0.437   2.535
 1911TIP3   OH2 5675   2.166   0.264   4.724
 1911TIP3    H1 5676   2.182   0.169   4.734
 1911TIP3    H2 5677   2.079   0.266   4.679
 1912TIP3   OH2 5678   2.771   0.348   4.500
 1912TIP3    H1 5679   2.736   0.365   4.411
 1912TIP3    H2 5680   2.805   0.256   4.493
 1913TIP3   OH2 5681   2.702   0.114   2.749
 1913TIP3    H1 5682   2.687   0.131   2.844
 1913TIP3    H2 5683   2.688   0.018   2.743
 1914TIP3   OH2 5684   3.237   0.339   4.042
 1914TIP3    H1 5685   3.331   0.359   4.056
 1914TIP3    H2 5686   3.196   0.423   4.071
 1915TIP3   OH2 5687   2.294  -0.006   4.702
 1915TIP3    H1 5688   2.375  -0.057   4.686
 1915TIP3    H2 5689   2.311   0.026   4.793
 1916TIP3   OH2 5690   2.613  -0.096   4.364
 1916TIP3    H1 5691   2.534  -0.038   4.360
 1916TIP3    H2 5692   2.663  -0.070   4.283
 1917TIP3   OH2 5693   3.150   0.281   4.498
 1917TIP3    H1 5694   3.228   0.237   4.459
 1917TIP3    H2 5695   3.128   0.217   4.568
 1918TIP3   OH2 5696   3.283  -0.052   2.644
 1918TIP3    H1 5697   3.255  -0.098   2.562
 1918TIP3    H2 5698   3.250   0.039   2.621
 1919TIP3   OH2 5699   2.707  -0.314   4.491
 1919TIP3    H1 5700   2.663  -0.376   4.430
 1919TIP3    H2 5701   2.680  -0.228   4.449
 1920TIP3   OH2 5702   2.773  -0.010   4.165
 1920TIP3    H1 5703   2.862  -0.012   4.127
 1920TIP3    H2 5704   2.728   0.058   4.113
 1921TIP3   OH2 5705   2.577  -0.185   4.711
 1921TIP3    H1 5706   2.550  -0.259   4.767
 1921TIP3    H2 5707   2.641  -0.227   4.651
 1922TIP3   OH2 5708   2.996  -0.267   4.526
 1922TIP3    H1 5709   3.034  -0.299   4.609
 1922TIP3    H2 5710   2.901  -0.275   4.543
 1923TIP3   OH2 5711   2.258   0.665   2.887
 1923TIP3    H1 5712   2.354   0.669   2.865
 1923TIP3    H2 5713   2.220   0.711   2.812
 1924TIP3   OH2 5714   1.650   0.651   3.502
 1924TIP3    H1 5715   1.582   0.586   3.482
 1924TIP3    H2 5716   1.699   0.606   3.575
 1925TIP3   OH2 5717   1.773   0.530   3.711
 1925TIP3    H1 5718   1.779   0.447   3.760
 1925TIP3    H2 5719   1.834   0.586   3.762
 1926TIP3   OH2 5720   3.517   0.913   3.505
 1926TIP3    H1 5721   3.542   0.946   3.593
 1926TIP3    H2 5722   3.579   0.962   3.448
 1927TIP3   OH2 5723   3.547   0.935   3.785
 1927TIP3    H1 5724   3.505   0.847   3.783
 1927TIP3    H2 5725   3.621   0.916   3.845
 1928TIP3   OH2 5726   3.594   0.611   4.358
 1928TIP3    H1 5727   3.522   0.617   4.424
 1928TIP3    H2 5728   3.635   0.700   4.365
 1929TIP3   OH2 5729   3.408   0.125   2.974
 1929TIP3    H1 5730   3.475   0.190   2.944
 1929TIP3    H2 5731   3.453   0.088   3.053
 1930TIP3   OH2 5732   3.534  -0.002   3.178
 1930TIP3    H1 5733   3.471  -0.043   3.242
 1930TIP3    H2 5734   3.603   0.035   3.238
 1931TIP3   OH2 5735   3.578   0.382   3.597
 1931TIP3    H1 5736   3.644   0.319   3.561
 1931TIP3    H2 5737   3.591   0.460   3.539
 1932TIP3   OH2 5738   3.422   0.686   3.806
 1932TIP3    H1 5739   3.354   0.728   3.862
 1932TIP3    H2 5740   3.370   0.641   3.738
 1933TIP3   OH2 5741   3.469  -0.104   2.830
 1933TIP3    H1 5742   3.404  -0.088   2.757
 1933TIP3    H2 5743   3.447  -0.027   2.887
 1934TIP3   OH2 5744   3.341  -0.443   2.773
 1934TIP3    H1 5745   3.324  -0.359   2.728
 1934TIP3    H2 5746   3.249  -0.475   2.788
 1935TIP3   OH2 5747   3.348  -0.139   3.326
 1935TIP3    H1 5748   3.349  -0.233   3.302
 1935TIP3    H2 5749   3.338  -0.141   3.424
 1936TIP3   OH2 5750   1.972  -0.079   4.072
 1936TIP3    H1 5751   1.968  -0.108   3.979
 1936TIP3    H2 5752   2.070  -0.078   4.088
 1937TIP3   OH2 5753   3.632   0.272   4.173
 1937TIP3    H1 5754   3.706   0.208   4.173
 1937TIP3    H2 5755   3.670   0.349   4.130
 1938TIP3   OH2 5756   3.826   0.082   4.194
 1938TIP3    H1 5757   3.749   0.027   4.223
 1938TIP3    H2 5758   3.899   0.021   4.215
 1939TIP3   OH2 5759   3.344  -0.389   3.191
 1939TIP3    H1 5760   3.368  -0.468   3.243
 1939TIP3    H2 5761   3.411  -0.389   3.120
 1940TIP3   OH2 5762   3.501  -0.254   3.717
 1940TIP3    H1 5763   3.588  -0.233   3.678
 1940TIP3    H2 5764   3.516  -0.219   3.807
 1941TIP3   OH2 5765   3.568  -0.111   3.944
 1941TIP3    H1 5766   3.500  -0.076   4.006
 1941TIP3    H2 5767   3.605  -0.029   3.906
 1942TIP3   OH2 5768   2.192  -0.397   4.740
 1942TIP3    H1 5769   2.288  -0.401   4.744
 1942TIP3    H2 5770   2.166  -0.483   4.776
 1943TIP3   OH2 5771   1.949  -0.422   4.148
 1943TIP3    H1 5772   1.998  -0.418   4.063
 1943TIP3    H2 5773   1.985  -0.346   4.195
 1944TIP3   OH2 5774   3.099   0.779   3.159
 1944TIP3    H1 5775   3.153   0.772   3.078
 1944TIP3    H2 5776   3.146   0.849   3.209
 1945TIP3   OH2 5777   2.200   0.590   4.540
 1945TIP3    H1 5778   2.107   0.562   4.528
 1945TIP3    H2 5779   2.216   0.568   4.633
 1946TIP3   OH2 5780   2.382   0.618   4.089
 1946TIP3    H1 5781   2.334   0.695   4.051
 1946TIP3    H2 5782   2.468   0.633   4.045
 1947TIP3   OH2 5783   2.822   0.866   4.227
 1947TIP3    H1 5784   2.864   0.863   4.316
 1947TIP3    H2 5785   2.890   0.915   4.177
 1948TIP3   OH2 5786   3.006   1.013   4.089
 1948TIP3    H1 5787   3.081   0.965   4.052
 1948TIP3    H2 5788   3.054   1.074   4.150
 1949TIP3   OH2 5789   2.056   0.873   4.119
 1949TIP3    H1 5790   1.966   0.904   4.094
 1949TIP3    H2 5791   2.071   0.926   4.199
 1950TIP3   OH2 5792   2.291   0.852   3.973
 1950TIP3    H1 5793   2.204   0.865   4.017
 1950TIP3    H2 5794   2.273   0.887   3.884
 1951TIP3   OH2 5795   2.718   0.881   3.770
 1951TIP3    H1 5796   2.646   0.902   3.707
 1951TIP3    H2 5797   2.731   0.967   3.814
 1952TIP3   OH2 5798   2.992   0.819   3.800
 1952TIP3    H1 5799   2.897   0.838   3.794
 1952TIP3    H2 5800   3.032   0.903   3.773
 1953TIP3   OH2 5801   3.193   1.013   3.735
 1953TIP3    H1 5802   3.180   1.099   3.690
 1953TIP3    H2 5803   3.219   0.955   3.660
 1954TIP3   OH2 5804   1.965   0.668   3.860
 1954TIP3    H1 5805   1.993   0.641   3.950
 1954TIP3    H2 5806   2.038   0.627   3.808
 1955TIP3   OH2 5807   2.162   0.544   3.721
 1955TIP3    H1 5808   2.176   0.458   3.768
 1955TIP3    H2 5809   2.252   0.580   3.717
 1956TIP3   OH2 5810   2.427   0.639   3.722
 1956TIP3    H1 5811   2.452   0.545   3.715
 1956TIP3    H2 5812   2.475   0.663   3.804
 1957TIP3   OH2 5813   1.719   0.447   3.229
 1957TIP3    H1 5814   1.625   0.440   3.251
 1957TIP3    H2 5815   1.741   0.537   3.258
 1958TIP3   OH2 5816   2.523   0.670   2.819
 1958TIP3    H1 5817   2.617   0.681   2.793
 1958TIP3    H2 5818   2.513   0.576   2.794
 1959TIP3   OH2 5819   3.247   0.750   2.927
 1959TIP3    H1 5820   3.238   0.652   2.914
 1959TIP3    H2 5821   3.203   0.783   2.847
 1960TIP3   OH2 5822   3.471   0.893   4.111
 1960TIP3    H1 5823   3.391   0.862   4.065
 1960TIP3    H2 5824   3.452   0.989   4.118
 1961TIP3   OH2 5825   4.739   0.263   2.878
 1961TIP3    H1 5826   4.711   0.355   2.859
 1961TIP3    H2 5827   4.662   0.215   2.843
 1962TIP3   OH2 5828   4.738   0.266   3.265
 1962TIP3    H1 5829   4.771   0.243   3.354
 1962TIP3    H2 5830   4.696   0.184   3.237
 1963TIP3   OH2 5831   4.032   0.159   3.625
 1963TIP3    H1 5832   4.063   0.089   3.686
 1963TIP3    H2 5833   4.111   0.214   3.620
 1964TIP3   OH2 5834   4.983   0.570   2.945
 1964TIP3    H1 5835   4.969   0.500   3.011
 1964TIP3    H2 5836   5.013   0.644   2.999
 1965TIP3   OH2 5837   4.008   0.568   3.346
 1965TIP3    H1 5838   4.000   0.470   3.348
 1965TIP3    H2 5839   4.105   0.578   3.347
 1966TIP3   OH2 5840   3.704  -0.218   3.144
 1966TIP3    H1 5841   3.652  -0.137   3.155
 1966TIP3    H2 5842   3.642  -0.273   3.094
 1967TIP3   OH2 5843   3.767   0.069   3.305
 1967TIP3    H1 5844   3.809  -0.012   3.340
 1967TIP3    H2 5845   3.837   0.106   3.250
 1968TIP3   OH2 5846   4.634   1.030   2.961
 1968TIP3    H1 5847   4.677   0.958   2.910
 1968TIP3    H2 5848   4.627   0.990   3.049
 1969TIP3   OH2 5849   4.536   0.492   3.308
 1969TIP3    H1 5850   4.576   0.414   3.266
 1969TIP3    H2 5851   4.619   0.539   3.333
 1970TIP3   OH2 5852   4.955  -0.005   3.354
 1970TIP3    H1 5853   4.978  -0.093   3.385
 1970TIP3    H2 5854   4.917  -0.021   3.265
 1971TIP3   OH2 5855   4.278  -0.389   3.272
 1971TIP3    H1 5856   4.252  -0.299   3.245
 1971TIP3    H2 5857   4.195  -0.438   3.257
 1972TIP3   OH2 5858   4.944  -0.235   2.979
 1972TIP3    H1 5859   5.004  -0.280   3.042
 1972TIP3    H2 5860   5.000  -0.234   2.900
 1973TIP3   OH2 5861   3.898  -0.146   3.404
 1973TIP3    H1 5862   3.990  -0.143   3.440
 1973TIP3    H2 5863   3.914  -0.207   3.329
 1974TIP3   OH2 5864   4.357   0.055   3.209
 1974TIP3    H1 5865   4.451   0.029   3.225
 1974TIP3    H2 5866   4.318  -0.032   3.184
 1975TIP3   OH2 5867   5.614   0.022   3.471
 1975TIP3    H1 5868   5.526   0.062   3.458
 1975TIP3    H2 5869   5.644   0.061   3.554
 1976TIP3   OH2 5870   4.630   0.485   2.746
 1976TIP3    H1 5871   4.588   0.468   2.661
 1976TIP3    H2 5872   4.584   0.568   2.774
 1977TIP3   OH2 5873   4.390   0.411   3.532
 1977TIP3    H1 5874   4.329   0.478   3.570
 1977TIP3    H2 5875   4.433   0.461   3.460
 1978TIP3   OH2 5876   4.154  -0.181   3.471
 1978TIP3    H1 5877   4.222  -0.135   3.523
 1978TIP3    H2 5878   4.182  -0.273   3.486
 1979TIP3   OH2 5879   4.219   0.606   3.631
 1979TIP3    H1 5880   4.193   0.695   3.597
 1979TIP3    H2 5881   4.141   0.588   3.688
 1980TIP3   OH2 5882   3.609   0.296   2.869
 1980TIP3    H1 5883   3.571   0.324   2.783
 1980TIP3    H2 5884   3.641   0.382   2.904
 1981TIP3   OH2 5885   5.050   0.812   3.107
 1981TIP3    H1 5886   4.961   0.803   3.147
 1981TIP3    H2 5887   5.042   0.899   3.064
 1982TIP3   OH2 5888   4.750   0.857   2.778
 1982TIP3    H1 5889   4.801   0.775   2.761
 1982TIP3    H2 5890   4.811   0.923   2.739
 1983TIP3   OH2 5891   4.895   0.642   2.693
 1983TIP3    H1 5892   4.855   0.561   2.658
 1983TIP3    H2 5893   4.934   0.609   2.777
 1984TIP3   OH2 5894   5.278   0.723   3.452
 1984TIP3    H1 5895   5.266   0.645   3.394
 1984TIP3    H2 5896   5.260   0.797   3.391
 1985TIP3   OH2 5897   4.569   0.122   2.708
 1985TIP3    H1 5898   4.487   0.172   2.687
 1985TIP3    H2 5899   4.612   0.116   2.621
 1986TIP3   OH2 5900   4.525  -0.098   2.428
 1986TIP3    H1 5901   4.598  -0.049   2.470
 1986TIP3    H2 5902   4.575  -0.168   2.381
 1987TIP3   OH2 5903   5.473   0.363   3.300
 1987TIP3    H1 5904   5.389   0.414   3.304
 1987TIP3    H2 5905   5.502   0.384   3.209
 1988TIP3   OH2 5906   4.915   0.201   2.679
 1988TIP3    H1 5907   4.861   0.224   2.758
 1988TIP3    H2 5908   5.000   0.179   2.723
 1989TIP3   OH2 5909   5.153   0.245   3.602
 1989TIP3    H1 5910   5.146   0.327   3.655
 1989TIP3    H2 5911   5.067   0.246   3.556
 1990TIP3   OH2 5912   4.150   0.197   3.098
 1990TIP3    H1 5913   4.111   0.137   3.031
 1990TIP3    H2 5914   4.227   0.144   3.130
 1991TIP3   OH2 5915   4.281   0.613   3.244
 1991TIP3    H1 5916   4.261   0.570   3.160
 1991TIP3    H2 5917   4.370   0.577   3.264
 1992TIP3   OH2 5918   4.285   0.166   3.458
 1992TIP3    H1 5919   4.317   0.140   3.369
 1992TIP3    H2 5920   4.330   0.252   3.473
 1993TIP3   OH2 5921   4.810   0.806   3.229
 1993TIP3    H1 5922   4.798   0.885   3.285
 1993TIP3    H2 5923   4.796   0.732   3.292
 1994TIP3   OH2 5924   4.424   0.725   3.776
 1994TIP3    H1 5925   4.364   0.786   3.824
 1994TIP3    H2 5926   4.359   0.671   3.727
 1995TIP3   OH2 5927   4.756   0.056   2.508
 1995TIP3    H1 5928   4.814   0.118   2.558
 1995TIP3    H2 5929   4.783   0.078   2.415
 1996TIP3   OH2 5930   4.170   0.291   3.872
 1996TIP3    H1 5931   4.176   0.375   3.922
 1996TIP3    H2 5932   4.078   0.265   3.892
 1997TIP3   OH2 5933   4.503   0.733   2.783
 1997TIP3    H1 5934   4.585   0.786   2.794
 1997TIP3    H2 5935   4.442   0.796   2.744
 1998TIP3   OH2 5936   4.217   0.890   3.865
 1998TIP3    H1 5937   4.181   0.891   3.774
 1998TIP3    H2 5938   4.137   0.870   3.919
 1999TIP3   OH2 5939   4.017   0.039   2.901
 1999TIP3    H1 5940   3.948   0.084   2.847
 1999TIP3    H2 5941   3.978  -0.048   2.915
 2000TIP3   OH2 5942   5.072   0.665   2.105
 2000TIP3    H1 5943   5.080   0.761   2.091
 2000TIP3    H2 5944   5.165   0.636   2.095
 2001TIP3   OH2 5945   3.798   0.422   3.813
 2001TIP3    H1 5946   3.736   0.393   3.744
 2001TIP3    H2 5947   3.839   0.338   3.842
 2002TIP3   OH2 5948   3.653   0.614   3.446
 2002TIP3    H1 5949   3.749   0.610   3.435
 2002TIP3    H2 5950   3.643   0.694   3.501
 2003TIP3   OH2 5951   5.515   1.070   3.500
 2003TIP3    H1 5952   5.514   0.973   3.516
 2003TIP3    H2 5953   5.432   1.095   3.546
 2004TIP3   OH2 5954   4.619   0.855   3.632
 2004TIP3    H1 5955   4.617   0.947   3.666
 2004TIP3    H2 5956   4.549   0.814   3.688
 2005TIP3   OH2 5957   4.382   0.986   2.582
 2005TIP3    H1 5958   4.339   0.956   2.500
 2005TIP3    H2 5959   4.338   1.069   2.602
 2006TIP3   OH2 5960   3.821   0.830   2.971
 2006TIP3    H1 5961   3.868   0.822   3.057
 2006TIP3    H2 5962   3.766   0.750   2.972
 2007TIP3   OH2 5963   4.584   0.885   2.226
 2007TIP3    H1 5964   4.642   0.814   2.189
 2007TIP3    H2 5965   4.619   0.893   2.317
 2008TIP3   OH2 5966   4.635   0.933   2.495
 2008TIP3    H1 5967   4.547   0.942   2.538
 2008TIP3    H2 5968   4.686   0.892   2.567
 2009TIP3   OH2 5969   5.405   0.185   3.776
 2009TIP3    H1 5970   5.326   0.210   3.726
 2009TIP3    H2 5971   5.394   0.089   3.781
 2010TIP3   OH2 5972   4.001   0.607   3.796
 2010TIP3    H1 5973   4.051   0.593   3.878
 2010TIP3    H2 5974   3.927   0.544   3.806
 2011TIP3   OH2 5975   5.180  -0.023   3.693
 2011TIP3    H1 5976   5.181  -0.035   3.789
 2011TIP3    H2 5977   5.151   0.069   3.679
 2012TIP3   OH2 5978   4.837   0.097   2.253
 2012TIP3    H1 5979   4.798   0.079   2.165
 2012TIP3    H2 5980   4.917   0.146   2.228
 2013TIP3   OH2 5981   4.348  -0.048   3.618
 2013TIP3    H1 5982   4.288  -0.030   3.693
 2013TIP3    H2 5983   4.333   0.031   3.562
 2014TIP3   OH2 5984   4.215  -0.166   3.123
 2014TIP3    H1 5985   4.121  -0.189   3.135
 2014TIP3    H2 5986   4.231  -0.199   3.032
 2015TIP3   OH2 5987   4.699  -0.078   2.845
 2015TIP3    H1 5988   4.652  -0.005   2.799
 2015TIP3    H2 5989   4.766  -0.105   2.778
 2016TIP3   OH2 5990   4.889   0.224   3.917
 2016TIP3    H1 5991   4.864   0.143   3.967
 2016TIP3    H2 5992   4.984   0.230   3.940
 2017TIP3   OH2 5993   4.845  -0.017   3.102
 2017TIP3    H1 5994   4.789   0.027   3.035
 2017TIP3    H2 5995   4.869  -0.098   3.052
 2018TIP3   OH2 5996   4.150  -0.021   3.812
 2018TIP3    H1 5997   4.171   0.042   3.883
 2018TIP3    H2 5998   4.133  -0.103   3.861
 2019TIP3   OH2 5999   3.782  -0.419   2.944
 2019TIP3    H1 6000   3.797  -0.409   2.848
 2019TIP3    H2 6001   3.687  -0.395   2.948
 2020TIP3   OH2 6002   4.868   0.198   3.506
 2020TIP3    H1 6003   4.907   0.127   3.450
 2020TIP3    H2 6004   4.845   0.145   3.585
 2021TIP3   OH2 6005   3.964  -0.291   3.168
 2021TIP3    H1 6006   3.872  -0.259   3.152
 2021TIP3    H2 6007   3.962  -0.372   3.116
 2022TIP3   OH2 6008   4.256  -0.271   2.876
 2022TIP3    H1 6009   4.348  -0.285   2.846
 2022TIP3    H2 6010   4.204  -0.280   2.794
 2023TIP3   OH2 6011   4.091  -0.287   2.649
 2023TIP3    H1 6012   4.018  -0.307   2.586
 2023TIP3    H2 6013   4.151  -0.239   2.587
 2024TIP3   OH2 6014   5.209   1.418   3.600
 2024TIP3    H1 6015   5.207   1.444   3.506
 2024TIP3    H2 6016   5.288   1.466   3.632
 2025TIP3   OH2 6017   4.163   0.532   4.018
 2025TIP3    H1 6018   4.242   0.559   4.067
 2025TIP3    H2 6019   4.098   0.527   4.091
 2026TIP3   OH2 6020   4.614  -0.015   3.275
 2026TIP3    H1 6021   4.698  -0.045   3.237
 2026TIP3    H2 6022   4.620  -0.048   3.367
 2027TIP3   OH2 6023   4.623  -0.086   3.537
 2027TIP3    H1 6024   4.534  -0.091   3.576
 2027TIP3    H2 6025   4.676  -0.046   3.609
 2028TIP3   OH2 6026   4.337   0.270   2.657
 2028TIP3    H1 6027   4.264   0.205   2.646
 2028TIP3    H2 6028   4.319   0.303   2.748
 2029TIP3   OH2 6029   5.239   0.507   3.286
 2029TIP3    H1 6030   5.263   0.556   3.205
 2029TIP3    H2 6031   5.153   0.465   3.261
 2030TIP3   OH2 6032   4.769  -0.347   2.480
 2030TIP3    H1 6033   4.712  -0.398   2.541
 2030TIP3    H2 6034   4.808  -0.283   2.543
 2031TIP3   OH2 6035   4.739   0.589   3.655
 2031TIP3    H1 6036   4.767   0.566   3.745
 2031TIP3    H2 6037   4.699   0.677   3.667
 2032TIP3   OH2 6038   4.874  -0.156   2.642
 2032TIP3    H1 6039   4.971  -0.145   2.650
 2032TIP3    H2 6040   4.849  -0.078   2.587
 2033TIP3   OH2 6041   4.031   0.289   3.333
 2033TIP3    H1 6042   4.073   0.262   3.249
 2033TIP3    H2 6043   4.077   0.232   3.397
 2034TIP3   OH2 6044   4.485   0.419   2.483
 2034TIP3    H1 6045   4.437   0.505   2.488
 2034TIP3    H2 6046   4.431   0.363   2.542
 2035TIP3   OH2 6047   3.914   0.212   3.950
 2035TIP3    H1 6048   3.931   0.199   4.046
 2035TIP3    H2 6049   3.842   0.149   3.935
 2036TIP3   OH2 6050   4.639   0.332   3.972
 2036TIP3    H1 6051   4.579   0.275   3.921
 2036TIP3    H2 6052   4.727   0.302   3.939
 2037TIP3   OH2 6053   4.897   0.851   3.550
 2037TIP3    H1 6054   4.801   0.847   3.565
 2037TIP3    H2 6055   4.926   0.901   3.630
 2038TIP3   OH2 6056   5.309  -0.081   2.449
 2038TIP3    H1 6057   5.249  -0.130   2.389
 2038TIP3    H2 6058   5.294   0.010   2.413
 2039TIP3   OH2 6059   5.528   0.780   3.541
 2039TIP3    H1 6060   5.430   0.773   3.533
 2039TIP3    H2 6061   5.554   0.750   3.451
 2040TIP3   OH2 6062   5.009   0.740   2.371
 2040TIP3    H1 6063   4.983   0.669   2.432
 2040TIP3    H2 6064   5.022   0.692   2.287
 2041TIP3   OH2 6065   5.004   0.372   3.201
 2041TIP3    H1 6066   4.912   0.345   3.217
 2041TIP3    H2 6067   5.040   0.291   3.158
 2042TIP3   OH2 6068   4.134   0.596   2.959
 2042TIP3    H1 6069   4.131   0.677   2.905
 2042TIP3    H2 6070   4.040   0.580   2.973
 2043TIP3   OH2 6071   3.695  -0.097   2.668
 2043TIP3    H1 6072   3.744  -0.014   2.689
 2043TIP3    H2 6073   3.621  -0.091   2.732
 2044TIP3   OH2 6074   4.267   0.360   2.901
 2044TIP3    H1 6075   4.233   0.450   2.922
 2044TIP3    H2 6076   4.234   0.309   2.978
 2045TIP3   OH2 6077   4.404   0.938   3.429
 2045TIP3    H1 6078   4.448   1.011   3.380
 2045TIP3    H2 6079   4.479   0.901   3.479
 2046TIP3   OH2 6080   4.050   0.837   2.811
 2046TIP3    H1 6081   3.965   0.843   2.859
 2046TIP3    H2 6082   4.081   0.930   2.816
 2047TIP3   OH2 6083   4.789   0.575   3.388
 2047TIP3    H1 6084   4.778   0.574   3.486
 2047TIP3    H2 6085   4.868   0.520   3.378
 2048TIP3   OH2 6086   4.766   0.469   2.272
 2048TIP3    H1 6087   4.820   0.444   2.350
 2048TIP3    H2 6088   4.678   0.439   2.300
 2049TIP3   OH2 6089   5.039   1.105   3.439
 2049TIP3    H1 6090   4.961   1.047   3.435
 2049TIP3    H2 6091   5.021   1.168   3.367
 2050TIP3   OH2 6092   5.104   0.940   2.090
 2050TIP3    H1 6093   5.141   1.013   2.038
 2050TIP3    H2 6094   5.024   0.985   2.125
 2051TIP3   OH2 6095   4.927   0.399   2.485
 2051TIP3    H1 6096   4.916   0.334   2.557
 2051TIP3    H2 6097   5.025   0.397   2.474
 2052TIP3   OH2 6098   3.841   0.800   3.587
 2052TIP3    H1 6099   3.896   0.729   3.626
 2052TIP3    H2 6100   3.863   0.874   3.646
 2053TIP3   OH2 6101   4.131   0.447   2.272
 2053TIP3    H1 6102   4.144   0.355   2.244
 2053TIP3    H2 6103   4.110   0.436   2.367
 2054TIP3   OH2 6104   4.074   0.452   2.544
 2054TIP3    H1 6105   4.148   0.425   2.600
 2054TIP3    H2 6106   4.078   0.550   2.552
 2055TIP3   OH2 6107   3.808   0.144   2.748
 2055TIP3    H1 6108   3.743   0.191   2.805
 2055TIP3    H2 6109   3.825   0.212   2.680
 2056TIP3   OH2 6110   4.343   0.649   2.492
 2056TIP3    H1 6111   4.255   0.675   2.528
 2056TIP3    H2 6112   4.356   0.719   2.427
 2057TIP3   OH2 6113   4.543  -0.299   2.866
 2057TIP3    H1 6114   4.595  -0.216   2.863
 2057TIP3    H2 6115   4.551  -0.323   2.960
 2058TIP3   OH2 6116   4.813   0.032   3.715
 2058TIP3    H1 6117   4.808   0.090   3.793
 2058TIP3    H2 6118   4.875  -0.035   3.747
 2059TIP3   OH2 6119   4.088   0.725   2.560
 2059TIP3    H1 6120   4.057   0.795   2.498
 2059TIP3    H2 6121   4.070   0.768   2.647
 2060TIP3   OH2 6122   5.092   0.128   3.083
 2060TIP3    H1 6123   5.012   0.077   3.106
 2060TIP3    H2 6124   5.162   0.081   3.132
 2061TIP3   OH2 6125   3.804   0.351   2.552
 2061TIP3    H1 6126   3.873   0.419   2.560
 2061TIP3    H2 6127   3.848   0.294   2.485
 2062TIP3   OH2 6128   3.750  -0.365   2.677
 2062TIP3    H1 6129   3.743  -0.268   2.669
 2062TIP3    H2 6130   3.661  -0.395   2.656
 2063TIP3   OH2 6131   5.059   1.083   3.029
 2063TIP3    H1 6132   5.017   1.131   2.954
 2063TIP3    H2 6133   5.154   1.102   3.010
 2064TIP3   OH2 6134   3.671   0.567   2.936
 2064TIP3    H1 6135   3.607   0.599   3.001
 2064TIP3    H2 6136   3.639   0.611   2.854
 2065TIP3   OH2 6137   3.834   1.115   4.009
 2065TIP3    H1 6138   3.920   1.117   4.058
 2065TIP3    H2 6139   3.815   1.020   4.010
 2066TIP3   OH2 6140   4.310   1.073   4.054
 2066TIP3    H1 6141   4.405   1.054   4.063
 2066TIP3    H2 6142   4.286   1.011   3.982
 2067TIP3   OH2 6143   4.294   0.650   2.183
 2067TIP3    H1 6144   4.238   0.578   2.221
 2067TIP3    H2 6145   4.369   0.598   2.149
 2068TIP3   OH2 6146   4.953   0.980   3.786
 2068TIP3    H1 6147   4.944   0.911   3.856
 2068TIP3    H2 6148   5.029   1.032   3.818
 2069TIP3   OH2 6149   4.729   0.689   2.096
 2069TIP3    H1 6150   4.770   0.624   2.156
 2069TIP3    H2 6151   4.787   0.686   2.018
 2070TIP3   OH2 6152   3.964   0.520   4.210
 2070TIP3    H1 6153   3.975   0.425   4.224
 2070TIP3    H2 6154   3.874   0.523   4.170
 2071TIP3   OH2 6155   3.940   0.164   2.407
 2071TIP3    H1 6156   3.998   0.134   2.480
 2071TIP3    H2 6157   4.007   0.170   2.335
 2072TIP3   OH2 6158   4.570   0.605   3.985
 2072TIP3    H1 6159   4.528   0.621   3.898
 2072TIP3    H2 6160   4.600   0.511   3.977
 2073TIP3   OH2 6161   4.454   0.367   2.213
 2073TIP3    H1 6162   4.455   0.380   2.310
 2073TIP3    H2 6163   4.456   0.269   2.208
 2074TIP3   OH2 6164   5.061   0.615   3.590
 2074TIP3    H1 6165   5.136   0.659   3.547
 2074TIP3    H2 6166   4.990   0.680   3.576
 2075TIP3   OH2 6167   4.092   0.252   4.192
 2075TIP3    H1 6168   4.173   0.202   4.174
 2075TIP3    H2 6169   4.110   0.286   4.281
 2076TIP3   OH2 6170   4.141   0.074   2.624
 2076TIP3    H1 6171   4.122   0.035   2.711
 2076TIP3    H2 6172   4.181  -0.002   2.576
 2077TIP3   OH2 6173   4.415   0.165   3.853
 2077TIP3    H1 6174   4.332   0.218   3.849
 2077TIP3    H2 6175   4.461   0.192   3.771
 2078TIP3   OH2 6176   4.247  -0.135   2.473
 2078TIP3    H1 6177   4.220  -0.131   2.379
 2078TIP3    H2 6178   4.344  -0.130   2.464
 2079TIP3   OH2 6179   4.937   0.540   3.987
 2079TIP3    H1 6180   5.010   0.504   3.935
 2079TIP3    H2 6181   4.925   0.471   4.055
 2080TIP3   OH2 6182   5.067   0.192   2.131
 2080TIP3    H1 6183   5.049   0.149   2.045
 2080TIP3    H2 6184   5.036   0.283   2.109
 2081TIP3   OH2 6185   4.502  -0.056   3.977
 2081TIP3    H1 6186   4.456  -0.117   3.916
 2081TIP3    H2 6187   4.476   0.030   3.936
 2082TIP3   OH2 6188   4.577   0.253   3.657
 2082TIP3    H1 6189   4.659   0.257   3.606
 2082TIP3    H2 6190   4.520   0.317   3.609
 2083TIP3   OH2 6191   5.143   0.217   4.018
 2083TIP3    H1 6192   5.172   0.154   4.088
 2083TIP3    H2 6193   5.225   0.264   3.999
 2084TIP3   OH2 6194   5.192   0.471   3.777
 2084TIP3    H1 6195   5.133   0.525   3.719
 2084TIP3    H2 6196   5.279   0.491   3.736
 2085TIP3   OH2 6197   4.381   0.069   4.205
 2085TIP3    H1 6198   4.343  -0.008   4.246
 2085TIP3    H2 6199   4.442   0.031   4.139
 2086TIP3   OH2 6200   4.785  -0.003   4.013
 2086TIP3    H1 6201   4.818  -0.036   4.098
 2086TIP3    H2 6202   4.689  -0.017   4.022
 2087TIP3   OH2 6203   4.059   0.932   2.376
 2087TIP3    H1 6204   4.153   0.922   2.352
 2087TIP3    H2 6205   4.027   0.978   2.296
 2088TIP3   OH2 6206   3.536   0.308   2.586
 2088TIP3    H1 6207   3.631   0.330   2.573
 2088TIP3    H2 6208   3.530   0.220   2.544
 2089TIP3   OH2 6209   3.452   0.920   3.004
 2089TIP3    H1 6210   3.385   0.859   2.966
 2089TIP3    H2 6211   3.496   0.861   3.069
 2090TIP3   OH2 6212   3.587   0.767   3.190
 2090TIP3    H1 6213   3.575   0.698   3.257
 2090TIP3    H2 6214   3.638   0.832   3.242
 2091TIP3   OH2 6215   5.313   1.174   2.989
 2091TIP3    H1 6216   5.339   1.203   3.079
 2091TIP3    H2 6217   5.381   1.215   2.934
 2092TIP3   OH2 6218   5.343   1.191   3.271
 2092TIP3    H1 6219   5.298   1.104   3.269
 2092TIP3    H2 6220   5.417   1.170   3.330
 2093TIP3   OH2 6221   5.389   0.869   3.845
 2093TIP3    H1 6222   5.317   0.878   3.910
 2093TIP3    H2 6223   5.431   0.957   3.850
 2094TIP3   OH2 6224   5.206   0.382   2.461
 2094TIP3    H1 6225   5.273   0.448   2.434
 2094TIP3    H2 6226   5.249   0.344   2.541
 2095TIP3   OH2 6227   5.331   0.253   2.665
 2095TIP3    H1 6228   5.265   0.214   2.727
 2095TIP3    H2 6229   5.396   0.293   2.727
 2096TIP3   OH2 6230   5.388   0.644   3.099
 2096TIP3    H1 6231   5.443   0.577   3.053
 2096TIP3    H2 6232   5.383   0.715   3.032
 2097TIP3   OH2 6233   5.217   0.942   3.293
 2097TIP3    H1 6234   5.146   0.983   3.346
 2097TIP3    H2 6235   5.166   0.895   3.223
 2098TIP3   OH2 6236   5.264   0.156   2.314
 2098TIP3    H1 6237   5.194   0.165   2.245
 2098TIP3    H2 6238   5.239   0.233   2.370
 2099TIP3   OH2 6239   5.136  -0.183   2.257
 2099TIP3    H1 6240   5.110  -0.107   2.203
 2099TIP3    H2 6241   5.087  -0.255   2.214
 2100TIP3   OH2 6242   5.144   0.120   2.811
 2100TIP3    H1 6243   5.147   0.024   2.791
 2100TIP3    H2 6244   5.131   0.121   2.909
 2101TIP3   OH2 6245   3.770   0.189   3.559
 2101TIP3    H1 6246   3.769   0.155   3.467
 2101TIP3    H2 6247   3.867   0.186   3.578
 2102TIP3   OH2 6248   5.436   0.532   3.670
 2102TIP3    H1 6249   5.507   0.465   3.660
 2102TIP3    H2 6250   5.463   0.601   3.606
 2103TIP3   OH2 6251   5.617   0.333   3.685
 2103TIP3    H1 6252   5.543   0.278   3.721
 2103TIP3    H2 6253   5.692   0.272   3.704
 2104TIP3   OH2 6254   5.145  -0.132   2.680
 2104TIP3    H1 6255   5.172  -0.210   2.733
 2104TIP3    H2 6256   5.210  -0.132   2.607
 2105TIP3   OH2 6257   5.299   0.001   3.210
 2105TIP3    H1 6258   5.384   0.025   3.167
 2105TIP3    H2 6259   5.315   0.035   3.300
 2106TIP3   OH2 6260   5.368   0.145   3.440
 2106TIP3    H1 6261   5.290   0.178   3.488
 2106TIP3    H2 6262   5.401   0.226   3.395
 2107TIP3   OH2 6263   3.986  -0.136   4.235
 2107TIP3    H1 6264   4.078  -0.160   4.225
 2107TIP3    H2 6265   3.949  -0.215   4.278
 2108TIP3   OH2 6266   3.747  -0.169   3.635
 2108TIP3    H1 6267   3.797  -0.164   3.551
 2108TIP3    H2 6268   3.782  -0.094   3.683
 2109TIP3   OH2 6269   4.893   1.043   2.644
 2109TIP3    H1 6270   4.947   1.029   2.564
 2109TIP3    H2 6271   4.949   1.103   2.695
 2110TIP3   OH2 6272   3.997   0.845   4.028
 2110TIP3    H1 6273   3.904   0.818   4.014
 2110TIP3    H2 6274   4.009   0.823   4.122
 2111TIP3   OH2 6275   4.177   0.877   3.577
 2111TIP3    H1 6276   4.129   0.954   3.540
 2111TIP3    H2 6277   4.263   0.891   3.533
 2112TIP3   OH2 6278   4.618   1.121   3.714
 2112TIP3    H1 6279   4.660   1.119   3.803
 2112TIP3    H2 6280   4.685   1.172   3.664
 2113TIP3   OH2 6281   4.799   1.274   3.575
 2113TIP3    H1 6282   4.870   1.221   3.537
 2113TIP3    H2 6283   4.850   1.332   3.636
 2114TIP3   OH2 6284   3.853   1.133   3.602
 2114TIP3    H1 6285   3.761   1.164   3.581
 2114TIP3    H2 6286   3.867   1.178   3.687
 2115TIP3   OH2 6287   4.088   1.113   3.460
 2115TIP3    H1 6288   4.001   1.124   3.506
 2115TIP3    H2 6289   4.066   1.144   3.370
 2116TIP3   OH2 6290   4.514   1.140   3.257
 2116TIP3    H1 6291   4.442   1.160   3.196
 2116TIP3    H2 6292   4.527   1.225   3.304
 2117TIP3   OH2 6293   4.783   1.078   3.309
 2117TIP3    H1 6294   4.690   1.096   3.290
 2117TIP3    H2 6295   4.828   1.154   3.269
 2118TIP3   OH2 6296   4.987   1.269   3.223
 2118TIP3    H1 6297   4.976   1.354   3.175
 2118TIP3    H2 6298   5.015   1.209   3.151
 2119TIP3   OH2 6299   3.763   0.925   3.345
 2119TIP3    H1 6300   3.789   0.899   3.436
 2119TIP3    H2 6301   3.837   0.882   3.295
 2120TIP3   OH2 6302   3.960   0.798   3.205
 2120TIP3    H1 6303   3.974   0.714   3.253
 2120TIP3    H2 6304   4.051   0.834   3.203
 2121TIP3   OH2 6305   4.228   0.892   3.209
 2121TIP3    H1 6306   4.256   0.799   3.199
 2121TIP3    H2 6307   4.274   0.913   3.293
 2122TIP3   OH2 6308   3.550   0.702   2.736
 2122TIP3    H1 6309   3.464   0.670   2.702
 2122TIP3    H2 6310   3.542   0.796   2.711
 2123TIP3   OH2 6311   4.325   0.884   2.321
 2123TIP3    H1 6312   4.413   0.906   2.283
 2123TIP3    H2 6313   4.302   0.810   2.260
 2124TIP3   OH2 6314   5.043   1.006   2.414
 2124TIP3    H1 6315   5.036   0.908   2.403
 2124TIP3    H2 6316   4.999   1.037   2.333
 2125TIP3   OH2 6317   3.628   0.721   2.375
 2125TIP3    H1 6318   3.632   0.744   2.468
 2125TIP3    H2 6319   3.716   0.677   2.360
 2126TIP3   OH2 6320   5.268   1.149   3.599
 2126TIP3    H1 6321   5.189   1.118   3.551
 2126TIP3    H2 6322   5.248   1.244   3.606
 2127TIP3   OH2 6323   6.528   0.520   2.374
 2127TIP3    H1 6324   6.503   0.612   2.353
 2127TIP3    H2 6325   6.454   0.473   2.334
 2128TIP3   OH2 6326   6.535   0.522   2.750
 2128TIP3    H1 6327   6.568   0.497   2.838
 2128TIP3    H2 6328   6.491   0.441   2.721
 2129TIP3   OH2 6329   5.831   0.415   3.111
 2129TIP3    H1 6330   5.862   0.345   3.171
 2129TIP3    H2 6331   5.910   0.471   3.107
 2130TIP3   OH2 6332   6.779   0.824   2.433
 2130TIP3    H1 6333   6.764   0.758   2.502
 2130TIP3    H2 6334   6.809   0.901   2.485
 2131TIP3   OH2 6335   5.806   0.826   2.834
 2131TIP3    H1 6336   5.797   0.729   2.836
 2131TIP3    H2 6337   5.903   0.835   2.831
 2132TIP3   OH2 6338   5.502   0.040   2.629
 2132TIP3    H1 6339   5.450   0.121   2.645
 2132TIP3    H2 6340   5.437  -0.014   2.582
 2133TIP3   OH2 6341   5.564   0.327   2.793
 2133TIP3    H1 6342   5.606   0.245   2.828
 2133TIP3    H2 6343   5.633   0.362   2.736
 2134TIP3   OH2 6344   6.429   1.287   2.448
 2134TIP3    H1 6345   6.472   1.215   2.395
 2134TIP3    H2 6346   6.422   1.246   2.535
 2135TIP3   OH2 6347   6.332   0.748   2.795
 2135TIP3    H1 6348   6.372   0.672   2.750
 2135TIP3    H2 6349   6.414   0.795   2.821
 2136TIP3   OH2 6350   6.747   0.245   2.838
 2136TIP3    H1 6351   6.769   0.157   2.870
 2136TIP3    H2 6352   6.716   0.228   2.747
 2137TIP3   OH2 6353   6.073  -0.131   2.761
 2137TIP3    H1 6354   6.046  -0.041   2.735
 2137TIP3    H2 6355   5.992  -0.181   2.747
 2138TIP3   OH2 6356   3.532   6.590   8.971
 2138TIP3    H1 6357   3.580   6.527   9.030
 2138TIP3    H2 6358   3.532   6.543   8.886
 2139TIP3   OH2 6359   5.696   0.111   2.890
 2139TIP3    H1 6360   5.787   0.113   2.926
 2139TIP3    H2 6361   5.711   0.049   2.816
 2140TIP3   OH2 6362   6.157   0.313   2.696
 2140TIP3    H1 6363   6.250   0.286   2.711
 2140TIP3    H2 6364   6.115   0.227   2.675
 2141TIP3   OH2 6365   7.378   0.256   2.992
 2141TIP3    H1 6366   7.305   0.314   2.962
 2141TIP3    H2 6367   7.442   0.319   3.027
 2142TIP3   OH2 6368   6.417   0.737   2.240
 2142TIP3    H1 6369   6.389   0.729   2.148
 2142TIP3    H2 6370   6.377   0.823   2.264
 2143TIP3   OH2 6371   6.187   0.667   3.020
 2143TIP3    H1 6372   6.125   0.734   3.057
 2143TIP3    H2 6373   6.229   0.717   2.947
 2144TIP3   OH2 6374   5.952   0.075   2.956
 2144TIP3    H1 6375   6.019   0.121   3.010
 2144TIP3    H2 6376   5.979  -0.017   2.972
 2145TIP3   OH2 6377   6.016   0.863   3.118
 2145TIP3    H1 6378   5.990   0.951   3.083
 2145TIP3    H2 6379   5.937   0.845   3.174
 2146TIP3   OH2 6380   5.407   0.553   2.356
 2146TIP3    H1 6381   5.367   0.579   2.271
 2146TIP3    H2 6382   5.438   0.640   2.391
 2147TIP3   OH2 6383   6.848   1.068   2.594
 2147TIP3    H1 6384   6.758   1.060   2.634
 2147TIP3    H2 6385   6.840   1.154   2.549
 2148TIP3   OH2 6386   6.545   1.114   2.266
 2148TIP3    H1 6387   6.596   1.031   2.247
 2148TIP3    H2 6388   6.607   1.180   2.227
 2149TIP3   OH2 6389   6.690   0.899   2.183
 2149TIP3    H1 6390   6.670   0.816   2.136
 2149TIP3    H2 6391   6.727   0.865   2.267
 2150TIP3   OH2 6392   7.075   0.979   2.940
 2150TIP3    H1 6393   7.061   0.902   2.881
 2150TIP3    H2 6394   7.055   1.054   2.880
 2151TIP3   OH2 6395   6.362   0.374   2.197
 2151TIP3    H1 6396   6.287   0.432   2.173
 2151TIP3    H2 6397   6.410   0.365   2.113
 2152TIP3   OH2 6398   7.261   0.610   2.778
 2152TIP3    H1 6399   7.182   0.667   2.784
 2152TIP3    H2 6400   7.299   0.641   2.693
 2153TIP3   OH2 6401   6.706   0.451   2.178
 2153TIP3    H1 6402   6.660   0.479   2.261
 2153TIP3    H2 6403   6.796   0.432   2.211
 2154TIP3   OH2 6404   6.944   0.496   3.085
 2154TIP3    H1 6405   6.941   0.578   3.137
 2154TIP3    H2 6406   6.857   0.500   3.041
 2155TIP3   OH2 6407   5.946   0.451   2.584
 2155TIP3    H1 6408   5.911   0.391   2.515
 2155TIP3    H2 6409   6.024   0.401   2.617
 2156TIP3   OH2 6410   6.076   0.867   2.732
 2156TIP3    H1 6411   6.057   0.828   2.646
 2156TIP3    H2 6412   6.165   0.831   2.751
 2157TIP3   OH2 6413   6.084   0.422   2.945
 2157TIP3    H1 6414   6.115   0.398   2.856
 2157TIP3    H2 6415   6.127   0.509   2.961
 2158TIP3   OH2 6416   6.608   1.063   2.717
 2158TIP3    H1 6417   6.594   1.143   2.770
 2158TIP3    H2 6418   6.592   0.990   2.781
 2159TIP3   OH2 6419   6.220   0.981   3.264
 2159TIP3    H1 6420   6.160   1.043   3.311
 2159TIP3    H2 6421   6.155   0.928   3.214
 2160TIP3   OH2 6422   6.564   0.294   2.007
 2160TIP3    H1 6423   6.623   0.349   2.063
 2160TIP3    H2 6424   6.596   0.318   1.919
 2161TIP3   OH2 6425   5.967   0.546   3.361
 2161TIP3    H1 6426   5.972   0.631   3.409
 2161TIP3    H2 6427   5.873   0.522   3.377
 2162TIP3   OH2 6428   6.299   0.991   2.271
 2162TIP3    H1 6429   6.381   1.043   2.280
 2162TIP3    H2 6430   6.239   1.053   2.228
 2163TIP3   OH2 6431   6.014   1.147   3.351
 2163TIP3    H1 6432   5.979   1.148   3.260
 2163TIP3    H2 6433   5.934   1.126   3.404
 2164TIP3   OH2 6434   5.818   0.293   2.373
 2164TIP3    H1 6435   5.745   0.341   2.328
 2164TIP3    H2 6436   5.771   0.219   2.412
 2165TIP3   OH2 6437   6.806   0.937   1.647
 2165TIP3    H1 6438   6.843   1.024   1.621
 2165TIP3    H2 6439   6.880   0.877   1.630
 2166TIP3   OH2 6440   5.593   0.680   3.298
 2166TIP3    H1 6441   5.526   0.658   3.230
 2166TIP3    H2 6442   5.630   0.592   3.320
 2167TIP3   OH2 6443   5.448   0.875   2.926
 2167TIP3    H1 6444   5.544   0.867   2.920
 2167TIP3    H2 6445   5.439   0.950   2.986
 2168TIP3   OH2 6446   7.317   1.330   2.990
 2168TIP3    H1 6447   7.314   1.233   3.003
 2168TIP3    H2 6448   7.232   1.354   3.033
 2169TIP3   OH2 6449   6.417   1.110   3.121
 2169TIP3    H1 6450   6.414   1.203   3.153
 2169TIP3    H2 6451   6.346   1.070   3.175
 2170TIP3   OH2 6452   6.179   1.237   2.076
 2170TIP3    H1 6453   6.137   1.218   1.990
 2170TIP3    H2 6454   6.146   1.326   2.098
 2171TIP3   OH2 6455   5.616   1.087   2.458
 2171TIP3    H1 6456   5.663   1.079   2.544
 2171TIP3    H2 6457   5.564   1.005   2.457
 2172TIP3   OH2 6458   6.375   1.146   1.716
 2172TIP3    H1 6459   6.431   1.073   1.683
 2172TIP3    H2 6460   6.410   1.156   1.808
 2173TIP3   OH2 6461   6.431   1.191   1.983
 2173TIP3    H1 6462   6.343   1.198   2.027
 2173TIP3    H2 6463   6.485   1.152   2.055
 2174TIP3   OH2 6464   7.197   0.438   3.266
 2174TIP3    H1 6465   7.120   0.477   3.222
 2174TIP3    H2 6466   7.180   0.344   3.252
 2175TIP3   OH2 6467   5.798   0.863   3.282
 2175TIP3    H1 6468   5.847   0.848   3.366
 2175TIP3    H2 6469   5.724   0.800   3.291
 2176TIP3   OH2 6470   6.984   0.242   3.208
 2176TIP3    H1 6471   6.940   0.265   3.290
 2176TIP3    H2 6472   6.957   0.314   3.149
 2177TIP3   OH2 6473   6.146   0.207   3.105
 2177TIP3    H1 6474   6.085   0.224   3.180
 2177TIP3    H2 6475   6.130   0.286   3.049
 2178TIP3   OH2 6476   6.011   0.094   2.611
 2178TIP3    H1 6477   5.918   0.068   2.625
 2178TIP3    H2 6478   6.026   0.061   2.519
 2179TIP3   OH2 6479   6.504   0.181   2.321
 2179TIP3    H1 6480   6.442   0.250   2.289
 2179TIP3    H2 6481   6.575   0.191   2.256
 2180TIP3   OH2 6482   6.685   0.478   3.403
 2180TIP3    H1 6483   6.659   0.398   3.454
 2180TIP3    H2 6484   6.779   0.485   3.429
 2181TIP3   OH2 6485   6.656   0.213   2.581
 2181TIP3    H1 6486   6.594   0.247   2.513
 2181TIP3    H2 6487   6.705   0.147   2.527
 2182TIP3   OH2 6488   5.948   0.235   3.297
 2182TIP3    H1 6489   5.962   0.297   3.370
 2182TIP3    H2 6490   5.921   0.154   3.343
 2183TIP3   OH2 6491   5.576  -0.163   2.429
 2183TIP3    H1 6492   5.589  -0.153   2.333
 2183TIP3    H2 6493   5.482  -0.136   2.436
 2184TIP3   OH2 6494   6.667   0.452   2.990
 2184TIP3    H1 6495   6.702   0.380   2.933
 2184TIP3    H2 6496   6.643   0.398   3.069
 2185TIP3   OH2 6497   5.762  -0.032   2.653
 2185TIP3    H1 6498   5.669  -0.001   2.638
 2185TIP3    H2 6499   5.756  -0.119   2.611
 2186TIP3   OH2 6500   6.048  -0.014   2.360
 2186TIP3    H1 6501   6.132  -0.047   2.323
 2186TIP3    H2 6502   5.990  -0.027   2.284
 2187TIP3   OH2 6503   5.857  -0.045   2.137
 2187TIP3    H1 6504   5.759  -0.052   2.137
 2187TIP3    H2 6505   5.871   0.026   2.074
 2188TIP3   OH2 6506   7.005   1.674   3.087
 2188TIP3    H1 6507   7.002   1.699   2.992
 2188TIP3    H2 6508   7.084   1.724   3.117
 2189TIP3   OH2 6509   5.958   0.787   3.506
 2189TIP3    H1 6510   6.039   0.816   3.554
 2189TIP3    H2 6511   5.894   0.786   3.580
 2190TIP3   OH2 6512   6.416   0.236   2.756
 2190TIP3    H1 6513   6.501   0.203   2.724
 2190TIP3    H2 6514   6.418   0.208   2.851
 2191TIP3   OH2 6515   6.419   0.172   3.021
 2191TIP3    H1 6516   6.330   0.164   3.060
 2191TIP3    H2 6517   6.470   0.212   3.094
 2192TIP3   OH2 6518   6.133   0.523   2.146
 2192TIP3    H1 6519   6.054   0.467   2.135
 2192TIP3    H2 6520   6.117   0.559   2.237
 2193TIP3   OH2 6521   7.034   0.763   2.774
 2193TIP3    H1 6522   7.058   0.813   2.693
 2193TIP3    H2 6523   6.948   0.722   2.748
 2194TIP3   OH2 6524   6.534   0.845   3.143
 2194TIP3    H1 6525   6.561   0.825   3.234
 2194TIP3    H2 6526   6.496   0.934   3.151
 2195TIP3   OH2 6527   5.829   0.547   2.820
 2195TIP3    H1 6528   5.870   0.518   2.736
 2195TIP3    H2 6529   5.870   0.488   2.885
 2196TIP3   OH2 6530   6.287   0.679   1.983
 2196TIP3    H1 6531   6.238   0.765   1.986
 2196TIP3    H2 6532   6.231   0.625   2.044
 2197TIP3   OH2 6533   5.710   0.466   3.436
 2197TIP3    H1 6534   5.727   0.451   3.531
 2197TIP3    H2 6535   5.639   0.402   3.418
 2198TIP3   OH2 6536   6.435   0.588   3.459
 2198TIP3    H1 6537   6.373   0.532   3.409
 2198TIP3    H2 6538   6.521   0.558   3.424
 2199TIP3   OH2 6539   6.694   1.103   3.041
 2199TIP3    H1 6540   6.598   1.103   3.053
 2199TIP3    H2 6541   6.723   1.156   3.118
 2200TIP3   OH2 6542   7.326   1.039   3.026
 2200TIP3    H1 6543   7.228   1.030   3.016
 2200TIP3    H2 6544   7.355   1.010   2.937
 2201TIP3   OH2 6545   6.787   1.009   1.911
 2201TIP3    H1 6546   6.783   0.943   1.981
 2201TIP3    H2 6547   6.791   0.956   1.829
 2202TIP3   OH2 6548   6.800   0.628   2.690
 2202TIP3    H1 6549   6.707   0.602   2.705
 2202TIP3    H2 6550   6.835   0.547   2.648
 2203TIP3   OH2 6551   5.931   0.853   2.446
 2203TIP3    H1 6552   5.930   0.934   2.392
 2203TIP3    H2 6553   5.836   0.838   2.460
 2204TIP3   OH2 6554   5.494   0.160   2.163
 2204TIP3    H1 6555   5.536   0.247   2.181
 2204TIP3    H2 6556   5.414   0.166   2.220
 2205TIP3   OH2 6557   6.060   0.616   2.387
 2205TIP3    H1 6558   6.029   0.706   2.406
 2205TIP3    H2 6559   6.028   0.568   2.466
 2206TIP3   OH2 6560   6.200   1.195   2.915
 2206TIP3    H1 6561   6.242   1.268   2.865
 2206TIP3    H2 6562   6.276   1.160   2.964
 2207TIP3   OH2 6563   5.848   1.092   2.299
 2207TIP3    H1 6564   5.762   1.100   2.345
 2207TIP3    H2 6565   5.880   1.185   2.302
 2208TIP3   OH2 6566   6.584   0.831   2.875
 2208TIP3    H1 6567   6.574   0.830   2.973
 2208TIP3    H2 6568   6.665   0.778   2.865
 2209TIP3   OH2 6569   6.538   0.710   1.799
 2209TIP3    H1 6570   6.579   0.716   1.887
 2209TIP3    H2 6571   6.444   0.718   1.822
 2210TIP3   OH2 6572   6.835   1.362   2.924
 2210TIP3    H1 6573   6.755   1.307   2.918
 2210TIP3    H2 6574   6.819   1.427   2.852
 2211TIP3   OH2 6575   6.893   1.191   1.576
 2211TIP3    H1 6576   6.930   1.260   1.519
 2211TIP3    H2 6577   6.817   1.242   1.612
 2212TIP3   OH2 6578   6.697   0.675   2.016
 2212TIP3    H1 6579   6.694   0.595   2.072
 2212TIP3    H2 6580   6.795   0.684   2.006
 2213TIP3   OH2 6581   5.637   1.057   3.074
 2213TIP3    H1 6582   5.691   0.985   3.111
 2213TIP3    H2 6583   5.662   1.131   3.132
 2214TIP3   OH2 6584   5.924   0.714   1.759
 2214TIP3    H1 6585   5.932   0.629   1.713
 2214TIP3    H2 6586   5.904   0.686   1.851
 2215TIP3   OH2 6587   5.871   0.706   2.036
 2215TIP3    H1 6588   5.945   0.688   2.095
 2215TIP3    H2 6589   5.871   0.805   2.034
 2216TIP3   OH2 6590   5.606   0.405   2.237
 2216TIP3    H1 6591   5.539   0.451   2.292
 2216TIP3    H2 6592   5.618   0.472   2.167
 2217TIP3   OH2 6593   6.139   0.903   1.983
 2217TIP3    H1 6594   6.053   0.934   2.017
 2217TIP3    H2 6595   6.150   0.961   1.907
 2218TIP3   OH2 6596   6.384  -0.034   2.434
 2218TIP3    H1 6597   6.420   0.045   2.387
 2218TIP3    H2 6598   6.339   0.007   2.508
 2219TIP3   OH2 6599   6.611   0.290   3.203
 2219TIP3    H1 6600   6.606   0.356   3.274
 2219TIP3    H2 6601   6.653   0.216   3.249
 2220TIP3   OH2 6602   5.882   0.980   2.046
 2220TIP3    H1 6603   5.852   1.050   1.984
 2220TIP3    H2 6604   5.867   1.023   2.133
 2221TIP3   OH2 6605   6.887   0.385   2.574
 2221TIP3    H1 6606   6.811   0.327   2.590
 2221TIP3    H2 6607   6.959   0.337   2.621
 2222TIP3   OH2 6608   5.597   0.612   2.041
 2222TIP3    H1 6609   5.669   0.678   2.048
 2222TIP3    H2 6610   5.638   0.551   1.975
 2223TIP3   OH2 6611   5.589  -0.092   2.157
 2223TIP3    H1 6612   5.547  -0.003   2.159
 2223TIP3    H2 6613   5.517  -0.148   2.124
 2224TIP3   OH2 6614   6.855   1.339   2.517
 2224TIP3    H1 6615   6.813   1.386   2.442
 2224TIP3    H2 6616   6.950   1.360   2.497
 2225TIP3   OH2 6617   5.468   0.824   2.423
 2225TIP3    H1 6618   5.404   0.855   2.489
 2225TIP3    H2 6619   5.435   0.868   2.341
 2226TIP3   OH2 6620   5.630   1.372   3.496
 2226TIP3    H1 6621   5.716   1.373   3.544
 2226TIP3    H2 6622   5.610   1.277   3.496
 2227TIP3   OH2 6623   6.106   1.329   3.542
 2227TIP3    H1 6624   6.201   1.311   3.549
 2227TIP3    H2 6625   6.082   1.268   3.469
 2228TIP3   OH2 6626   6.084   0.922   1.688
 2228TIP3    H1 6627   6.032   0.842   1.716
 2228TIP3    H2 6628   6.155   0.880   1.634
 2229TIP3   OH2 6629   6.748   1.238   3.274
 2229TIP3    H1 6630   6.740   1.169   3.344
 2229TIP3    H2 6631   6.825   1.290   3.305
 2230TIP3   OH2 6632   6.540   0.966   1.591
 2230TIP3    H1 6633   6.615   0.935   1.646
 2230TIP3    H2 6634   6.587   1.023   1.529
 2231TIP3   OH2 6635   5.758   0.774   3.697
 2231TIP3    H1 6636   5.774   0.678   3.702
 2231TIP3    H2 6637   5.670   0.777   3.653
 2232TIP3   OH2 6638   5.731   0.419   1.907
 2232TIP3    H1 6639   5.795   0.395   1.977
 2232TIP3    H2 6640   5.792   0.426   1.830
 2233TIP3   OH2 6641   6.366   0.861   3.472
 2233TIP3    H1 6642   6.324   0.879   3.385
 2233TIP3    H2 6643   6.395   0.768   3.463
 2234TIP3   OH2 6644   6.252   0.639   1.710
 2234TIP3    H1 6645   6.248   0.638   1.808
 2234TIP3    H2 6646   6.199   0.563   1.684
 2235TIP3   OH2 6647   6.857   0.871   3.078
 2235TIP3    H1 6648   6.933   0.915   3.034
 2235TIP3    H2 6649   6.787   0.937   3.064
 2236TIP3   OH2 6650   5.880   0.510   3.681
 2236TIP3    H1 6651   5.960   0.459   3.660
 2236TIP3    H2 6652   5.903   0.543   3.770
 2237TIP3   OH2 6653   5.935   0.323   2.116
 2237TIP3    H1 6654   5.908   0.307   2.209
 2237TIP3    H2 6655   6.002   0.256   2.102
 2238TIP3   OH2 6656   6.214   0.424   3.341
 2238TIP3    H1 6657   6.129   0.474   3.337
 2238TIP3    H2 6658   6.258   0.449   3.257
 2239TIP3   OH2 6659   6.731   0.797   3.475
 2239TIP3    H1 6660   6.804   0.762   3.423
 2239TIP3    H2 6661   6.721   0.728   3.543
 2240TIP3   OH2 6662   6.300   0.201   3.462
 2240TIP3    H1 6663   6.250   0.140   3.404
 2240TIP3    H2 6664   6.273   0.287   3.421
 2241TIP3   OH2 6665   6.375   0.509   3.142
 2241TIP3    H1 6666   6.456   0.518   3.090
 2241TIP3    H2 6667   6.316   0.573   3.097
 2242TIP3   OH2 6668   6.939   0.471   3.507
 2242TIP3    H1 6669   6.973   0.413   3.579
 2242TIP3    H2 6670   7.016   0.526   3.487
 2243TIP3   OH2 6671   6.990   0.723   3.260
 2243TIP3    H1 6672   6.930   0.777   3.204
 2243TIP3    H2 6673   7.076   0.747   3.221
 2244TIP3   OH2 6674   6.182   0.326   3.691
 2244TIP3    H1 6675   6.135   0.251   3.730
 2244TIP3    H2 6676   6.238   0.283   3.624
 2245TIP3   OH2 6677   6.578   0.252   3.498
 2245TIP3    H1 6678   6.600   0.226   3.589
 2245TIP3    H2 6679   6.482   0.241   3.498
 2246TIP3   OH2 6680   5.851   1.186   1.861
 2246TIP3    H1 6681   5.947   1.180   1.846
 2246TIP3    H2 6682   5.826   1.234   1.780
 2247TIP3   OH2 6683   5.330   0.570   2.082
 2247TIP3    H1 6684   5.424   0.592   2.064
 2247TIP3    H2 6685   5.322   0.483   2.038
 2248TIP3   OH2 6686   5.247   1.178   2.492
 2248TIP3    H1 6687   5.181   1.115   2.454
 2248TIP3    H2 6688   5.292   1.119   2.556
 2249TIP3   OH2 6689   5.382   1.025   2.677
 2249TIP3    H1 6690   5.371   0.954   2.743
 2249TIP3    H2 6691   5.434   1.088   2.729
 2250TIP3   OH2 6692   7.109   1.428   2.477
 2250TIP3    H1 6693   7.139   1.466   2.562
 2250TIP3    H2 6694   7.176   1.460   2.415
 2251TIP3   OH2 6695   7.136   1.451   2.761
 2251TIP3    H1 6696   7.093   1.363   2.755
 2251TIP3    H2 6697   7.216   1.427   2.810
 2252TIP3   OH2 6698   7.186   1.124   3.333
 2252TIP3    H1 6699   7.113   1.134   3.397
 2252TIP3    H2 6700   7.226   1.213   3.335
 2253TIP3   OH2 6701   6.963   0.688   1.989
 2253TIP3    H1 6702   7.026   0.760   1.968
 2253TIP3    H2 6703   7.022   0.630   2.042
 2254TIP3   OH2 6704   7.118   0.527   2.154
 2254TIP3    H1 6705   7.054   0.467   2.198
 2254TIP3    H2 6706   7.184   0.541   2.222
 2255TIP3   OH2 6707   7.186   0.899   2.587
 2255TIP3    H1 6708   7.228   0.838   2.524
 2255TIP3    H2 6709   7.179   0.980   2.532
 2256TIP3   OH2 6710   7.013   1.197   2.781
 2256TIP3    H1 6711   6.942   1.242   2.832
 2256TIP3    H2 6712   6.962   1.152   2.711
 2257TIP3   OH2 6713   6.943   0.370   2.305
 2257TIP3    H1 6714   6.956   0.274   2.305
 2257TIP3    H2 6715   6.926   0.388   2.400
 2258TIP3   OH2 6716   5.567   0.440   3.048
 2258TIP3    H1 6717   5.564   0.408   2.955
 2258TIP3    H2 6718   5.664   0.439   3.064
 2259TIP3   OH2 6719   7.234   0.790   3.156
 2259TIP3    H1 6720   7.306   0.723   3.146
 2259TIP3    H2 6721   7.260   0.858   3.092
 2260TIP3   OH2 6722   7.408   0.585   3.176
 2260TIP3    H1 6723   7.335   0.531   3.214
 2260TIP3    H2 6724   7.484   0.524   3.190
 2261TIP3   OH2 6725   7.101   0.259   2.695
 2261TIP3    H1 6726   7.185   0.285   2.652
 2261TIP3    H2 6727   7.115   0.295   2.785
 2262TIP3   OH2 6728   7.160   0.404   2.925
 2262TIP3    H1 6729   7.083   0.440   2.973
 2262TIP3    H2 6730   7.192   0.484   2.876
 2263TIP3   OH2 6731   5.780   0.120   3.732
 2263TIP3    H1 6732   5.869   0.089   3.710
 2263TIP3    H2 6733   5.744   0.043   3.780
 2264TIP3   OH2 6734   5.541   0.089   3.120
 2264TIP3    H1 6735   5.592   0.094   3.036
 2264TIP3    H2 6736   5.580   0.161   3.171
 2265TIP3   OH2 6737   6.691   1.298   2.134
 2265TIP3    H1 6738   6.745   1.287   2.052
 2265TIP3    H2 6739   6.745   1.362   2.183
 2266TIP3   OH2 6740   5.793   1.101   3.516
 2266TIP3    H1 6741   5.700   1.076   3.501
 2266TIP3    H2 6742   5.804   1.082   3.610
 2267TIP3   OH2 6743   5.974   1.134   3.065
 2267TIP3    H1 6744   5.926   1.210   3.027
 2267TIP3    H2 6745   6.060   1.147   3.019
 2268TIP3   OH2 6746   6.414   1.376   3.201
 2268TIP3    H1 6747   6.456   1.375   3.290
 2268TIP3    H2 6748   6.480   1.428   3.151
 2269TIP3   OH2 6749   6.594   1.530   3.063
 2269TIP3    H1 6750   6.665   1.479   3.021
 2269TIP3    H2 6751   6.646   1.588   3.124
 2270TIP3   OH2 6752   5.648   1.389   3.089
 2270TIP3    H1 6753   5.557   1.421   3.068
 2270TIP3    H2 6754   5.662   1.434   3.174
 2271TIP3   OH2 6755   5.884   1.368   2.948
 2271TIP3    H1 6756   5.797   1.380   2.992
 2271TIP3    H2 6757   5.865   1.401   2.858
 2272TIP3   OH2 6758   6.310   1.395   2.746
 2272TIP3    H1 6759   6.241   1.415   2.680
 2272TIP3    H2 6760   6.322   1.483   2.788
 2273TIP3   OH2 6761   6.580   1.334   2.797
 2273TIP3    H1 6762   6.486   1.352   2.778
 2273TIP3    H2 6763   6.624   1.408   2.753
 2274TIP3   OH2 6764   6.784   1.526   2.710
 2274TIP3    H1 6765   6.771   1.611   2.662
 2274TIP3    H2 6766   6.811   1.466   2.636
 2275TIP3   OH2 6767   5.559   1.182   2.833
 2275TIP3    H1 6768   5.586   1.155   2.923
 2275TIP3    H2 6769   5.632   1.140   2.782
 2276TIP3   OH2 6770   5.755   1.055   2.692
 2276TIP3    H1 6771   5.769   0.971   2.741
 2276TIP3    H2 6772   5.846   1.091   2.689
 2277TIP3   OH2 6773   6.022   1.148   2.697
 2277TIP3    H1 6774   6.052   1.055   2.687
 2277TIP3    H2 6775   6.069   1.171   2.779
 2278TIP3   OH2 6776   5.347   0.958   2.222
 2278TIP3    H1 6777   5.261   0.924   2.189
 2278TIP3    H2 6778   5.337   1.052   2.199
 2279TIP3   OH2 6779   6.118   1.156   1.812
 2279TIP3    H1 6780   6.206   1.174   1.774
 2279TIP3    H2 6781   6.095   1.077   1.756
 2280TIP3   OH2 6782   6.842   1.272   1.902
 2280TIP3    H1 6783   6.827   1.174   1.904
 2280TIP3    H2 6784   6.794   1.297   1.821
 2281TIP3   OH2 6785   5.428   0.996   1.851
 2281TIP3    H1 6786   5.427   0.999   1.948
 2281TIP3    H2 6787   5.513   0.947   1.836
 2282TIP3   OH2 6788   7.066   1.405   3.086
 2282TIP3    H1 6789   6.987   1.374   3.036
 2282TIP3    H2 6790   7.046   1.501   3.091
 2283TIP3   OH2 6791   7.583   1.057   2.365
 2283TIP3    H1 6792   7.551   0.999   2.295
 2283TIP3    H2 6793   7.677   1.066   2.339
 2284TIP3   OH2 6794   7.384   0.570   2.282
 2284TIP3    H1 6795   7.438   0.491   2.274
 2284TIP3    H2 6796   7.388   0.607   2.192
 2285TIP3   OH2 6797   7.166   0.858   1.940
 2285TIP3    H1 6798   7.211   0.809   1.868
 2285TIP3    H2 6799   7.215   0.942   1.940
 2286TIP3   OH2 6800   7.770   1.436   2.810
 2286TIP3    H1 6801   7.734   1.438   2.721
 2286TIP3    H2 6802   7.691   1.431   2.866
 2287TIP3   OH2 6803   7.394   0.944   2.780
 2287TIP3    H1 6804   7.323   0.917   2.719
 2287TIP3    H2 6805   7.426   0.859   2.816
 2288TIP3   OH2 6806   7.248   1.128   2.424
 2288TIP3    H1 6807   7.345   1.133   2.419
 2288TIP3    H2 6808   7.229   1.210   2.473
 2289TIP3   OH2 6809   7.392   1.353   1.943
 2289TIP3    H1 6810   7.463   1.354   2.009
 2289TIP3    H2 6811   7.362   1.261   1.948
 2290TIP3   OH2 6812   7.604   1.121   2.758
 2290TIP3    H1 6813   7.652   1.089   2.837
 2290TIP3    H2 6814   7.525   1.063   2.762
 2291TIP3   OH2 6815   7.740   1.019   2.973
 2291TIP3    H1 6816   7.807   1.089   2.990
 2291TIP3    H2 6817   7.692   1.020   3.058
 2292TIP3   OH2 6818   7.486   0.734   2.926
 2292TIP3    H1 6819   7.533   0.727   3.011
 2292TIP3    H2 6820   7.430   0.655   2.926
 2293TIP3   OH2 6821   7.431   1.316   2.564
 2293TIP3    H1 6822   7.490   1.248   2.602
 2293TIP3    H2 6823   7.462   1.397   2.606
 2294TIP3   OH2 6824   7.268   1.108   1.919
 2294TIP3    H1 6825   7.195   1.142   1.973
 2294TIP3    H2 6826   7.242   1.138   1.829
 2295TIP3   OH2 6827   7.423   1.623   2.984
 2295TIP3    H1 6828   7.510   1.618   3.029
 2295TIP3    H2 6829   7.396   1.530   2.984
 2296TIP3   OH2 6830   7.550   1.028   3.188
 2296TIP3    H1 6831   7.568   0.932   3.186
 2296TIP3    H2 6832   7.465   1.034   3.139
 2297TIP3   OH2 6833   7.659   0.765   3.167
 2297TIP3    H1 6834   7.734   0.710   3.144
 2297TIP3    H2 6835   7.687   0.797   3.256
 2298TIP3   OH2 6836   7.045   1.439   1.978
 2298TIP3    H1 6837   6.978   1.378   1.941
 2298TIP3    H2 6838   7.090   1.381   2.043
 2299TIP3   OH2 6839   7.168   1.284   2.167
 2299TIP3    H1 6840   7.166   1.211   2.231
 2299TIP3    H2 6841   7.227   1.346   2.214
 2300TIP3   OH2 6842   7.378   0.679   2.535
 2300TIP3    H1 6843   7.369   0.645   2.444
 2300TIP3    H2 6844   7.465   0.721   2.532
 2301TIP3   OH2 6845   7.578   0.375   3.209
 2301TIP3    H1 6846   7.673   0.359   3.215
 2301TIP3    H2 6847   7.543   0.292   3.247
 2302TIP3   OH2 6848   7.347   0.343   2.602
 2302TIP3    H1 6849   7.419   0.334   2.539
 2302TIP3    H2 6850   7.360   0.433   2.636
 2303TIP3   OH2 6851   7.594   1.353   3.012
 2303TIP3    H1 6852   7.504   1.327   2.988
 2303TIP3    H2 6853   7.595   1.332   3.107
 2304TIP3   OH2 6854   7.436   1.631   2.585
 2304TIP3    H1 6855   7.350   1.670   2.557
 2304TIP3    H2 6856   7.458   1.691   2.657
 2305TIP3   OH2 6857   7.692   1.618   2.449
 2305TIP3    H1 6858   7.601   1.625   2.482
 2305TIP3    H2 6859   7.681   1.654   2.358
 2306TIP3   OH2 6860   7.347   1.442   2.322
 2306TIP3    H1 6861   7.380   1.420   2.412
 2306TIP3    H2 6862   7.420   1.401   2.269
 2307TIP3   OH2 6863   7.536   1.307   2.183
 2307TIP3    H1 6864   7.546   1.216   2.213
 2307TIP3    H2 6865   7.628   1.327   2.154
 2308TIP3   OH2 6866   7.147   1.211   1.698
 2308TIP3    H1 6867   7.059   1.178   1.673
 2308TIP3    H2 6868   7.131   1.307   1.692
 2309TIP3   OH2 6869   7.213   1.266   1.375
 2309TIP3    H1 6870   7.200   1.278   1.471
 2309TIP3    H2 6871   7.275   1.191   1.370
 2310TIP3   OH2 6872   0.783   1.574   3.544
 2310TIP3    H1 6873   0.761   1.665   3.512
 2310TIP3    H2 6874   0.697   1.545   3.572
 2311TIP3   OH2 6875   0.781   1.567   3.928
 2311TIP3    H1 6876   0.818   1.546   4.016
 2311TIP3    H2 6877   0.747   1.480   3.901
 2312TIP3   OH2 6878   0.087   1.464   4.296
 2312TIP3    H1 6879   0.129   1.399   4.356
 2312TIP3    H2 6880   0.162   1.519   4.273
 2313TIP3   OH2 6881   1.028   1.869   3.608
 2313TIP3    H1 6882   1.016   1.802   3.676
 2313TIP3    H2 6883   1.059   1.946   3.660
 2314TIP3   OH2 6884   0.058   1.866   4.014
 2314TIP3    H1 6885   0.050   1.768   4.017
 2314TIP3    H2 6886   0.154   1.876   4.003
 2315TIP3   OH2 6887   0.676   2.330   3.624
 2315TIP3    H1 6888   0.719   2.260   3.571
 2315TIP3    H2 6889   0.673   2.290   3.712
 2316TIP3   OH2 6890   0.580   1.791   3.975
 2316TIP3    H1 6891   0.623   1.716   3.929
 2316TIP3    H2 6892   0.662   1.839   4.000
 2317TIP3   OH2 6893   1.598   1.110   3.972
 2317TIP3    H1 6894   1.625   1.195   4.012
 2317TIP3    H2 6895   1.617   1.127   3.878
 2318TIP3   OH2 6896   0.995   1.292   4.005
 2318TIP3    H1 6897   1.038   1.206   4.021
 2318TIP3    H2 6898   0.959   1.279   3.915
 2319TIP3   OH2 6899   1.021   1.053   3.609
 2319TIP3    H1 6900   1.102   1.032   3.661
 2319TIP3    H2 6901   1.059   1.071   3.522
 2320TIP3   OH2 6902   0.412   1.347   3.869
 2320TIP3    H1 6903   0.509   1.345   3.887
 2320TIP3    H2 6904   0.398   1.253   3.850
 2321TIP3   OH2 6905   1.669   1.319   4.144
 2321TIP3    H1 6906   1.586   1.367   4.124
 2321TIP3    H2 6907   1.695   1.362   4.227
 2322TIP3   OH2 6908   0.353   0.930   4.397
 2322TIP3    H1 6909   0.297   0.970   4.327
 2322TIP3    H2 6910   0.292   0.933   4.473
 2323TIP3   OH2 6911   0.656   1.782   3.417
 2323TIP3    H1 6912   0.657   1.788   3.321
 2323TIP3    H2 6913   0.618   1.869   3.442
 2324TIP3   OH2 6914   0.433   1.712   4.196
 2324TIP3    H1 6915   0.374   1.782   4.232
 2324TIP3    H2 6916   0.479   1.759   4.124
 2325TIP3   OH2 6917   1.242   1.044   3.771
 2325TIP3    H1 6918   1.222   1.004   3.856
 2325TIP3    H2 6919   1.291   1.125   3.796
 2326TIP3   OH2 6920   0.204   1.041   4.201
 2326TIP3    H1 6921   0.258   1.122   4.207
 2326TIP3    H2 6922   0.218   1.014   4.110
 2327TIP3   OH2 6923   0.263   1.909   4.296
 2327TIP3    H1 6924   0.241   1.996   4.257
 2327TIP3    H2 6925   0.184   1.895   4.352
 2328TIP3   OH2 6926   1.095   2.112   3.771
 2328TIP3    H1 6927   1.005   2.105   3.810
 2328TIP3    H2 6928   1.089   2.199   3.726
 2329TIP3   OH2 6929   1.390   1.009   4.137
 2329TIP3    H1 6930   1.302   1.036   4.104
 2329TIP3    H2 6931   1.449   1.041   4.066
 2330TIP3   OH2 6932   0.705   0.671   4.126
 2330TIP3    H1 6933   0.676   0.580   4.110
 2330TIP3    H2 6934   0.620   0.711   4.156
 2331TIP3   OH2 6935   0.793   2.158   3.444
 2331TIP3    H1 6936   0.842   2.075   3.423
 2331TIP3    H2 6937   0.856   2.223   3.406
 2332TIP3   OH2 6938   0.930   1.939   3.358
 2332TIP3    H1 6939   0.943   1.863   3.299
 2332TIP3    H2 6940   0.970   1.905   3.442
 2333TIP3   OH2 6941   1.321   2.023   4.117
 2333TIP3    H1 6942   1.311   1.947   4.056
 2333TIP3    H2 6943   1.304   2.099   4.058
 2334TIP3   OH2 6944   1.516   1.660   3.962
 2334TIP3    H1 6945   1.434   1.713   3.965
 2334TIP3    H2 6946   1.549   1.685   3.872
 2335TIP3   OH2 6947   0.959   1.501   3.347
 2335TIP3    H1 6948   0.904   1.525   3.424
 2335TIP3    H2 6949   1.043   1.475   3.390
 2336TIP3   OH2 6950   1.196   1.537   4.261
 2336TIP3    H1 6951   1.194   1.622   4.310
 2336TIP3    H2 6952   1.111   1.543   4.213
 2337TIP3   OH2 6953   0.187   1.487   3.763
 2337TIP3    H1 6954   0.170   1.447   3.676
 2337TIP3    H2 6955   0.270   1.444   3.790
 2338TIP3   OH2 6956   0.321   1.900   3.910
 2338TIP3    H1 6957   0.310   1.870   3.819
 2338TIP3    H2 6958   0.412   1.870   3.931
 2339TIP3   OH2 6959   0.322   1.476   4.111
 2339TIP3    H1 6960   0.362   1.453   4.025
 2339TIP3    H2 6961   0.370   1.559   4.135
 2340TIP3   OH2 6962   0.854   2.108   3.894
 2340TIP3    H1 6963   0.841   2.189   3.946
 2340TIP3    H2 6964   0.839   2.036   3.959
 2341TIP3   OH2 6965   0.470   2.023   4.442
 2341TIP3    H1 6966   0.410   2.088   4.486
 2341TIP3    H2 6967   0.405   1.972   4.390
 2342TIP3   OH2 6968   0.241   1.586   4.539
 2342TIP3    H1 6969   0.238   1.675   4.580
 2342TIP3    H2 6970   0.147   1.560   4.542
 2343TIP3   OH2 6971   0.544   2.042   3.442
 2343TIP3    H1 6972   0.629   2.088   3.454
 2343TIP3    H2 6973   0.487   2.114   3.412
 2344TIP3   OH2 6974   0.266   2.191   4.527
 2344TIP3    H1 6975   0.229   2.197   4.437
 2344TIP3    H2 6976   0.187   2.171   4.581
 2345TIP3   OH2 6977   1.126   1.976   2.776
 2345TIP3    H1 6978   1.130   2.072   2.757
 2345TIP3    H2 6979   1.218   1.949   2.758
 2346TIP3   OH2 6980  -0.139   1.713   4.474
 2346TIP3    H1 6981  -0.207   1.707   4.406
 2346TIP3    H2 6982  -0.123   1.619   4.494
 2347TIP3   OH2 6983  -0.293   1.935   4.092
 2347TIP3    H1 6984  -0.203   1.902   4.079
 2347TIP3    H2 6985  -0.278   2.000   4.162
 2348TIP3   OH2 6986   1.560   2.371   4.166
 2348TIP3    H1 6987   1.558   2.274   4.179
 2348TIP3    H2 6988   1.476   2.397   4.210
 2349TIP3   OH2 6989   0.666   2.154   4.298
 2349TIP3    H1 6990   0.664   2.247   4.329
 2349TIP3    H2 6991   0.596   2.114   4.353
 2350TIP3   OH2 6992   0.428   2.278   3.260
 2350TIP3    H1 6993   0.392   2.262   3.171
 2350TIP3    H2 6994   0.398   2.368   3.280
 2351TIP3   OH2 6995  -0.138   2.143   3.628
 2351TIP3    H1 6996  -0.100   2.116   3.714
 2351TIP3    H2 6997  -0.188   2.062   3.601
 2352TIP3   OH2 6998   0.631   2.175   2.896
 2352TIP3    H1 6999   0.693   2.109   2.857
 2352TIP3    H2 7000   0.669   2.189   2.985
 2353TIP3   OH2 7001   0.681   2.236   3.164
 2353TIP3    H1 7002   0.593   2.243   3.206
 2353TIP3    H2 7003   0.734   2.199   3.236
 2354TIP3   OH2 7004   1.447   1.497   4.442
 2354TIP3    H1 7005   1.368   1.511   4.387
 2354TIP3    H2 7006   1.462   1.401   4.429
 2355TIP3   OH2 7007   0.046   1.913   4.465
 2355TIP3    H1 7008   0.100   1.894   4.544
 2355TIP3    H2 7009  -0.023   1.843   4.471
 2356TIP3   OH2 7010   0.453   0.746   4.213
 2356TIP3    H1 7011   0.370   0.695   4.204
 2356TIP3    H2 7012   0.427   0.813   4.280
 2357TIP3   OH2 7013   1.015   0.851   4.430
 2357TIP3    H1 7014   1.079   0.819   4.497
 2357TIP3    H2 7015   0.928   0.834   4.472
 2358TIP3   OH2 7016   1.215   1.274   4.358
 2358TIP3    H1 7017   1.167   1.274   4.444
 2358TIP3    H2 7018   1.195   1.362   4.322
 2359TIP3   OH2 7019   0.377   1.250   4.254
 2359TIP3    H1 7020   0.332   1.270   4.339
 2359TIP3    H2 7021   0.360   1.333   4.204
 2360TIP3   OH2 7022   0.769   1.249   3.496
 2360TIP3    H1 7023   0.690   1.286   3.456
 2360TIP3    H2 7024   0.832   1.254   3.423
 2361TIP3   OH2 7025   0.926   1.494   4.592
 2361TIP3    H1 7026   0.905   1.421   4.654
 2361TIP3    H2 7027   1.020   1.509   4.614
 2362TIP3   OH2 7028   0.905   1.254   3.748
 2362TIP3    H1 7029   0.853   1.282   3.670
 2362TIP3    H2 7030   0.943   1.171   3.709
 2363TIP3   OH2 7031   0.206   1.285   4.467
 2363TIP3    H1 7032   0.235   1.350   4.533
 2363TIP3    H2 7033   0.174   1.212   4.521
 2364TIP3   OH2 7034   0.915   1.491   4.167
 2364TIP3    H1 7035   0.950   1.420   4.108
 2364TIP3    H2 7036   0.886   1.437   4.244
 2365TIP3   OH2 7037   0.581   0.987   3.862
 2365TIP3    H1 7038   0.523   0.916   3.891
 2365TIP3    H2 7039   0.668   0.955   3.891
 2366TIP3   OH2 7040   1.082   1.030   4.047
 2366TIP3    H1 7041   1.043   1.044   4.136
 2366TIP3    H2 7042   1.015   0.971   4.007
 2367TIP3   OH2 7043   1.253   2.719   4.263
 2367TIP3    H1 7044   1.250   2.744   4.169
 2367TIP3    H2 7045   1.333   2.768   4.294
 2368TIP3   OH2 7046   0.208   1.828   4.682
 2368TIP3    H1 7047   0.290   1.858   4.727
 2368TIP3    H2 7048   0.144   1.837   4.756
 2369TIP3   OH2 7049   0.675   1.295   3.938
 2369TIP3    H1 7050   0.736   1.247   3.880
 2369TIP3    H2 7051   0.678   1.240   4.019
 2370TIP3   OH2 7052   0.648   1.183   4.230
 2370TIP3    H1 7053   0.559   1.221   4.239
 2370TIP3    H2 7054   0.706   1.247   4.276
 2371TIP3   OH2 7055   1.284   1.806   3.950
 2371TIP3    H1 7056   1.310   1.857   3.870
 2371TIP3    H2 7057   1.199   1.766   3.923
 2372TIP3   OH2 7058   0.776   1.885   4.324
 2372TIP3    H1 7059   0.816   1.877   4.411
 2372TIP3    H2 7060   0.745   1.977   4.323
 2373TIP3   OH2 7061   0.070   1.584   4.001
 2373TIP3    H1 7062   0.100   1.557   3.911
 2373TIP3    H2 7063   0.132   1.533   4.056
 2374TIP3   OH2 7064   0.515   1.712   3.148
 2374TIP3    H1 7065   0.488   1.807   3.140
 2374TIP3    H2 7066   0.472   1.689   3.231
 2375TIP3   OH2 7067  -0.001   1.470   4.621
 2375TIP3    H1 7068   0.032   1.500   4.708
 2375TIP3    H2 7069  -0.098   1.474   4.637
 2376TIP3   OH2 7070   0.686   1.628   4.634
 2376TIP3    H1 7071   0.627   1.571   4.582
 2376TIP3    H2 7072   0.773   1.595   4.605
 2377TIP3   OH2 7073   0.942   2.141   4.223
 2377TIP3    H1 7074   0.845   2.148   4.232
 2377TIP3    H2 7075   0.971   2.198   4.297
 2378TIP3   OH2 7076   1.353   1.217   3.106
 2378TIP3    H1 7077   1.268   1.177   3.083
 2378TIP3    H2 7078   1.341   1.307   3.069
 2379TIP3   OH2 7079   1.572   2.079   4.206
 2379TIP3    H1 7080   1.474   2.074   4.196
 2379TIP3    H2 7081   1.599   2.050   4.116
 2380TIP3   OH2 7082   1.056   2.040   3.038
 2380TIP3    H1 7083   1.023   1.965   3.088
 2380TIP3    H2 7084   1.070   2.002   2.949
 2381TIP3   OH2 7085   1.049   1.670   3.868
 2381TIP3    H1 7086   0.956   1.645   3.880
 2381TIP3    H2 7087   1.084   1.589   3.824
 2382TIP3   OH2 7088   0.175   1.897   3.625
 2382TIP3    H1 7089   0.175   1.988   3.588
 2382TIP3    H2 7090   0.088   1.897   3.668
 2383TIP3   OH2 7091   0.338   1.668   3.607
 2383TIP3    H1 7092   0.299   1.756   3.595
 2383TIP3    H2 7093   0.274   1.625   3.664
 2384TIP3   OH2 7094   0.449   2.239   4.092
 2384TIP3    H1 7095   0.488   2.313   4.041
 2384TIP3    H2 7096   0.527   2.206   4.139
 2385TIP3   OH2 7097   0.117   2.139   3.518
 2385TIP3    H1 7098   0.023   2.153   3.537
 2385TIP3    H2 7099   0.144   2.230   3.494
 2386TIP3   OH2 7100   0.832   1.875   4.054
 2386TIP3    H1 7101   0.823   1.872   4.152
 2386TIP3    H2 7102   0.914   1.827   4.040
 2387TIP3   OH2 7103   0.828   1.788   2.952
 2387TIP3    H1 7104   0.870   1.764   3.037
 2387TIP3    H2 7105   0.740   1.751   2.962
 2388TIP3   OH2 7106   1.083   2.407   4.100
 2388TIP3    H1 7107   1.001   2.355   4.090
 2388TIP3    H2 7108   1.071   2.473   4.029
 2389TIP3   OH2 7109   1.151   2.249   2.754
 2389TIP3    H1 7110   1.190   2.323   2.704
 2389TIP3    H2 7111   1.070   2.294   2.787
 2390TIP3   OH2 7112   0.976   1.725   3.179
 2390TIP3    H1 7113   0.957   1.642   3.228
 2390TIP3    H2 7114   1.066   1.705   3.148
 2391TIP3   OH2 7115  -0.120   2.099   4.255
 2391TIP3    H1 7116  -0.054   2.039   4.293
 2391TIP3    H2 7117  -0.095   2.183   4.297
 2392TIP3   OH2 7118   1.004   1.095   4.306
 2392TIP3    H1 7119   1.090   1.134   4.330
 2392TIP3    H2 7120   1.006   1.009   4.354
 2393TIP3   OH2 7121   0.400   1.955   3.149
 2393TIP3    H1 7122   0.350   1.979   3.228
 2393TIP3    H2 7123   0.399   2.038   3.099
 2394TIP3   OH2 7124   0.842   1.329   4.376
 2394TIP3    H1 7125   0.872   1.380   4.454
 2394TIP3    H2 7126   0.899   1.249   4.379
 2395TIP3   OH2 7127   1.483   1.231   4.363
 2395TIP3    H1 7128   1.385   1.227   4.364
 2395TIP3    H2 7129   1.500   1.200   4.273
 2396TIP3   OH2 7130   1.135   1.427   3.748
 2396TIP3    H1 7131   1.059   1.367   3.757
 2396TIP3    H2 7132   1.206   1.378   3.794
 2397TIP3   OH2 7133   1.105   2.383   3.694
 2397TIP3    H1 7134   1.062   2.430   3.619
 2397TIP3    H2 7135   1.199   2.403   3.674
 2398TIP3   OH2 7136  -0.096   2.429   4.647
 2398TIP3    H1 7137  -0.020   2.436   4.708
 2398TIP3    H2 7138  -0.139   2.349   4.679
 2399TIP3   OH2 7139   0.354   2.372   4.723
 2399TIP3    H1 7140   0.450   2.363   4.727
 2399TIP3    H2 7141   0.333   2.313   4.648
 2400TIP3   OH2 7142   0.995   2.283   4.453
 2400TIP3    H1 7143   0.990   2.213   4.522
 2400TIP3    H2 7144   1.073   2.335   4.482
 2401TIP3   OH2 7145   0.785   1.990   2.758
 2401TIP3    H1 7146   0.816   1.921   2.820
 2401TIP3    H2 7147   0.854   1.990   2.690
 2402TIP3   OH2 7148   0.003   1.811   4.872
 2402TIP3    H1 7149   0.033   1.718   4.867
 2402TIP3    H2 7150  -0.092   1.803   4.858
 2403TIP3   OH2 7151   0.613   1.904   4.649
 2403TIP3    H1 7152   0.575   1.926   4.561
 2403TIP3    H2 7153   0.646   1.813   4.636
 2404TIP3   OH2 7154   1.106   1.916   4.255
 2404TIP3    H1 7155   1.183   1.956   4.211
 2404TIP3    H2 7156   1.039   1.986   4.241
 2405TIP3   OH2 7157   0.109   1.554   4.862
 2405TIP3    H1 7158   0.181   1.490   4.850
 2405TIP3    H2 7159   0.126   1.578   4.955
 2406TIP3   OH2 7160   0.466   1.433   4.515
 2406TIP3    H1 7161   0.393   1.498   4.519
 2406TIP3    H2 7162   0.518   1.467   4.438
 2407TIP3   OH2 7163   0.976   1.837   4.650
 2407TIP3    H1 7164   1.056   1.814   4.602
 2407TIP3    H2 7165   0.975   1.772   4.723
 2408TIP3   OH2 7166   0.587   1.220   4.635
 2408TIP3    H1 7167   0.595   1.146   4.571
 2408TIP3    H2 7168   0.547   1.290   4.580
 2409TIP3   OH2 7169   0.606   1.018   4.448
 2409TIP3    H1 7170   0.629   1.061   4.363
 2409TIP3    H2 7171   0.516   0.983   4.429
 2410TIP3   OH2 7172   0.613   1.546   4.322
 2410TIP3    H1 7173   0.699   1.560   4.281
 2410TIP3    H2 7174   0.558   1.615   4.278
 2411TIP3   OH2 7175   1.197   1.515   4.705
 2411TIP3    H1 7176   1.246   1.432   4.703
 2411TIP3    H2 7177   1.262   1.577   4.667
 2412TIP3   OH2 7178   1.235   1.767   4.440
 2412TIP3    H1 7179   1.178   1.823   4.382
 2412TIP3    H2 7180   1.323   1.789   4.401
 2413TIP3   OH2 7181   0.492   1.328   4.871
 2413TIP3    H1 7182   0.398   1.320   4.892
 2413TIP3    H2 7183   0.501   1.293   4.781
 2414TIP3   OH2 7184   0.759   0.799   4.503
 2414TIP3    H1 7185   0.710   0.881   4.481
 2414TIP3    H2 7186   0.686   0.734   4.500
 2415TIP3   OH2 7187   0.845   1.275   4.734
 2415TIP3    H1 7188   0.827   1.268   4.830
 2415TIP3    H2 7189   0.756   1.253   4.699
 2416TIP3   OH2 7190   1.087   1.234   4.592
 2416TIP3    H1 7191   1.010   1.232   4.652
 2416TIP3    H2 7192   1.159   1.201   4.649
 2417TIP3   OH2 7193   1.314   1.171   4.743
 2417TIP3    H1 7194   1.327   1.075   4.759
 2417TIP3    H2 7195   1.310   1.207   4.834
 2418TIP3   OH2 7196   0.800   0.766   4.770
 2418TIP3    H1 7197   0.878   0.707   4.768
 2418TIP3    H2 7198   0.787   0.780   4.674
 2419TIP3   OH2 7199   0.876   0.992   4.920
 2419TIP3    H1 7200   0.846   0.924   4.856
 2419TIP3    H2 7201   0.805   1.059   4.914
 2420TIP3   OH2 7202  -0.399   2.091   3.868
 2420TIP3    H1 7203  -0.378   2.012   3.920
 2420TIP3    H2 7204  -0.337   2.154   3.907
 2421TIP3   OH2 7205   1.359   2.472   3.654
 2421TIP3    H1 7206   1.386   2.508   3.740
 2421TIP3    H2 7207   1.422   2.514   3.593
 2422TIP3   OH2 7208   1.385   2.494   3.938
 2422TIP3    H1 7209   1.344   2.405   3.932
 2422TIP3    H2 7210   1.464   2.473   3.989
 2423TIP3   OH2 7211   1.435   2.169   4.510
 2423TIP3    H1 7212   1.362   2.180   4.574
 2423TIP3    H2 7213   1.477   2.257   4.512
 2424TIP3   OH2 7214   1.255   1.680   3.123
 2424TIP3    H1 7215   1.320   1.748   3.096
 2424TIP3    H2 7216   1.297   1.644   3.204
 2425TIP3   OH2 7217   1.379   1.546   3.329
 2425TIP3    H1 7218   1.312   1.507   3.389
 2425TIP3    H2 7219   1.444   1.586   3.392
 2426TIP3   OH2 7220   1.433   1.943   3.763
 2426TIP3    H1 7221   1.486   1.878   3.713
 2426TIP3    H2 7222   1.430   2.019   3.700
 2427TIP3   OH2 7223   1.262   2.241   3.959
 2427TIP3    H1 7224   1.190   2.286   4.008
 2427TIP3    H2 7225   1.212   2.196   3.887
 2428TIP3   OH2 7226   1.297   1.454   2.974
 2428TIP3    H1 7227   1.212   1.461   2.927
 2428TIP3    H2 7228   1.287   1.532   3.033
 2429TIP3   OH2 7229   1.190   1.409   3.477
 2429TIP3    H1 7230   1.185   1.312   3.466
 2429TIP3    H2 7231   1.177   1.421   3.573
 2430TIP3   OH2 7232  -0.175   1.468   4.238
 2430TIP3    H1 7233  -0.177   1.496   4.146
 2430TIP3    H2 7234  -0.079   1.474   4.257
 2431TIP3   OH2 7235   1.480   1.833   4.335
 2431TIP3    H1 7236   1.552   1.767   4.324
 2431TIP3    H2 7237   1.505   1.903   4.273
 2432TIP3   OH2 7238   1.661   1.633   4.347
 2432TIP3    H1 7239   1.587   1.583   4.389
 2432TIP3    H2 7240   1.735   1.572   4.363
 2433TIP3   OH2 7241   1.185   1.143   3.392
 2433TIP3    H1 7242   1.227   1.060   3.424
 2433TIP3    H2 7243   1.242   1.164   3.318
 2434TIP3   OH2 7244   1.348   1.295   3.868
 2434TIP3    H1 7245   1.433   1.320   3.825
 2434TIP3    H2 7246   1.363   1.334   3.956
 2435TIP3   OH2 7247   1.420   1.442   4.100
 2435TIP3    H1 7248   1.341   1.477   4.146
 2435TIP3    H2 7249   1.452   1.522   4.052
 2436TIP3   OH2 7250   1.871   1.036   4.655
 2436TIP3    H1 7251   1.929   0.970   4.612
 2436TIP3    H2 7252   1.839   1.087   4.578
 2437TIP3   OH2 7253   1.307   0.913   3.448
 2437TIP3    H1 7254   1.340   0.864   3.526
 2437TIP3    H2 7255   1.275   0.844   3.388
 2438TIP3   OH2 7256   1.736   1.169   4.462
 2438TIP3    H1 7257   1.649   1.212   4.473
 2438TIP3    H2 7258   1.710   1.097   4.401
 2439TIP3   OH2 7259   0.942   2.339   3.311
 2439TIP3    H1 7260   0.992   2.328   3.228
 2439TIP3    H2 7261   0.993   2.408   3.356
 2440TIP3   OH2 7262   0.053   2.135   4.699
 2440TIP3    H1 7263  -0.028   2.086   4.681
 2440TIP3    H2 7264   0.055   2.142   4.795
 2441TIP3   OH2 7265   0.222   2.178   4.240
 2441TIP3    H1 7266   0.175   2.255   4.203
 2441TIP3    H2 7267   0.308   2.192   4.195
 2442TIP3   OH2 7268   0.662   2.420   4.377
 2442TIP3    H1 7269   0.704   2.421   4.466
 2442TIP3    H2 7270   0.728   2.472   4.326
 2443TIP3   OH2 7271   0.843   2.574   4.240
 2443TIP3    H1 7272   0.914   2.526   4.196
 2443TIP3    H2 7273   0.894   2.632   4.301
 2444TIP3   OH2 7274   1.638   0.935   4.339
 2444TIP3    H1 7275   1.550   0.929   4.299
 2444TIP3    H2 7276   1.671   0.842   4.327
 2445TIP3   OH2 7277  -0.106   2.427   4.270
 2445TIP3    H1 7278  -0.197   2.458   4.248
 2445TIP3    H2 7279  -0.090   2.477   4.351
 2446TIP3   OH2 7280   0.132   2.411   4.126
 2446TIP3    H1 7281   0.044   2.424   4.169
 2446TIP3    H2 7282   0.114   2.445   4.036
 2447TIP3   OH2 7283   0.557   2.438   3.924
 2447TIP3    H1 7284   0.491   2.458   3.856
 2447TIP3    H2 7285   0.571   2.527   3.965
 2448TIP3   OH2 7286   0.828   2.378   3.975
 2448TIP3    H1 7287   0.734   2.397   3.955
 2448TIP3    H2 7288   0.873   2.451   3.930
 2449TIP3   OH2 7289   1.031   2.569   3.886
 2449TIP3    H1 7290   1.019   2.655   3.840
 2449TIP3    H2 7291   1.059   2.511   3.812
 2450TIP3   OH2 7292  -0.192   2.227   4.001
 2450TIP3    H1 7293  -0.174   2.204   4.094
 2450TIP3    H2 7294  -0.120   2.177   3.956
 2451TIP3   OH2 7295   0.002   2.090   3.864
 2451TIP3    H1 7296   0.021   2.011   3.920
 2451TIP3    H2 7297   0.090   2.134   3.861
 2452TIP3   OH2 7298   0.266   2.193   3.876
 2452TIP3    H1 7299   0.302   2.104   3.860
 2452TIP3    H2 7300   0.315   2.217   3.957
 2453TIP3   OH2 7301   0.845   0.859   3.958
 2453TIP3    H1 7302   0.805   0.789   4.013
 2453TIP3    H2 7303   0.914   0.811   3.909
 2454TIP3   OH2 7304   1.366   0.735   3.877
 2454TIP3    H1 7305   1.408   0.780   3.801
 2454TIP3    H2 7306   1.271   0.749   3.858
 2455TIP3   OH2 7307   1.481   0.822   3.645
 2455TIP3    H1 7308   1.551   0.776   3.595
 2455TIP3    H2 7309   1.504   0.915   3.625
 2456TIP3   OH2 7310   1.081   0.736   3.838
 2456TIP3    H1 7311   1.089   0.702   3.748
 2456TIP3    H2 7312   1.072   0.652   3.889
 2457TIP3   OH2 7313   0.377   2.190   3.000
 2457TIP3    H1 7314   0.462   2.193   2.951
 2457TIP3    H2 7315   0.314   2.162   2.931
 2458TIP3   OH2 7316   1.087   2.308   3.078
 2458TIP3    H1 7317   1.080   2.210   3.066
 2458TIP3    H2 7318   1.042   2.340   2.998
 2459TIP3   OH2 7319   1.378   0.900   4.773
 2459TIP3    H1 7320   1.398   0.868   4.863
 2459TIP3    H2 7321   1.467   0.896   4.731
 2460TIP3   OH2 7322   1.310   2.449   4.265
 2460TIP3    H1 7323   1.233   2.420   4.213
 2460TIP3    H2 7324   1.294   2.546   4.268
 2461TIP3   OH2 7325   2.581   1.821   3.024
 2461TIP3    H1 7326   2.558   1.914   3.008
 2461TIP3    H2 7327   2.494   1.779   3.014
 2462TIP3   OH2 7328   2.509   1.817   3.425
 2462TIP3    H1 7329   2.593   1.858   3.450
 2462TIP3    H2 7330   2.534   1.730   3.393
 2463TIP3   OH2 7331   1.877   1.718   3.780
 2463TIP3    H1 7332   1.910   1.651   3.842
 2463TIP3    H2 7333   1.957   1.770   3.764
 2464TIP3   OH2 7334   2.821   2.128   3.097
 2464TIP3    H1 7335   2.783   2.072   3.166
 2464TIP3    H2 7336   2.851   2.204   3.149
 2465TIP3   OH2 7337   1.851   2.125   3.498
 2465TIP3    H1 7338   1.843   2.028   3.501
 2465TIP3    H2 7339   1.948   2.135   3.493
 2466TIP3   OH2 7340   1.559   1.331   3.280
 2466TIP3    H1 7341   1.512   1.414   3.300
 2466TIP3    H2 7342   1.486   1.276   3.249
 2467TIP3   OH2 7343   1.614   1.618   3.460
 2467TIP3    H1 7344   1.665   1.541   3.495
 2467TIP3    H2 7345   1.681   1.663   3.406
 2468TIP3   OH2 7346   2.475   2.585   3.109
 2468TIP3    H1 7347   2.519   2.513   3.061
 2468TIP3    H2 7348   2.470   2.549   3.199
 2469TIP3   OH2 7349   2.380   2.052   3.468
 2469TIP3    H1 7350   2.410   1.963   3.440
 2469TIP3    H2 7351   2.468   2.093   3.476
 2470TIP3   OH2 7352   3.395   1.368   3.460
 2470TIP3    H1 7353   3.421   1.452   3.504
 2470TIP3    H2 7354   3.408   1.392   3.366
 2471TIP3   OH2 7355   2.785   1.545   3.486
 2471TIP3    H1 7356   2.831   1.462   3.510
 2471TIP3    H2 7357   2.754   1.524   3.396
 2472TIP3   OH2 7358   2.129   1.207   3.456
 2472TIP3    H1 7359   2.110   1.281   3.395
 2472TIP3    H2 7360   2.079   1.135   3.412
 2473TIP3   OH2 7361   2.825   1.298   3.078
 2473TIP3    H1 7362   2.895   1.286   3.146
 2473TIP3    H2 7363   2.877   1.339   3.007
 2474TIP3   OH2 7364   1.761   1.411   3.564
 2474TIP3    H1 7365   1.845   1.393   3.612
 2474TIP3    H2 7366   1.776   1.356   3.484
 2475TIP3   OH2 7367   2.202   1.607   3.356
 2475TIP3    H1 7368   2.296   1.583   3.369
 2475TIP3    H2 7369   2.164   1.523   3.326
 2476TIP3   OH2 7370   3.463   1.578   3.629
 2476TIP3    H1 7371   3.380   1.626   3.611
 2476TIP3    H2 7372   3.487   1.613   3.716
 2477TIP3   OH2 7373   2.124   1.193   3.891
 2477TIP3    H1 7374   2.067   1.231   3.822
 2477TIP3    H2 7375   2.071   1.214   3.971
 2478TIP3   OH2 7376   2.474   2.047   2.892
 2478TIP3    H1 7377   2.428   2.033   2.808
 2478TIP3    H2 7378   2.429   2.128   2.924
 2479TIP3   OH2 7379   2.229   1.967   3.684
 2479TIP3    H1 7380   2.172   2.039   3.720
 2479TIP3    H2 7381   2.280   2.016   3.616
 2480TIP3   OH2 7382   3.029   1.303   3.258
 2480TIP3    H1 7383   3.004   1.272   3.346
 2480TIP3    H2 7384   3.079   1.384   3.280
 2481TIP3   OH2 7385   1.997   1.307   3.674
 2481TIP3    H1 7386   2.057   1.382   3.697
 2481TIP3    H2 7387   2.047   1.267   3.600
 2482TIP3   OH2 7388   2.060   2.165   3.782
 2482TIP3    H1 7389   2.038   2.254   3.746
 2482TIP3    H2 7390   1.980   2.152   3.838
 2483TIP3   OH2 7391   1.453   1.855   3.020
 2483TIP3    H1 7392   1.411   1.883   2.936
 2483TIP3    H2 7393   1.483   1.941   3.056
 2484TIP3   OH2 7394   2.891   2.370   3.255
 2484TIP3    H1 7395   2.803   2.359   3.297
 2484TIP3    H2 7396   2.881   2.459   3.215
 2485TIP3   OH2 7397   3.186   1.263   3.620
 2485TIP3    H1 7398   3.099   1.297   3.592
 2485TIP3    H2 7399   3.246   1.299   3.551
 2486TIP3   OH2 7400   2.480   0.910   3.607
 2486TIP3    H1 7401   2.463   0.816   3.624
 2486TIP3    H2 7402   2.403   0.951   3.653
 2487TIP3   OH2 7403   2.592   2.412   2.927
 2487TIP3    H1 7404   2.646   2.332   2.909
 2487TIP3    H2 7405   2.653   2.480   2.889
 2488TIP3   OH2 7406   2.740   2.195   2.841
 2488TIP3    H1 7407   2.682   2.120   2.821
 2488TIP3    H2 7408   2.780   2.166   2.926
 2489TIP3   OH2 7409   3.121   2.282   3.604
 2489TIP3    H1 7410   3.103   2.203   3.549
 2489TIP3    H2 7411   3.098   2.355   3.543
 2490TIP3   OH2 7412   2.401   1.662   2.854
 2490TIP3    H1 7413   2.325   1.722   2.840
 2490TIP3    H2 7414   2.457   1.682   2.778
 2491TIP3   OH2 7415   2.374   1.453   2.577
 2491TIP3    H1 7416   2.428   1.508   2.637
 2491TIP3    H2 7417   2.445   1.405   2.530
 2492TIP3   OH2 7418   3.311   1.920   3.448
 2492TIP3    H1 7419   3.225   1.969   3.452
 2492TIP3    H2 7420   3.341   1.946   3.358
 2493TIP3   OH2 7421   2.758   1.754   2.829
 2493TIP3    H1 7422   2.704   1.779   2.908
 2493TIP3    H2 7423   2.843   1.731   2.872
 2494TIP3   OH2 7424   2.998   1.796   3.748
 2494TIP3    H1 7425   2.990   1.883   3.791
 2494TIP3    H2 7426   2.907   1.791   3.707
 2495TIP3   OH2 7427   1.991   1.752   3.249
 2495TIP3    H1 7428   1.956   1.693   3.179
 2495TIP3    H2 7429   2.069   1.702   3.281
 2496TIP3   OH2 7430   2.121   2.162   3.399
 2496TIP3    H1 7431   2.110   2.125   3.311
 2496TIP3    H2 7432   2.212   2.133   3.422
 2497TIP3   OH2 7433   2.121   1.730   3.600
 2497TIP3    H1 7434   2.161   1.706   3.514
 2497TIP3    H2 7435   2.168   1.813   3.623
 2498TIP3   OH2 7436   2.647   2.370   3.373
 2498TIP3    H1 7437   2.646   2.434   3.446
 2498TIP3    H2 7438   2.661   2.284   3.419
 2499TIP3   OH2 7439   2.263   2.293   3.927
 2499TIP3    H1 7440   2.200   2.352   3.973
 2499TIP3    H2 7441   2.203   2.233   3.880
 2500TIP3   OH2 7442   2.599   1.615   2.658
 2500TIP3    H1 7443   2.658   1.675   2.709
 2500TIP3    H2 7444   2.625   1.638   2.565
 2501TIP3   OH2 7445   2.021   1.833   4.038
 2501TIP3    H1 7446   2.027   1.924   4.073
 2501TIP3    H2 7447   1.925   1.818   4.042
 2502TIP3   OH2 7448   2.344   2.291   2.931
 2502TIP3    H1 7449   2.424   2.344   2.945
 2502TIP3    H2 7450   2.282   2.357   2.896
 2503TIP3   OH2 7451   2.055   2.453   4.014
 2503TIP3    H1 7452   2.023   2.453   3.922
 2503TIP3    H2 7453   1.974   2.429   4.065
 2504TIP3   OH2 7454   3.115   0.856   2.708
 2504TIP3    H1 7455   3.033   0.878   2.757
 2504TIP3    H2 7456   3.129   0.938   2.657
 2505TIP3   OH2 7457   1.863   1.594   3.038
 2505TIP3    H1 7458   1.791   1.643   2.992
 2505TIP3    H2 7459   1.816   1.517   3.071
 2506TIP3   OH2 7460   2.913   2.221   2.254
 2506TIP3    H1 7461   2.920   2.319   2.242
 2506TIP3    H2 7462   3.006   2.194   2.242
 2507TIP3   OH2 7463   1.636   1.983   3.962
 2507TIP3    H1 7464   1.571   1.962   3.892
 2507TIP3    H2 7465   1.674   1.895   3.983
 2508TIP3   OH2 7466   1.493   2.172   3.597
 2508TIP3    H1 7467   1.589   2.169   3.584
 2508TIP3    H2 7468   1.484   2.253   3.650
 2509TIP3   OH2 7469   3.357   2.628   3.651
 2509TIP3    H1 7470   3.355   2.532   3.668
 2509TIP3    H2 7471   3.274   2.655   3.697
 2510TIP3   OH2 7472   2.455   2.416   3.771
 2510TIP3    H1 7473   2.455   2.505   3.812
 2510TIP3    H2 7474   2.397   2.367   3.833
 2511TIP3   OH2 7475   2.225   2.544   2.736
 2511TIP3    H1 7476   2.177   2.526   2.654
 2511TIP3    H2 7477   2.189   2.631   2.763
 2512TIP3   OH2 7478   1.661   2.389   3.122
 2512TIP3    H1 7479   1.710   2.381   3.207
 2512TIP3    H2 7480   1.605   2.310   3.125
 2513TIP3   OH2 7481   2.425   2.443   2.375
 2513TIP3    H1 7482   2.483   2.372   2.340
 2513TIP3    H2 7483   2.458   2.454   2.466
 2514TIP3   OH2 7484   2.475   2.490   2.644
 2514TIP3    H1 7485   2.387   2.502   2.686
 2514TIP3    H2 7486   2.527   2.456   2.719
 2515TIP3   OH2 7487   3.247   1.757   3.926
 2515TIP3    H1 7488   3.164   1.772   3.878
 2515TIP3    H2 7489   3.259   1.661   3.915
 2516TIP3   OH2 7490   1.842   2.165   3.947
 2516TIP3    H1 7491   1.892   2.148   4.030
 2516TIP3    H2 7492   1.767   2.102   3.956
 2517TIP3   OH2 7493   2.242   0.987   3.736
 2517TIP3    H1 7494   2.152   0.957   3.710
 2517TIP3    H2 7495   2.218   1.070   3.781
 2518TIP3   OH2 7496   2.777   1.099   3.929
 2518TIP3    H1 7497   2.846   1.075   3.995
 2518TIP3    H2 7498   2.694   1.082   3.977
 2519TIP3   OH2 7499   3.011   1.533   3.844
 2519TIP3    H1 7500   2.963   1.531   3.930
 2519TIP3    H2 7501   2.989   1.621   3.809
 2520TIP3   OH2 7502   2.670   1.655   2.401
 2520TIP3    H1 7503   2.641   1.636   2.310
 2520TIP3    H2 7504   2.752   1.704   2.383
 2521TIP3   OH2 7505   2.397   1.023   2.718
 2521TIP3    H1 7506   2.347   1.064   2.792
 2521TIP3    H2 7507   2.439   0.952   2.769
 2522TIP3   OH2 7508   2.170   1.505   3.748
 2522TIP3    H1 7509   2.126   1.529   3.832
 2522TIP3    H2 7510   2.156   1.587   3.696
 2523TIP3   OH2 7511   2.056   1.388   3.268
 2523TIP3    H1 7512   1.964   1.362   3.288
 2523TIP3    H2 7513   2.069   1.345   3.181
 2524TIP3   OH2 7514   2.545   1.471   2.989
 2524TIP3    H1 7515   2.492   1.543   2.948
 2524TIP3    H2 7516   2.606   1.448   2.917
 2525TIP3   OH2 7517   2.725   1.750   4.077
 2525TIP3    H1 7518   2.702   1.679   4.140
 2525TIP3    H2 7519   2.818   1.766   4.100
 2526TIP3   OH2 7520   2.688   1.494   3.238
 2526TIP3    H1 7521   2.637   1.533   3.164
 2526TIP3    H2 7522   2.731   1.420   3.190
 2527TIP3   OH2 7523   1.992   1.534   3.962
 2527TIP3    H1 7524   2.027   1.600   4.024
 2527TIP3    H2 7525   1.984   1.454   4.017
 2528TIP3   OH2 7526   2.041   0.982   2.691
 2528TIP3    H1 7527   2.032   0.988   2.789
 2528TIP3    H2 7528   1.968   1.043   2.664
 2529TIP3   OH2 7529   1.588   1.051   3.547
 2529TIP3    H1 7530   1.663   1.086   3.600
 2529TIP3    H2 7531   1.628   1.025   3.463
 2530TIP3   OH2 7532   1.583   1.060   3.070
 2530TIP3    H1 7533   1.621   1.081   2.984
 2530TIP3    H2 7534   1.512   1.126   3.079
 2531TIP3   OH2 7535   2.740   1.735   3.675
 2531TIP3    H1 7536   2.752   1.673   3.601
 2531TIP3    H2 7537   2.687   1.682   3.737
 2532TIP3   OH2 7538   2.383   1.199   3.323
 2532TIP3    H1 7539   2.303   1.204   3.378
 2532TIP3    H2 7540   2.452   1.224   3.387
 2533TIP3   OH2 7541   1.819   1.268   3.335
 2533TIP3    H1 7542   1.725   1.276   3.306
 2533TIP3    H2 7543   1.841   1.175   3.312
 2534TIP3   OH2 7544   2.090   1.261   3.031
 2534TIP3    H1 7545   2.183   1.286   3.013
 2534TIP3    H2 7546   2.042   1.291   2.950
 2535TIP3   OH2 7547   2.879   1.283   3.524
 2535TIP3    H1 7548   2.851   1.297   3.617
 2535TIP3    H2 7549   2.805   1.227   3.493
 2536TIP3   OH2 7550   1.938   1.303   2.812
 2536TIP3    H1 7551   1.857   1.263   2.779
 2536TIP3    H2 7552   1.984   1.329   2.730
 2537TIP3   OH2 7553   3.045   2.974   3.751
 2537TIP3    H1 7554   3.044   2.998   3.656
 2537TIP3    H2 7555   3.127   3.019   3.781
 2538TIP3   OH2 7556   2.002   2.083   4.170
 2538TIP3    H1 7557   2.083   2.116   4.213
 2538TIP3    H2 7558   1.939   2.089   4.244
 2539TIP3   OH2 7559   2.460   1.509   3.414
 2539TIP3    H1 7560   2.545   1.492   3.369
 2539TIP3    H2 7561   2.481   1.491   3.507
 2540TIP3   OH2 7562   1.985   1.025   3.306
 2540TIP3    H1 7563   1.947   0.949   3.355
 2540TIP3    H2 7564   2.034   0.979   3.236
 2541TIP3   OH2 7565   2.442   1.434   3.725
 2541TIP3    H1 7566   2.355   1.476   3.731
 2541TIP3    H2 7567   2.501   1.497   3.772
 2542TIP3   OH2 7568   2.181   1.824   2.809
 2542TIP3    H1 7569   2.106   1.763   2.797
 2542TIP3    H2 7570   2.161   1.861   2.899
 2543TIP3   OH2 7571   3.072   2.062   3.442
 2543TIP3    H1 7572   3.089   2.113   3.360
 2543TIP3    H2 7573   2.974   2.058   3.445
 2544TIP3   OH2 7574   2.649   1.147   2.669
 2544TIP3    H1 7575   2.553   1.149   2.685
 2544TIP3    H2 7576   2.676   1.239   2.695
 2545TIP3   OH2 7577   2.530   2.132   3.875
 2545TIP3    H1 7578   2.618   2.133   3.913
 2545TIP3    H2 7579   2.538   2.193   3.801
 2546TIP3   OH2 7580   2.714   1.389   2.771
 2546TIP3    H1 7581   2.809   1.399   2.793
 2546TIP3    H2 7582   2.694   1.472   2.724
 2547TIP3   OH2 7583   1.869   1.841   3.483
 2547TIP3    H1 7584   1.910   1.820   3.397
 2547TIP3    H2 7585   1.926   1.793   3.544
 2548TIP3   OH2 7586   2.324   1.976   2.630
 2548TIP3    H1 7587   2.277   2.062   2.635
 2548TIP3    H2 7588   2.270   1.923   2.693
 2549TIP3   OH2 7589   1.753   1.771   4.101
 2549TIP3    H1 7590   1.774   1.756   4.195
 2549TIP3    H2 7591   1.685   1.703   4.084
 2550TIP3   OH2 7592   2.483   1.878   4.126
 2550TIP3    H1 7593   2.425   1.837   4.060
 2550TIP3    H2 7594   2.571   1.852   4.092
 2551TIP3   OH2 7595   2.732   2.453   3.684
 2551TIP3    H1 7596   2.642   2.421   3.701
 2551TIP3    H2 7597   2.761   2.476   3.775
 2552TIP3   OH2 7598   3.149   1.480   2.612
 2552TIP3    H1 7599   3.086   1.436   2.550
 2552TIP3    H2 7600   3.146   1.570   2.573
 2553TIP3   OH2 7601   3.370   2.335   3.693
 2553TIP3    H1 7602   3.272   2.331   3.683
 2553TIP3    H2 7603   3.396   2.307   3.602
 2554TIP3   OH2 7604   2.853   2.298   2.522
 2554TIP3    H1 7605   2.823   2.232   2.586
 2554TIP3    H2 7606   2.862   2.247   2.439
 2555TIP3   OH2 7607   1.975   2.153   3.105
 2555TIP3    H1 7608   1.975   2.237   3.055
 2555TIP3    H2 7609   1.881   2.143   3.124
 2556TIP3   OH2 7610   1.547   1.454   2.837
 2556TIP3    H1 7611   1.587   1.543   2.851
 2556TIP3    H2 7612   1.461   1.466   2.884
 2557TIP3   OH2 7613   2.106   1.917   3.050
 2557TIP3    H1 7614   2.073   2.008   3.068
 2557TIP3    H2 7615   2.074   1.870   3.130
 2558TIP3   OH2 7616   2.245   2.495   3.579
 2558TIP3    H1 7617   2.289   2.567   3.528
 2558TIP3    H2 7618   2.321   2.459   3.629
 2559TIP3   OH2 7619   1.894   2.392   2.963
 2559TIP3    H1 7620   1.808   2.403   3.008
 2559TIP3    H2 7621   1.928   2.485   2.966
 2560TIP3   OH2 7622   2.608   2.023   2.420
 2560TIP3    H1 7623   2.661   1.997   2.499
 2560TIP3    H2 7624   2.519   2.002   2.451
 2561TIP3   OH2 7625   2.887   2.664   3.590
 2561TIP3    H1 7626   2.813   2.600   3.601
 2561TIP3    H2 7627   2.854   2.721   3.517
 2562TIP3   OH2 7628   2.944   2.498   2.240
 2562TIP3    H1 7629   2.981   2.572   2.189
 2562TIP3    H2 7630   2.865   2.542   2.276
 2563TIP3   OH2 7631   1.964   1.275   4.107
 2563TIP3    H1 7632   1.867   1.278   4.117
 2563TIP3    H2 7633   1.991   1.216   4.179
 2564TIP3   OH2 7634   2.768   1.947   2.629
 2564TIP3    H1 7635   2.759   1.888   2.707
 2564TIP3    H2 7636   2.865   1.953   2.622
 2565TIP3   OH2 7637   1.681   2.360   3.739
 2565TIP3    H1 7638   1.737   2.289   3.774
 2565TIP3    H2 7639   1.712   2.436   3.789
 2566TIP3   OH2 7640   1.976   2.007   2.423
 2566TIP3    H1 7641   1.981   1.915   2.395
 2566TIP3    H2 7642   1.955   1.997   2.518
 2567TIP3   OH2 7643   1.918   2.009   2.695
 2567TIP3    H1 7644   1.988   1.989   2.758
 2567TIP3    H2 7645   1.916   2.108   2.699
 2568TIP3   OH2 7646   1.651   1.705   2.899
 2568TIP3    H1 7647   1.585   1.752   2.955
 2568TIP3    H2 7648   1.664   1.773   2.829
 2569TIP3   OH2 7649   2.812   1.332   3.783
 2569TIP3    H1 7650   2.884   1.380   3.827
 2569TIP3    H2 7651   2.796   1.256   3.842
 2570TIP3   OH2 7652   2.684   1.092   2.955
 2570TIP3    H1 7653   2.682   1.121   2.863
 2570TIP3    H2 7654   2.727   1.169   3.000
 2571TIP3   OH2 7655   2.183   2.206   2.639
 2571TIP3    H1 7656   2.096   2.231   2.677
 2571TIP3    H2 7657   2.201   2.285   2.586
 2572TIP3   OH2 7658   2.369   1.271   3.055
 2572TIP3    H1 7659   2.434   1.344   3.039
 2572TIP3    H2 7660   2.375   1.262   3.152
 2573TIP3   OH2 7661   2.632   1.578   3.873
 2573TIP3    H1 7662   2.657   1.644   3.941
 2573TIP3    H2 7663   2.697   1.508   3.888
 2574TIP3   OH2 7664   2.515   0.993   3.160
 2574TIP3    H1 7665   2.505   1.068   3.222
 2574TIP3    H2 7666   2.579   1.032   3.095
 2575TIP3   OH2 7667   1.927   2.280   2.711
 2575TIP3    H1 7668   1.898   2.350   2.648
 2575TIP3    H2 7669   1.912   2.325   2.797
 2576TIP3   OH2 7670   2.039   1.002   2.963
 2576TIP3    H1 7671   2.036   1.094   2.998
 2576TIP3    H2 7672   2.135   0.985   2.973
 2577TIP3   OH2 7673   3.278   1.488   3.847
 2577TIP3    H1 7674   3.179   1.487   3.852
 2577TIP3    H2 7675   3.291   1.455   3.757
 2578TIP3   OH2 7676   2.942   1.658   3.212
 2578TIP3    H1 7677   2.860   1.649   3.262
 2578TIP3    H2 7678   3.009   1.627   3.276
 2579TIP3   OH2 7679   1.645   1.912   2.704
 2579TIP3    H1 7680   1.709   1.984   2.712
 2579TIP3    H2 7681   1.693   1.856   2.638
 2580TIP3   OH2 7682   1.630   1.194   2.798
 2580TIP3    H1 7683   1.613   1.286   2.827
 2580TIP3    H2 7684   1.538   1.165   2.781
 2581TIP3   OH2 7685   2.900   2.642   3.180
 2581TIP3    H1 7686   2.858   2.688   3.105
 2581TIP3    H2 7687   2.995   2.659   3.160
 2582TIP3   OH2 7688   1.978   0.908   3.710
 2582TIP3    H1 7689   1.945   0.876   3.623
 2582TIP3    H2 7690   1.965   0.828   3.766
 2583TIP3   OH2 7691   1.510   2.121   3.087
 2583TIP3    H1 7692   1.447   2.156   3.152
 2583TIP3    H2 7693   1.481   2.167   3.005
 2584TIP3   OH2 7694   1.675   2.673   4.162
 2584TIP3    H1 7695   1.761   2.674   4.209
 2584TIP3    H2 7696   1.657   2.578   4.159
 2585TIP3   OH2 7697   2.150   2.628   4.208
 2585TIP3    H1 7698   2.246   2.614   4.212
 2585TIP3    H2 7699   2.126   2.570   4.133
 2586TIP3   OH2 7700   2.136   2.208   2.329
 2586TIP3    H1 7701   2.080   2.139   2.371
 2586TIP3    H2 7702   2.211   2.155   2.298
 2587TIP3   OH2 7703   2.788   2.542   3.944
 2587TIP3    H1 7704   2.783   2.469   4.010
 2587TIP3    H2 7705   2.868   2.590   3.971
 2588TIP3   OH2 7706   2.570   2.246   2.245
 2588TIP3    H1 7707   2.614   2.183   2.305
 2588TIP3    H2 7708   2.628   2.246   2.167
 2589TIP3   OH2 7709   1.801   2.074   4.363
 2589TIP3    H1 7710   1.818   1.978   4.364
 2589TIP3    H2 7711   1.715   2.079   4.317
 2590TIP3   OH2 7712   1.788   1.727   2.565
 2590TIP3    H1 7713   1.849   1.703   2.637
 2590TIP3    H2 7714   1.851   1.733   2.490
 2591TIP3   OH2 7715   2.403   2.157   4.136
 2591TIP3    H1 7716   2.391   2.182   4.042
 2591TIP3    H2 7717   2.446   2.070   4.125
 2592TIP3   OH2 7718   2.300   1.920   2.362
 2592TIP3    H1 7719   2.298   1.937   2.459
 2592TIP3    H2 7720   2.280   1.825   2.359
 2593TIP3   OH2 7721   2.897   2.162   3.752
 2593TIP3    H1 7722   2.955   2.228   3.710
 2593TIP3    H2 7723   2.835   2.144   3.678
 2594TIP3   OH2 7724   1.920   1.805   4.348
 2594TIP3    H1 7725   2.003   1.773   4.310
 2594TIP3    H2 7726   1.950   1.841   4.434
 2595TIP3   OH2 7727   1.985   1.626   2.774
 2595TIP3    H1 7728   1.955   1.601   2.864
 2595TIP3    H2 7729   2.020   1.543   2.739
 2596TIP3   OH2 7730   2.255   1.686   3.997
 2596TIP3    H1 7731   2.183   1.753   4.003
 2596TIP3    H2 7732   2.309   1.724   3.923
 2597TIP3   OH2 7733   2.097   1.400   2.611
 2597TIP3    H1 7734   2.066   1.424   2.521
 2597TIP3    H2 7735   2.191   1.428   2.608
 2598TIP3   OH2 7736   2.773   2.094   4.139
 2598TIP3    H1 7737   2.848   2.068   4.085
 2598TIP3    H2 7738   2.773   2.027   4.210
 2599TIP3   OH2 7739   2.908   1.751   2.284
 2599TIP3    H1 7740   2.888   1.708   2.198
 2599TIP3    H2 7741   2.877   1.842   2.263
 2600TIP3   OH2 7742   2.379   1.484   4.132
 2600TIP3    H1 7743   2.383   1.406   4.073
 2600TIP3    H2 7744   2.339   1.551   4.072
 2601TIP3   OH2 7745   2.384   1.266   3.941
 2601TIP3    H1 7746   2.412   1.312   3.860
 2601TIP3    H2 7747   2.290   1.246   3.920
 2602TIP3   OH2 7748   2.411   1.804   3.811
 2602TIP3    H1 7749   2.496   1.823   3.770
 2602TIP3    H2 7750   2.354   1.872   3.769
 2603TIP3   OH2 7751   2.991   1.771   4.191
 2603TIP3    H1 7752   3.045   1.691   4.200
 2603TIP3    H2 7753   3.054   1.834   4.153
 2604TIP3   OH2 7754   3.035   2.022   3.934
 2604TIP3    H1 7755   2.976   2.077   3.876
 2604TIP3    H2 7756   3.121   2.042   3.891
 2605TIP3   OH2 7757   2.259   1.590   4.366
 2605TIP3    H1 7758   2.190   1.521   4.375
 2605TIP3    H2 7759   2.293   1.571   4.276
 2606TIP3   OH2 7760   2.515   1.030   4.008
 2606TIP3    H1 7761   2.468   1.113   3.984
 2606TIP3    H2 7762   2.444   0.963   3.995
 2607TIP3   OH2 7763   2.643   1.532   4.222
 2607TIP3    H1 7764   2.630   1.522   4.317
 2607TIP3    H2 7765   2.553   1.511   4.189
 2608TIP3   OH2 7766   2.878   1.479   4.073
 2608TIP3    H1 7767   2.804   1.486   4.136
 2608TIP3    H2 7768   2.953   1.454   4.131
 2609TIP3   OH2 7769   3.107   1.427   4.228
 2609TIP3    H1 7770   3.121   1.331   4.245
 2609TIP3    H2 7771   3.103   1.465   4.318
 2610TIP3   OH2 7772   2.094   1.370   4.419
 2610TIP3    H1 7773   2.104   1.280   4.381
 2610TIP3    H2 7774   2.134   1.358   4.507
 2611TIP3   OH2 7775   2.606   1.040   4.266
 2611TIP3    H1 7776   2.675   0.971   4.260
 2611TIP3    H2 7777   2.568   1.036   4.176
 2612TIP3   OH2 7778   2.673   1.254   4.425
 2612TIP3    H1 7779   2.652   1.184   4.359
 2612TIP3    H2 7780   2.596   1.315   4.416
 2613TIP3   OH2 7781   1.897   2.478   2.521
 2613TIP3    H1 7782   1.993   2.478   2.504
 2613TIP3    H2 7783   1.867   2.534   2.447
 2614TIP3   OH2 7784   1.378   1.870   2.741
 2614TIP3    H1 7785   1.473   1.893   2.726
 2614TIP3    H2 7786   1.373   1.782   2.698
 2615TIP3   OH2 7787   1.292   2.477   3.155
 2615TIP3    H1 7788   1.225   2.417   3.116
 2615TIP3    H2 7789   1.337   2.418   3.218
 2616TIP3   OH2 7790   1.429   2.323   3.338
 2616TIP3    H1 7791   1.415   2.255   3.406
 2616TIP3    H2 7792   1.481   2.388   3.389
 2617TIP3   OH2 7793   3.158   2.724   3.140
 2617TIP3    H1 7794   3.178   2.755   3.231
 2617TIP3    H2 7795   3.217   2.778   3.086
 2618TIP3   OH2 7796   3.184   2.749   3.420
 2618TIP3    H1 7797   3.137   2.663   3.420
 2618TIP3    H2 7798   3.256   2.727   3.483
 2619TIP3   OH2 7799   3.233   2.427   3.997
 2619TIP3    H1 7800   3.159   2.437   4.059
 2619TIP3    H2 7801   3.274   2.516   4.000
 2620TIP3   OH2 7802   3.048   1.939   2.613
 2620TIP3    H1 7803   3.114   2.006   2.585
 2620TIP3    H2 7804   3.092   1.901   2.692
 2621TIP3   OH2 7805   3.178   1.806   2.815
 2621TIP3    H1 7806   3.109   1.764   2.871
 2621TIP3    H2 7807   3.237   1.846   2.882
 2622TIP3   OH2 7808   3.232   2.202   3.254
 2622TIP3    H1 7809   3.281   2.137   3.201
 2622TIP3    H2 7810   3.219   2.275   3.191
 2623TIP3   OH2 7811   3.056   2.499   3.443
 2623TIP3    H1 7812   2.987   2.543   3.496
 2623TIP3    H2 7813   3.003   2.453   3.374
 2624TIP3   OH2 7814   3.111   1.715   2.463
 2624TIP3    H1 7815   3.039   1.718   2.397
 2624TIP3    H2 7816   3.086   1.791   2.519
 2625TIP3   OH2 7817   2.979   1.389   2.420
 2625TIP3    H1 7818   2.941   1.428   2.341
 2625TIP3    H2 7819   2.954   1.294   2.409
 2626TIP3   OH2 7820   2.989   1.661   2.949
 2626TIP3    H1 7821   2.997   1.565   2.945
 2626TIP3    H2 7822   2.975   1.674   3.047
 2627TIP3   OH2 7823   1.613   1.735   3.714
 2627TIP3    H1 7824   1.611   1.704   3.620
 2627TIP3    H2 7825   1.711   1.739   3.729
 2628TIP3   OH2 7826   3.277   2.088   3.823
 2628TIP3    H1 7827   3.349   2.024   3.808
 2628TIP3    H2 7828   3.297   2.159   3.760
 2629TIP3   OH2 7829   3.461   1.890   3.826
 2629TIP3    H1 7830   3.387   1.844   3.870
 2629TIP3    H2 7831   3.534   1.827   3.845
 2630TIP3   OH2 7832   2.925   1.121   2.414
 2630TIP3    H1 7833   3.013   1.101   2.453
 2630TIP3    H2 7834   2.873   1.046   2.444
 2631TIP3   OH2 7835   2.984   1.380   2.854
 2631TIP3    H1 7836   3.026   1.293   2.870
 2631TIP3    H2 7837   3.043   1.415   2.785
 2632TIP3   OH2 7838   3.147   1.545   3.361
 2632TIP3    H1 7839   3.231   1.573   3.318
 2632TIP3    H2 7840   3.158   1.590   3.447
 2633TIP3   OH2 7841   3.214   1.700   3.585
 2633TIP3    H1 7842   3.136   1.733   3.635
 2633TIP3    H2 7843   3.244   1.782   3.541
 2634TIP3   OH2 7844   1.827   1.419   4.382
 2634TIP3    H1 7845   1.925   1.417   4.385
 2634TIP3    H2 7846   1.805   1.334   4.424
 2635TIP3   OH2 7847   3.665   1.290   4.140
 2635TIP3    H1 7848   3.725   1.225   4.098
 2635TIP3    H2 7849   3.635   1.344   4.064
 2636TIP3   OH2 7850   3.094   1.131   2.895
 2636TIP3    H1 7851   3.142   1.116   2.979
 2636TIP3    H2 7852   3.034   1.054   2.894
 2637TIP3   OH2 7853   1.794   1.116   3.718
 2637TIP3    H1 7854   1.857   1.042   3.726
 2637TIP3    H2 7855   1.855   1.192   3.709
 2638TIP3   OH2 7856   1.594   1.389   3.790
 2638TIP3    H1 7857   1.643   1.384   3.706
 2638TIP3    H2 7858   1.620   1.476   3.821
 2639TIP3   OH2 7859   3.535   1.428   3.946
 2639TIP3    H1 7860   3.450   1.471   3.970
 2639TIP3    H2 7861   3.501   1.357   3.888
 2640TIP3   OH2 7862   3.171   1.065   2.526
 2640TIP3    H1 7863   3.212   0.993   2.473
 2640TIP3    H2 7864   3.239   1.134   2.524
 2641TIP3   OH2 7865   1.580   0.903   3.293
 2641TIP3    H1 7866   1.489   0.909   3.326
 2641TIP3    H2 7867   1.576   0.957   3.211
 2642TIP3   OH2 7868   2.739   2.596   2.796
 2642TIP3    H1 7869   2.793   2.588   2.715
 2642TIP3    H2 7870   2.786   2.664   2.846
 2643TIP3   OH2 7871   1.798   0.969   4.104
 2643TIP3    H1 7872   1.747   0.970   4.186
 2643TIP3    H2 7873   1.735   1.010   4.042
 2644TIP3   OH2 7874   1.837   2.400   4.179
 2644TIP3    H1 7875   1.743   2.376   4.165
 2644TIP3    H2 7876   1.848   2.387   4.274
 2645TIP3   OH2 7877   2.018   2.436   3.729
 2645TIP3    H1 7878   1.973   2.514   3.689
 2645TIP3    H2 7879   2.105   2.448   3.685
 2646TIP3   OH2 7880   2.457   2.681   3.868
 2646TIP3    H1 7881   2.502   2.679   3.955
 2646TIP3    H2 7882   2.523   2.730   3.814
 2647TIP3   OH2 7883   2.636   2.833   3.727
 2647TIP3    H1 7884   2.701   2.777   3.682
 2647TIP3    H2 7885   2.693   2.887   3.786
 2648TIP3   OH2 7886   3.437   1.192   3.825
 2648TIP3    H1 7887   3.346   1.186   3.790
 2648TIP3    H2 7888   3.468   1.099   3.814
 2649TIP3   OH2 7889   1.691   2.687   3.755
 2649TIP3    H1 7890   1.602   2.720   3.731
 2649TIP3    H2 7891   1.707   2.737   3.836
 2650TIP3   OH2 7892   1.928   2.669   3.611
 2650TIP3    H1 7893   1.841   2.681   3.654
 2650TIP3    H2 7894   1.910   2.702   3.521
 2651TIP3   OH2 7895   2.353   2.697   3.408
 2651TIP3    H1 7896   2.285   2.718   3.341
 2651TIP3    H2 7897   2.367   2.784   3.450
 2652TIP3   OH2 7898   2.624   2.650   3.464
 2652TIP3    H1 7899   2.530   2.657   3.440
 2652TIP3    H2 7900   2.663   2.723   3.414
 2653TIP3   OH2 7901   2.832   2.831   3.373
 2653TIP3    H1 7902   2.818   2.914   3.323
 2653TIP3    H2 7903   2.856   2.768   3.301
 2654TIP3   OH2 7904   1.603   2.482   3.495
 2654TIP3    H1 7905   1.630   2.456   3.586
 2654TIP3    H2 7906   1.677   2.441   3.445
 2655TIP3   OH2 7907   1.800   2.356   3.356
 2655TIP3    H1 7908   1.816   2.272   3.405
 2655TIP3    H2 7909   1.891   2.393   3.353
 2656TIP3   OH2 7910   2.065   2.447   3.363
 2656TIP3    H1 7911   2.098   2.356   3.353
 2656TIP3    H2 7912   2.115   2.473   3.443
 2657TIP3   OH2 7913   2.645   1.107   3.444
 2657TIP3    H1 7914   2.599   1.038   3.495
 2657TIP3    H2 7915   2.718   1.058   3.402
 2658TIP3   OH2 7916   3.160   0.980   3.346
 2658TIP3    H1 7917   3.198   1.036   3.275
 2658TIP3    H2 7918   3.067   1.010   3.346
 2659TIP3   OH2 7919   3.258   1.084   3.112
 2659TIP3    H1 7920   3.332   1.033   3.074
 2659TIP3    H2 7921   3.291   1.176   3.099
 2660TIP3   OH2 7922   1.885   0.820   3.466
 2660TIP3    H1 7923   1.797   0.782   3.451
 2660TIP3    H2 7924   1.940   0.739   3.457
 2661TIP3   OH2 7925   1.780   0.740   3.188
 2661TIP3    H1 7926   1.726   0.716   3.110
 2661TIP3    H2 7927   1.719   0.800   3.235
 2662TIP3   OH2 7928   2.335   0.846   3.338
 2662TIP3    H1 7929   2.394   0.899   3.282
 2662TIP3    H2 7930   2.349   0.886   3.425
 2663TIP3   OH2 7931   2.875   0.995   3.322
 2663TIP3    H1 7932   2.879   0.958   3.233
 2663TIP3    H2 7933   2.861   0.914   3.377
 2664TIP3   OH2 7934   2.908   0.920   2.887
 2664TIP3    H1 7935   2.824   0.963   2.908
 2664TIP3    H2 7936   2.896   0.833   2.931
 2665TIP3   OH2 7937   1.393   2.260   2.888
 2665TIP3    H1 7938   1.307   2.231   2.853
 2665TIP3    H2 7939   1.387   2.355   2.864
 2666TIP3   OH2 7940   1.796   0.871   2.889
 2666TIP3    H1 7941   1.851   0.801   2.926
 2666TIP3    H2 7942   1.828   0.946   2.941
 2667TIP3   OH2 7943   2.312   1.020   2.976
 2667TIP3    H1 7944   2.371   0.977   3.041
 2667TIP3    H2 7945   2.326   1.114   3.004
 2668TIP3   OH2 7946   2.166   2.440   2.472
 2668TIP3    H1 7947   2.252   2.466   2.435
 2668TIP3    H2 7948   2.144   2.367   2.411
 2669TIP3   OH2 7949   2.887   2.566   2.563
 2669TIP3    H1 7950   2.878   2.468   2.552
 2669TIP3    H2 7951   2.838   2.598   2.485
 2670TIP3   OH2 7952   2.095   1.091   4.351
 2670TIP3    H1 7953   2.063   1.021   4.410
 2670TIP3    H2 7954   2.190   1.094   4.377
 2671TIP3   OH2 7955   2.345   1.094   4.470
 2671TIP3    H1 7956   2.430   1.075   4.428
 2671TIP3    H2 7957   2.338   1.021   4.534
 2672TIP3   OH2 7958   1.469   2.279   2.526
 2672TIP3    H1 7959   1.472   2.309   2.618
 2672TIP3    H2 7960   1.558   2.240   2.514
 2673TIP3   OH2 7961   3.171   1.156   4.258
 2673TIP3    H1 7962   3.190   1.125   4.350
 2673TIP3    H2 7963   3.260   1.152   4.217
 2674TIP3   OH2 7964   3.111   2.708   3.748
 2674TIP3    H1 7965   3.032   2.678   3.699
 2674TIP3    H2 7966   3.090   2.803   3.757
 2675TIP3   OH2 7967   4.372   2.076   2.516
 2675TIP3    H1 7968   4.347   2.169   2.499
 2675TIP3    H2 7969   4.298   2.031   2.472
 2676TIP3   OH2 7970   4.374   2.084   2.902
 2676TIP3    H1 7971   4.410   2.061   2.990
 2676TIP3    H2 7972   4.346   1.999   2.867
 2677TIP3   OH2 7973   3.686   1.975   3.253
 2677TIP3    H1 7974   3.707   1.904   3.317
 2677TIP3    H2 7975   3.736   2.048   3.292
 2678TIP3   OH2 7976   4.621   2.382   2.583
 2678TIP3    H1 7977   4.608   2.318   2.654
 2678TIP3    H2 7978   4.649   2.461   2.631
 2679TIP3   OH2 7979   3.647   2.387   2.983
 2679TIP3    H1 7980   3.639   2.289   2.988
 2679TIP3    H2 7981   3.744   2.396   2.983
 2680TIP3   OH2 7982   3.361   1.590   2.768
 2680TIP3    H1 7983   3.310   1.671   2.787
 2680TIP3    H2 7984   3.291   1.535   2.730
 2681TIP3   OH2 7985   3.412   1.876   2.948
 2681TIP3    H1 7986   3.461   1.799   2.984
 2681TIP3    H2 7987   3.467   1.903   2.874
 2682TIP3   OH2 7988   4.270   2.845   2.596
 2682TIP3    H1 7989   4.314   2.771   2.548
 2682TIP3    H2 7990   4.260   2.808   2.685
 2683TIP3   OH2 7991   4.175   2.300   2.945
 2683TIP3    H1 7992   4.224   2.227   2.904
 2683TIP3    H2 7993   4.252   2.354   2.974
 2684TIP3   OH2 7994   5.188   1.626   2.943
 2684TIP3    H1 7995   5.217   1.708   2.989
 2684TIP3    H2 7996   5.213   1.646   2.851
 2685TIP3   OH2 7997   4.577   1.804   2.975
 2685TIP3    H1 7998   4.626   1.724   3.003
 2685TIP3    H2 7999   4.559   1.782   2.882
 2686TIP3   OH2 8000   3.893   1.482   2.924
 2686TIP3    H1 8001   3.814   1.527   2.889
 2686TIP3    H2 8002   3.874   1.393   2.886
 2687TIP3   OH2 8003   4.620   1.562   2.565
 2687TIP3    H1 8004   4.693   1.546   2.630
 2687TIP3    H2 8005   4.673   1.594   2.489
 2688TIP3   OH2 8006   3.558   1.671   3.054
 2688TIP3    H1 8007   3.639   1.650   3.105
 2688TIP3    H2 8008   3.571   1.611   2.978
 2689TIP3   OH2 8009   5.260   1.833   3.114
 2689TIP3    H1 8010   5.176   1.880   3.098
 2689TIP3    H2 8011   5.283   1.866   3.203
 2690TIP3   OH2 8012   3.921   1.447   3.379
 2690TIP3    H1 8013   3.860   1.486   3.313
 2690TIP3    H2 8014   3.870   1.464   3.461
 2691TIP3   OH2 8015   4.264   2.297   2.384
 2691TIP3    H1 8016   4.226   2.286   2.295
 2691TIP3    H2 8017   4.222   2.381   2.411
 2692TIP3   OH2 8018   4.022   2.225   3.174
 2692TIP3    H1 8019   3.961   2.293   3.211
 2692TIP3    H2 8020   4.066   2.275   3.103
 2693TIP3   OH2 8021   4.825   1.564   2.742
 2693TIP3    H1 8022   4.818   1.520   2.828
 2693TIP3    H2 8023   4.880   1.641   2.765
 2694TIP3   OH2 8024   3.792   1.565   3.165
 2694TIP3    H1 8025   3.853   1.638   3.189
 2694TIP3    H2 8026   3.839   1.528   3.087
 2695TIP3   OH2 8027   3.855   2.421   3.267
 2695TIP3    H1 8028   3.832   2.510   3.233
 2695TIP3    H2 8029   3.777   2.406   3.325
 2696TIP3   OH2 8030   3.250   2.110   2.505
 2696TIP3    H1 8031   3.207   2.137   2.422
 2696TIP3    H2 8032   3.279   2.196   2.541
 2697TIP3   OH2 8033   4.687   2.625   2.741
 2697TIP3    H1 8034   4.598   2.617   2.783
 2697TIP3    H2 8035   4.680   2.713   2.700
 2698TIP3   OH2 8036   4.982   1.521   3.107
 2698TIP3    H1 8037   4.897   1.557   3.079
 2698TIP3    H2 8038   5.044   1.556   3.038
 2699TIP3   OH2 8039   4.271   1.167   3.090
 2699TIP3    H1 8040   4.262   1.072   3.113
 2699TIP3    H2 8041   4.195   1.204   3.140
 2700TIP3   OH2 8042   4.388   2.670   2.417
 2700TIP3    H1 8043   4.440   2.588   2.397
 2700TIP3    H2 8044   4.449   2.736   2.378
 2701TIP3   OH2 8045   4.533   2.454   2.330
 2701TIP3    H1 8046   4.497   2.374   2.291
 2701TIP3    H2 8047   4.570   2.421   2.414
 2702TIP3   OH2 8048   4.914   2.537   3.090
 2702TIP3    H1 8049   4.903   2.460   3.030
 2702TIP3    H2 8050   4.896   2.613   3.031
 2703TIP3   OH2 8051   4.205   1.932   2.348
 2703TIP3    H1 8052   4.126   1.985   2.327
 2703TIP3    H2 8053   4.250   1.928   2.261
 2704TIP3   OH2 8054   4.166   1.715   2.068
 2704TIP3    H1 8055   4.236   1.770   2.108
 2704TIP3    H2 8056   4.222   1.653   2.017
 2705TIP3   OH2 8057   5.110   2.173   2.935
 2705TIP3    H1 8058   5.027   2.227   2.940
 2705TIP3    H2 8059   5.140   2.199   2.845
 2706TIP3   OH2 8060   4.554   2.015   2.319
 2706TIP3    H1 8061   4.500   2.040   2.398
 2706TIP3    H2 8062   4.638   1.990   2.362
 2707TIP3   OH2 8063   4.788   2.052   3.236
 2707TIP3    H1 8064   4.790   2.134   3.289
 2707TIP3    H2 8065   4.703   2.063   3.189
 2708TIP3   OH2 8066   3.782   2.001   2.739
 2708TIP3    H1 8067   3.723   1.963   2.670
 2708TIP3    H2 8068   3.853   1.937   2.738
 2709TIP3   OH2 8069   3.919   2.424   2.882
 2709TIP3    H1 8070   3.899   2.389   2.794
 2709TIP3    H2 8071   4.008   2.388   2.899
 2710TIP3   OH2 8072   3.953   1.981   3.076
 2710TIP3    H1 8073   3.971   2.015   2.988
 2710TIP3    H2 8074   3.968   2.063   3.129
 2711TIP3   OH2 8075   4.449   2.619   2.868
 2711TIP3    H1 8076   4.434   2.702   2.917
 2711TIP3    H2 8077   4.432   2.550   2.934
 2712TIP3   OH2 8078   4.061   2.537   3.414
 2712TIP3    H1 8079   4.003   2.599   3.462
 2712TIP3    H2 8080   3.995   2.485   3.365
 2713TIP3   OH2 8081   4.392   1.872   2.147
 2713TIP3    H1 8082   4.452   1.933   2.196
 2713TIP3    H2 8083   4.418   1.893   2.053
 2714TIP3   OH2 8084   3.811   2.095   3.508
 2714TIP3    H1 8085   3.820   2.182   3.553
 2714TIP3    H2 8086   3.719   2.074   3.534
 2715TIP3   OH2 8087   4.141   2.547   2.421
 2715TIP3    H1 8088   4.221   2.601   2.432
 2715TIP3    H2 8089   4.079   2.609   2.381
 2716TIP3   OH2 8090   3.856   2.701   3.502
 2716TIP3    H1 8091   3.818   2.706   3.412
 2716TIP3    H2 8092   3.776   2.681   3.557
 2717TIP3   OH2 8093   4.911   1.110   2.195
 2717TIP3    H1 8094   4.829   1.132   2.245
 2717TIP3    H2 8095   4.924   1.193   2.144
 2718TIP3   OH2 8096   3.650   1.857   2.544
 2718TIP3    H1 8097   3.583   1.900   2.486
 2718TIP3    H2 8098   3.612   1.769   2.555
 2719TIP3   OH2 8099   4.710   2.479   1.742
 2719TIP3    H1 8100   4.717   2.576   1.728
 2719TIP3    H2 8101   4.803   2.451   1.730
 2720TIP3   OH2 8102   3.434   2.237   3.448
 2720TIP3    H1 8103   3.362   2.220   3.384
 2720TIP3    H2 8104   3.467   2.148   3.469
 2721TIP3   OH2 8105   3.287   2.433   3.077
 2721TIP3    H1 8106   3.384   2.435   3.077
 2721TIP3    H2 8107   3.267   2.511   3.132
 2722TIP3   OH2 8108   5.154   2.884   3.137
 2722TIP3    H1 8109   5.152   2.789   3.155
 2722TIP3    H2 8110   5.071   2.912   3.182
 2723TIP3   OH2 8111   4.257   2.667   3.270
 2723TIP3    H1 8112   4.256   2.760   3.303
 2723TIP3    H2 8113   4.187   2.627   3.326
 2724TIP3   OH2 8114   4.022   2.796   2.223
 2724TIP3    H1 8115   3.974   2.778   2.141
 2724TIP3    H2 8116   3.988   2.883   2.250
 2725TIP3   OH2 8117   3.458   2.646   2.607
 2725TIP3    H1 8118   3.505   2.638   2.693
 2725TIP3    H2 8119   3.399   2.569   2.611
 2726TIP3   OH2 8120   4.221   2.699   1.862
 2726TIP3    H1 8121   4.279   2.629   1.826
 2726TIP3    H2 8122   4.255   2.709   1.953
 2727TIP3   OH2 8123   4.273   2.747   2.131
 2727TIP3    H1 8124   4.184   2.757   2.172
 2727TIP3    H2 8125   4.324   2.711   2.205
 2728TIP3   OH2 8126   5.044   2.013   3.413
 2728TIP3    H1 8127   4.960   2.024   3.367
 2728TIP3    H2 8128   5.059   1.917   3.404
 2729TIP3   OH2 8129   3.640   2.419   3.431
 2729TIP3    H1 8130   3.685   2.409   3.517
 2729TIP3    H2 8131   3.564   2.358   3.442
 2730TIP3   OH2 8132   4.036   1.249   3.220
 2730TIP3    H1 8133   3.948   1.215   3.195
 2730TIP3    H2 8134   4.009   1.325   3.275
 2731TIP3   OH2 8135   4.573   1.357   3.417
 2731TIP3    H1 8136   4.643   1.332   3.481
 2731TIP3    H2 8137   4.490   1.339   3.466
 2732TIP3   OH2 8138   4.806   1.788   3.331
 2732TIP3    H1 8139   4.759   1.784   3.418
 2732TIP3    H2 8140   4.785   1.878   3.300
 2733TIP3   OH2 8141   4.476   1.916   1.894
 2733TIP3    H1 8142   4.435   1.894   1.808
 2733TIP3    H2 8143   4.556   1.964   1.866
 2734TIP3   OH2 8144   4.185   1.289   2.193
 2734TIP3    H1 8145   4.145   1.286   2.282
 2734TIP3    H2 8146   4.143   1.209   2.154
 2735TIP3   OH2 8147   3.968   1.761   3.236
 2735TIP3    H1 8148   3.919   1.784   3.318
 2735TIP3    H2 8149   3.958   1.843   3.183
 2736TIP3   OH2 8150   4.349   1.736   2.476
 2736TIP3    H1 8151   4.300   1.808   2.432
 2736TIP3    H2 8152   4.407   1.705   2.404
 2737TIP3   OH2 8153   4.517   2.006   3.563
 2737TIP3    H1 8154   4.496   1.935   3.628
 2737TIP3    H2 8155   4.610   2.025   3.588
 2738TIP3   OH2 8156   4.499   1.758   2.717
 2738TIP3    H1 8157   4.449   1.794   2.640
 2738TIP3    H2 8158   4.538   1.679   2.673
 2739TIP3   OH2 8159   3.790   1.788   3.447
 2739TIP3    H1 8160   3.809   1.853   3.515
 2739TIP3    H2 8161   3.777   1.707   3.500
 2740TIP3   OH2 8162   3.841   1.269   2.159
 2740TIP3    H1 8163   3.826   1.265   2.256
 2740TIP3    H2 8164   3.762   1.318   2.130
 2741TIP3   OH2 8165   3.381   1.308   3.028
 2741TIP3    H1 8166   3.454   1.342   3.084
 2741TIP3    H2 8167   3.426   1.281   2.947
 2742TIP3   OH2 8168   3.348   1.291   2.548
 2742TIP3    H1 8169   3.392   1.330   2.469
 2742TIP3    H2 8170   3.287   1.364   2.569
 2743TIP3   OH2 8171   4.502   2.005   3.138
 2743TIP3    H1 8172   4.539   1.932   3.083
 2743TIP3    H2 8173   4.477   1.954   3.218
 2744TIP3   OH2 8174   4.164   1.491   2.858
 2744TIP3    H1 8175   4.082   1.464   2.904
 2744TIP3    H2 8176   4.234   1.440   2.904
 2745TIP3   OH2 8177   3.622   1.518   2.835
 2745TIP3    H1 8178   3.532   1.535   2.801
 2745TIP3    H2 8179   3.645   1.434   2.792
 2746TIP3   OH2 8180   3.885   1.517   2.508
 2746TIP3    H1 8181   3.965   1.558   2.475
 2746TIP3    H2 8182   3.820   1.543   2.438
 2747TIP3   OH2 8183   4.680   1.548   3.015
 2747TIP3    H1 8184   4.649   1.558   3.108
 2747TIP3    H2 8185   4.620   1.480   2.983
 2748TIP3   OH2 8186   3.727   1.557   2.291
 2748TIP3    H1 8187   3.658   1.508   2.242
 2748TIP3    H2 8188   3.781   1.590   2.216
 2749TIP3   OH2 8189   4.846   3.231   3.239
 2749TIP3    H1 8190   4.845   3.260   3.146
 2749TIP3    H2 8191   4.924   3.280   3.273
 2750TIP3   OH2 8192   3.803   2.339   3.656
 2750TIP3    H1 8193   3.881   2.372   3.704
 2750TIP3    H2 8194   3.736   2.342   3.727
 2751TIP3   OH2 8195   4.255   1.761   2.866
 2751TIP3    H1 8196   4.352   1.765   2.853
 2751TIP3    H2 8197   4.249   1.752   2.964
 2752TIP3   OH2 8198   3.791   1.271   2.791
 2752TIP3    H1 8199   3.750   1.198   2.842
 2752TIP3    H2 8200   3.825   1.224   2.714
 2753TIP3   OH2 8201   4.238   1.700   3.194
 2753TIP3    H1 8202   4.149   1.735   3.216
 2753TIP3    H2 8203   4.297   1.757   3.247
 2754TIP3   OH2 8204   3.977   2.083   2.299
 2754TIP3    H1 8205   3.904   2.019   2.285
 2754TIP3    H2 8206   3.957   2.117   2.389
 2755TIP3   OH2 8207   4.877   2.320   2.923
 2755TIP3    H1 8208   4.902   2.371   2.843
 2755TIP3    H2 8209   4.791   2.281   2.897
 2756TIP3   OH2 8210   4.437   1.388   2.173
 2756TIP3    H1 8211   4.340   1.370   2.171
 2756TIP3    H2 8212   4.441   1.486   2.178
 2757TIP3   OH2 8213   4.370   2.399   3.297
 2757TIP3    H1 8214   4.405   2.387   3.386
 2757TIP3    H2 8215   4.335   2.490   3.300
 2758TIP3   OH2 8216   4.504   1.647   2.267
 2758TIP3    H1 8217   4.601   1.653   2.277
 2758TIP3    H2 8218   4.483   1.723   2.209
 2759TIP3   OH2 8219   3.673   2.110   2.978
 2759TIP3    H1 8220   3.709   2.072   2.896
 2759TIP3    H2 8221   3.698   2.046   3.046
 2760TIP3   OH2 8222   4.124   2.234   2.123
 2760TIP3    H1 8223   4.075   2.320   2.125
 2760TIP3    H2 8224   4.068   2.180   2.182
 2761TIP3   OH2 8225   3.554   2.019   3.583
 2761TIP3    H1 8226   3.568   2.009   3.679
 2761TIP3    H2 8227   3.478   1.959   3.569
 2762TIP3   OH2 8228   4.277   2.142   3.605
 2762TIP3    H1 8229   4.216   2.079   3.564
 2762TIP3    H2 8230   4.364   2.108   3.576
 2763TIP3   OH2 8231   4.534   2.655   3.192
 2763TIP3    H1 8232   4.437   2.661   3.205
 2763TIP3    H2 8233   4.565   2.709   3.268
 2764TIP3   OH2 8234   4.946   1.736   2.093
 2764TIP3    H1 8235   4.885   1.692   2.030
 2764TIP3    H2 8236   4.938   1.828   2.057
 2765TIP3   OH2 8237   5.164   2.591   3.180
 2765TIP3    H1 8238   5.067   2.588   3.171
 2765TIP3    H2 8239   5.190   2.563   3.089
 2766TIP3   OH2 8240   4.649   2.554   2.008
 2766TIP3    H1 8241   4.619   2.486   2.069
 2766TIP3    H2 8242   4.659   2.506   1.924
 2767TIP3   OH2 8243   4.643   2.186   2.838
 2767TIP3    H1 8244   4.550   2.163   2.855
 2767TIP3    H2 8245   4.675   2.104   2.795
 2768TIP3   OH2 8246   3.772   2.409   2.593
 2768TIP3    H1 8247   3.770   2.491   2.541
 2768TIP3    H2 8248   3.678   2.398   2.613
 2769TIP3   OH2 8249   3.336   1.714   2.304
 2769TIP3    H1 8250   3.380   1.799   2.324
 2769TIP3    H2 8251   3.258   1.719   2.363
 2770TIP3   OH2 8252   3.905   2.171   2.546
 2770TIP3    H1 8253   3.875   2.264   2.555
 2770TIP3    H2 8254   3.860   2.130   2.621
 2771TIP3   OH2 8255   4.042   2.753   3.065
 2771TIP3    H1 8256   4.083   2.827   3.016
 2771TIP3    H2 8257   4.117   2.720   3.117
 2772TIP3   OH2 8258   3.690   2.648   2.450
 2772TIP3    H1 8259   3.604   2.657   2.496
 2772TIP3    H2 8260   3.722   2.741   2.454
 2773TIP3   OH2 8261   4.424   2.387   3.029
 2773TIP3    H1 8262   4.412   2.388   3.127
 2773TIP3    H2 8263   4.511   2.346   3.022
 2774TIP3   OH2 8264   4.405   2.283   1.908
 2774TIP3    H1 8265   4.456   2.257   1.988
 2774TIP3    H2 8266   4.316   2.254   1.934
 2775TIP3   OH2 8267   4.676   2.917   3.073
 2775TIP3    H1 8268   4.594   2.864   3.066
 2775TIP3    H2 8269   4.661   2.984   3.003
 2776TIP3   OH2 8270   4.741   2.755   1.726
 2776TIP3    H1 8271   4.778   2.830   1.676
 2776TIP3    H2 8272   4.661   2.799   1.762
 2777TIP3   OH2 8273   3.761   1.529   3.592
 2777TIP3    H1 8274   3.665   1.535   3.607
 2777TIP3    H2 8275   3.789   1.476   3.668
 2778TIP3   OH2 8276   4.564   2.214   2.124
 2778TIP3    H1 8277   4.555   2.148   2.195
 2778TIP3    H2 8278   4.661   2.212   2.111
 2779TIP3   OH2 8279   3.481   2.615   3.223
 2779TIP3    H1 8280   3.534   2.545   3.265
 2779TIP3    H2 8281   3.497   2.690   3.282
 2780TIP3   OH2 8282   3.769   2.261   1.908
 2780TIP3    H1 8283   3.780   2.168   1.880
 2780TIP3    H2 8284   3.748   2.251   2.003
 2781TIP3   OH2 8285   3.712   2.267   2.180
 2781TIP3    H1 8286   3.785   2.243   2.239
 2781TIP3    H2 8287   3.713   2.365   2.186
 2782TIP3   OH2 8288   3.449   1.960   2.386
 2782TIP3    H1 8289   3.381   2.004   2.441
 2782TIP3    H2 8290   3.461   2.028   2.317
 2783TIP3   OH2 8291   4.604   1.589   3.271
 2783TIP3    H1 8292   4.677   1.635   3.315
 2783TIP3    H2 8293   4.590   1.512   3.330
 2784TIP3   OH2 8294   4.470   1.356   2.447
 2784TIP3    H1 8295   4.462   1.369   2.350
 2784TIP3    H2 8296   4.522   1.434   2.474
 2785TIP3   OH2 8297   3.979   2.463   2.129
 2785TIP3    H1 8298   3.892   2.489   2.164
 2785TIP3    H2 8299   3.995   2.537   2.068
 2786TIP3   OH2 8300   4.184   1.552   2.579
 2786TIP3    H1 8301   4.245   1.604   2.521
 2786TIP3    H2 8302   4.235   1.471   2.596
 2787TIP3   OH2 8303   4.440   1.843   3.349
 2787TIP3    H1 8304   4.459   1.900   3.427
 2787TIP3    H2 8305   4.493   1.765   3.370
 2788TIP3   OH2 8306   4.307   1.274   2.647
 2788TIP3    H1 8307   4.353   1.303   2.727
 2788TIP3    H2 8308   4.373   1.295   2.577
 2789TIP3   OH2 8309   3.724   2.539   2.198
 2789TIP3    H1 8310   3.694   2.609   2.135
 2789TIP3    H2 8311   3.708   2.582   2.284
 2790TIP3   OH2 8312   3.818   1.252   2.437
 2790TIP3    H1 8313   3.816   1.343   2.473
 2790TIP3    H2 8314   3.915   1.236   2.441
 2791TIP3   OH2 8315   5.073   1.746   3.333
 2791TIP3    H1 8316   4.975   1.743   3.338
 2791TIP3    H2 8317   5.087   1.705   3.247
 2792TIP3   OH2 8318   4.728   1.939   2.720
 2792TIP3    H1 8319   4.654   1.878   2.735
 2792TIP3    H2 8320   4.802   1.895   2.767
 2793TIP3   OH2 8321   3.441   2.164   2.190
 2793TIP3    H1 8322   3.506   2.236   2.198
 2793TIP3    H2 8323   3.485   2.109   2.122
 2794TIP3   OH2 8324   3.384   1.443   2.324
 2794TIP3    H1 8325   3.383   1.541   2.321
 2794TIP3    H2 8326   3.308   1.420   2.271
 2795TIP3   OH2 8327   4.697   2.896   2.666
 2795TIP3    H1 8328   4.654   2.943   2.591
 2795TIP3    H2 8329   4.792   2.915   2.646
 2796TIP3   OH2 8330   3.776   1.163   3.193
 2796TIP3    H1 8331   3.742   1.129   3.108
 2796TIP3    H2 8332   3.763   1.085   3.252
 2797TIP3   OH2 8333   3.306   2.377   2.573
 2797TIP3    H1 8334   3.246   2.411   2.641
 2797TIP3    H2 8335   3.273   2.423   2.493
 2798TIP3   OH2 8336   3.473   2.935   3.644
 2798TIP3    H1 8337   3.555   2.938   3.697
 2798TIP3    H2 8338   3.449   2.841   3.651
 2799TIP3   OH2 8339   3.948   2.887   3.691
 2799TIP3    H1 8340   4.043   2.873   3.699
 2799TIP3    H2 8341   3.925   2.825   3.620
 2800TIP3   OH2 8342   3.931   2.465   1.818
 2800TIP3    H1 8343   3.876   2.392   1.857
 2800TIP3    H2 8344   4.006   2.414   1.782
 2801TIP3   OH2 8345   4.594   2.792   3.421
 2801TIP3    H1 8346   4.584   2.726   3.493
 2801TIP3    H2 8347   4.668   2.847   3.454
 2802TIP3   OH2 8348   4.367   2.504   1.733
 2802TIP3    H1 8349   4.408   2.438   1.792
 2802TIP3    H2 8350   4.425   2.501   1.654
 2803TIP3   OH2 8351   3.600   2.331   3.846
 2803TIP3    H1 8352   3.613   2.235   3.853
 2803TIP3    H2 8353   3.512   2.336   3.803
 2804TIP3   OH2 8354   3.576   1.980   2.041
 2804TIP3    H1 8355   3.633   1.949   2.114
 2804TIP3    H2 8356   3.643   1.985   1.968
 2805TIP3   OH2 8357   4.209   2.419   3.620
 2805TIP3    H1 8358   4.166   2.439   3.535
 2805TIP3    H2 8359   4.239   2.326   3.609
 2806TIP3   OH2 8360   4.095   2.181   1.852
 2806TIP3    H1 8361   4.093   2.194   1.949
 2806TIP3    H2 8362   4.094   2.083   1.846
 2807TIP3   OH2 8363   4.697   2.427   3.225
 2807TIP3    H1 8364   4.774   2.472   3.184
 2807TIP3    H2 8365   4.629   2.497   3.215
 2808TIP3   OH2 8366   3.721   2.064   3.832
 2808TIP3    H1 8367   3.799   2.012   3.812
 2808TIP3    H2 8368   3.745   2.101   3.919
 2809TIP3   OH2 8369   3.787   1.885   2.264
 2809TIP3    H1 8370   3.752   1.839   2.342
 2809TIP3    H2 8371   3.822   1.811   2.210
 2810TIP3   OH2 8372   4.055   1.951   3.490
 2810TIP3    H1 8373   3.977   2.010   3.492
 2810TIP3    H2 8374   4.104   1.985   3.411
 2811TIP3   OH2 8375   3.887   1.680   2.104
 2811TIP3    H1 8376   3.860   1.685   2.010
 2811TIP3    H2 8377   3.985   1.684   2.094
 2812TIP3   OH2 8378   4.567   2.349   3.623
 2812TIP3    H1 8379   4.653   2.328   3.583
 2812TIP3    H2 8380   4.564   2.288   3.698
 2813TIP3   OH2 8381   4.708   2.010   1.769
 2813TIP3    H1 8382   4.685   1.964   1.686
 2813TIP3    H2 8383   4.675   2.100   1.747
 2814TIP3   OH2 8384   4.177   1.740   3.617
 2814TIP3    H1 8385   4.177   1.661   3.559
 2814TIP3    H2 8386   4.133   1.807   3.560
 2815TIP3   OH2 8387   4.180   1.526   3.422
 2815TIP3    H1 8388   4.206   1.567   3.338
 2815TIP3    H2 8389   4.086   1.503   3.406
 2816TIP3   OH2 8390   4.204   2.056   3.290
 2816TIP3    H1 8391   4.291   2.079   3.256
 2816TIP3    H2 8392   4.148   2.126   3.251
 2817TIP3   OH2 8393   4.785   2.026   3.676
 2817TIP3    H1 8394   4.836   1.945   3.694
 2817TIP3    H2 8395   4.855   2.087   3.645
 2818TIP3   OH2 8396   4.828   2.278   3.408
 2818TIP3    H1 8397   4.770   2.334   3.353
 2818TIP3    H2 8398   4.916   2.302   3.370
 2819TIP3   OH2 8399   4.055   1.847   3.849
 2819TIP3    H1 8400   3.986   1.779   3.865
 2819TIP3    H2 8401   4.089   1.819   3.761
 2820TIP3   OH2 8402   4.311   1.287   3.492
 2820TIP3    H1 8403   4.262   1.370   3.471
 2820TIP3    H2 8404   4.241   1.220   3.483
 2821TIP3   OH2 8405   4.438   1.790   3.709
 2821TIP3    H1 8406   4.427   1.778   3.805
 2821TIP3    H2 8407   4.348   1.767   3.679
 2822TIP3   OH2 8408   4.674   1.736   3.561
 2822TIP3    H1 8409   4.600   1.742   3.624
 2822TIP3    H2 8410   4.749   1.709   3.618
 2823TIP3   OH2 8411   4.904   1.683   3.712
 2823TIP3    H1 8412   4.918   1.588   3.730
 2823TIP3    H2 8413   4.899   1.721   3.802
 2824TIP3   OH2 8414   3.894   1.627   3.904
 2824TIP3    H1 8415   3.900   1.535   3.872
 2824TIP3    H2 8416   3.931   1.617   3.994
 2825TIP3   OH2 8417   4.405   1.299   3.751
 2825TIP3    H1 8418   4.472   1.228   3.746
 2825TIP3    H2 8419   4.365   1.292   3.662
 2826TIP3   OH2 8420   4.471   1.513   3.910
 2826TIP3    H1 8421   4.449   1.442   3.846
 2826TIP3    H2 8422   4.393   1.571   3.904
 2827TIP3   OH2 8423   3.694   2.740   2.010
 2827TIP3    H1 8424   3.789   2.734   1.989
 2827TIP3    H2 8425   3.664   2.792   1.932
 2828TIP3   OH2 8426   3.172   2.123   2.223
 2828TIP3    H1 8427   3.267   2.145   2.211
 2828TIP3    H2 8428   3.166   2.035   2.182
 2829TIP3   OH2 8429   3.092   2.735   2.640
 2829TIP3    H1 8430   3.023   2.675   2.603
 2829TIP3    H2 8431   3.134   2.675   2.706
 2830TIP3   OH2 8432   3.227   2.580   2.825
 2830TIP3    H1 8433   3.211   2.512   2.893
 2830TIP3    H2 8434   3.275   2.646   2.879
 2831TIP3   OH2 8435   4.953   2.983   2.627
 2831TIP3    H1 8436   4.975   3.015   2.717
 2831TIP3    H2 8437   5.014   3.033   2.572
 2832TIP3   OH2 8438   4.980   3.005   2.908
 2832TIP3    H1 8439   4.936   2.918   2.906
 2832TIP3    H2 8440   5.052   2.986   2.969
 2833TIP3   OH2 8441   5.027   2.682   3.481
 2833TIP3    H1 8442   4.953   2.692   3.546
 2833TIP3    H2 8443   5.068   2.771   3.485
 2834TIP3   OH2 8444   4.844   2.194   2.099
 2834TIP3    H1 8445   4.910   2.261   2.071
 2834TIP3    H2 8446   4.888   2.157   2.179
 2835TIP3   OH2 8447   4.971   2.061   2.304
 2835TIP3    H1 8448   4.905   2.022   2.364
 2835TIP3    H2 8449   5.037   2.100   2.365
 2836TIP3   OH2 8450   5.026   2.457   2.736
 2836TIP3    H1 8451   5.080   2.392   2.687
 2836TIP3    H2 8452   5.021   2.531   2.673
 2837TIP3   OH2 8453   4.854   2.755   2.931
 2837TIP3    H1 8454   4.784   2.800   2.983
 2837TIP3    H2 8455   4.802   2.710   2.861
 2838TIP3   OH2 8456   4.907   1.971   1.951
 2838TIP3    H1 8457   4.836   1.975   1.883
 2838TIP3    H2 8458   4.882   2.048   2.005
 2839TIP3   OH2 8459   4.791   1.641   1.891
 2839TIP3    H1 8460   4.728   1.682   1.830
 2839TIP3    H2 8461   4.762   1.547   1.887
 2840TIP3   OH2 8462   4.782   1.921   2.450
 2840TIP3    H1 8463   4.792   1.825   2.445
 2840TIP3    H2 8464   4.769   1.937   2.546
 2841TIP3   OH2 8465   3.413   1.989   3.200
 2841TIP3    H1 8466   3.406   1.960   3.107
 2841TIP3    H2 8467   3.511   1.993   3.211
 2842TIP3   OH2 8468   5.073   2.346   3.307
 2842TIP3    H1 8469   5.145   2.280   3.296
 2842TIP3    H2 8470   5.101   2.417   3.247
 2843TIP3   OH2 8471   5.257   2.147   3.315
 2843TIP3    H1 8472   5.183   2.100   3.358
 2843TIP3    H2 8473   5.330   2.085   3.333
 2844TIP3   OH2 8474   4.725   1.376   1.883
 2844TIP3    H1 8475   4.792   1.342   1.946
 2844TIP3    H2 8476   4.645   1.324   1.904
 2845TIP3   OH2 8477   4.781   1.637   2.344
 2845TIP3    H1 8478   4.822   1.548   2.359
 2845TIP3    H2 8479   4.839   1.671   2.274
 2846TIP3   OH2 8480   4.940   1.809   2.839
 2846TIP3    H1 8481   5.026   1.834   2.798
 2846TIP3    H2 8482   4.954   1.847   2.928
 2847TIP3   OH2 8483   5.009   1.954   3.070
 2847TIP3    H1 8484   4.934   1.990   3.122
 2847TIP3    H2 8485   5.043   2.036   3.026
 2848TIP3   OH2 8486   3.627   1.676   3.865
 2848TIP3    H1 8487   3.724   1.673   3.874
 2848TIP3    H2 8488   3.603   1.592   3.909
 2849TIP3   OH2 8489   5.462   1.547   3.627
 2849TIP3    H1 8490   5.522   1.482   3.585
 2849TIP3    H2 8491   5.433   1.601   3.550
 2850TIP3   OH2 8492   4.889   1.387   2.383
 2850TIP3    H1 8493   4.938   1.370   2.466
 2850TIP3    H2 8494   4.829   1.310   2.381
 2851TIP3   OH2 8495   3.589   1.371   3.198
 2851TIP3    H1 8496   3.652   1.297   3.211
 2851TIP3    H2 8497   3.650   1.447   3.196
 2852TIP3   OH2 8498   3.390   1.644   3.278
 2852TIP3    H1 8499   3.439   1.646   3.194
 2852TIP3    H2 8500   3.407   1.732   3.313
 2853TIP3   OH2 8501   5.331   1.684   3.432
 2853TIP3    H1 8502   5.246   1.726   3.457
 2853TIP3    H2 8503   5.298   1.612   3.375
 2854TIP3   OH2 8504   4.968   1.318   2.019
 2854TIP3    H1 8505   5.007   1.247   1.964
 2854TIP3    H2 8506   5.035   1.389   2.014
 2855TIP3   OH2 8507   3.375   1.145   2.773
 2855TIP3    H1 8508   3.284   1.145   2.805
 2855TIP3    H2 8509   3.370   1.206   2.697
 2856TIP3   OH2 8510   4.533   2.853   2.282
 2856TIP3    H1 8511   4.588   2.843   2.202
 2856TIP3    H2 8512   4.583   2.920   2.332
 2857TIP3   OH2 8513   3.595   1.225   3.588
 2857TIP3    H1 8514   3.546   1.225   3.673
 2857TIP3    H2 8515   3.529   1.267   3.530
 2858TIP3   OH2 8516   3.636   2.650   3.665
 2858TIP3    H1 8517   3.540   2.634   3.652
 2858TIP3    H2 8518   3.644   2.646   3.761
 2859TIP3   OH2 8519   3.815   2.689   3.213
 2859TIP3    H1 8520   3.765   2.765   3.177
 2859TIP3    H2 8521   3.901   2.707   3.168
 2860TIP3   OH2 8522   4.256   2.933   3.348
 2860TIP3    H1 8523   4.295   2.933   3.438
 2860TIP3    H2 8524   4.322   2.987   3.300
 2861TIP3   OH2 8525   4.437   3.088   3.212
 2861TIP3    H1 8526   4.510   3.037   3.176
 2861TIP3    H2 8527   4.485   3.146   3.275
 2862TIP3   OH2 8528   5.232   1.446   3.311
 2862TIP3    H1 8529   5.141   1.436   3.279
 2862TIP3    H2 8530   5.266   1.354   3.301
 2863TIP3   OH2 8531   3.490   2.947   3.240
 2863TIP3    H1 8532   3.399   2.979   3.219
 2863TIP3    H2 8533   3.503   2.990   3.326
 2864TIP3   OH2 8534   3.725   2.925   3.098
 2864TIP3    H1 8535   3.639   2.937   3.143
 2864TIP3    H2 8536   3.704   2.959   3.008
 2865TIP3   OH2 8537   4.152   2.953   2.895
 2865TIP3    H1 8538   4.080   2.974   2.831
 2865TIP3    H2 8539   4.164   3.040   2.939
 2866TIP3   OH2 8540   4.420   2.889   2.944
 2866TIP3    H1 8541   4.326   2.909   2.928
 2866TIP3    H2 8542   4.463   2.968   2.906
 2867TIP3   OH2 8543   4.626   3.084   2.860
 2867TIP3    H1 8544   4.612   3.169   2.814
 2867TIP3    H2 8545   4.652   3.024   2.787
 2868TIP3   OH2 8546   3.402   2.742   2.981
 2868TIP3    H1 8547   3.426   2.713   3.072
 2868TIP3    H2 8548   3.474   2.698   2.931
 2869TIP3   OH2 8549   3.596   2.613   2.840
 2869TIP3    H1 8550   3.610   2.530   2.891
 2869TIP3    H2 8551   3.687   2.650   2.840
 2870TIP3   OH2 8552   3.863   2.706   2.847
 2870TIP3    H1 8553   3.893   2.614   2.840
 2870TIP3    H2 8554   3.908   2.731   2.930
 2871TIP3   OH2 8555   4.411   1.341   2.898
 2871TIP3    H1 8556   4.385   1.282   2.971
 2871TIP3    H2 8557   4.502   1.313   2.879
 2872TIP3   OH2 8558   4.955   1.243   2.834
 2872TIP3    H1 8559   4.994   1.295   2.760
 2872TIP3    H2 8560   4.862   1.268   2.830
 2873TIP3   OH2 8561   5.053   1.343   2.600
 2873TIP3    H1 8562   5.127   1.290   2.563
 2873TIP3    H2 8563   5.089   1.434   2.585
 2874TIP3   OH2 8564   3.684   1.069   2.946
 2874TIP3    H1 8565   3.591   1.036   2.949
 2874TIP3    H2 8566   3.732   0.984   2.943
 2875TIP3   OH2 8567   3.475   0.942   2.598
 2875TIP3    H1 8568   3.503   0.998   2.523
 2875TIP3    H2 8569   3.445   1.008   2.663
 2876TIP3   OH2 8570   4.132   1.106   2.830
 2876TIP3    H1 8571   4.186   1.160   2.770
 2876TIP3    H2 8572   4.162   1.134   2.917
 2877TIP3   OH2 8573   4.664   1.252   2.814
 2877TIP3    H1 8574   4.683   1.211   2.728
 2877TIP3    H2 8575   4.658   1.172   2.872
 2878TIP3   OH2 8576   4.707   1.174   2.375
 2878TIP3    H1 8577   4.617   1.209   2.380
 2878TIP3    H2 8578   4.695   1.088   2.422
 2879TIP3   OH2 8579   3.189   2.515   2.372
 2879TIP3    H1 8580   3.102   2.484   2.340
 2879TIP3    H2 8581   3.180   2.610   2.351
 2880TIP3   OH2 8582   3.589   1.097   2.360
 2880TIP3    H1 8583   3.636   1.034   2.301
 2880TIP3    H2 8584   3.663   1.151   2.394
 2881TIP3   OH2 8585   4.095   1.285   2.456
 2881TIP3    H1 8586   4.156   1.240   2.518
 2881TIP3    H2 8587   4.097   1.375   2.490
 2882TIP3   OH2 8588   3.962   2.698   1.958
 2882TIP3    H1 8589   4.049   2.722   1.920
 2882TIP3    H2 8590   3.939   2.623   1.897
 2883TIP3   OH2 8591   4.683   2.821   2.050
 2883TIP3    H1 8592   4.674   2.724   2.039
 2883TIP3    H2 8593   4.635   2.853   1.971
 2884TIP3   OH2 8594   3.893   1.350   3.836
 2884TIP3    H1 8595   3.857   1.281   3.895
 2884TIP3    H2 8596   3.987   1.351   3.865
 2885TIP3   OH2 8597   4.141   1.349   3.956
 2885TIP3    H1 8598   4.228   1.323   3.920
 2885TIP3    H2 8599   4.128   1.279   4.024
 2886TIP3   OH2 8600   3.263   2.535   2.011
 2886TIP3    H1 8601   3.264   2.560   2.105
 2886TIP3    H2 8602   3.352   2.493   2.000
 2887TIP3   OH2 8603   4.968   1.413   3.744
 2887TIP3    H1 8604   4.986   1.382   3.836
 2887TIP3    H2 8605   5.057   1.408   3.704
 2888TIP3   OH2 8606   4.908   2.963   3.232
 2888TIP3    H1 8607   4.826   2.933   3.187
 2888TIP3    H2 8608   4.887   3.059   3.242
 2889TIP3   OH2 8609   6.173   2.337   2.000
 2889TIP3    H1 8610   6.143   2.428   1.980
 2889TIP3    H2 8611   6.096   2.286   1.970
 2890TIP3   OH2 8612   6.171   2.337   2.389
 2890TIP3    H1 8613   6.206   2.312   2.476
 2890TIP3    H2 8614   6.130   2.254   2.359
 2891TIP3   OH2 8615   5.469   2.228   2.750
 2891TIP3    H1 8616   5.499   2.161   2.814
 2891TIP3    H2 8617   5.546   2.287   2.748
 2892TIP3   OH2 8618   6.417   2.640   2.068
 2892TIP3    H1 8619   6.402   2.571   2.135
 2892TIP3    H2 8620   6.446   2.715   2.122
 2893TIP3   OH2 8621   5.443   2.640   2.470
 2893TIP3    H1 8622   5.434   2.543   2.473
 2893TIP3    H2 8623   5.540   2.649   2.468
 2894TIP3   OH2 8624   5.150   1.841   2.253
 2894TIP3    H1 8625   5.105   1.925   2.274
 2894TIP3    H2 8626   5.076   1.792   2.214
 2895TIP3   OH2 8627   5.207   2.130   2.432
 2895TIP3    H1 8628   5.258   2.054   2.469
 2895TIP3    H2 8629   5.271   2.171   2.373
 2896TIP3   OH2 8630   6.067   3.100   2.084
 2896TIP3    H1 8631   6.110   3.028   2.033
 2896TIP3    H2 8632   6.058   3.061   2.171
 2897TIP3   OH2 8633   5.970   2.562   2.432
 2897TIP3    H1 8634   6.011   2.485   2.389
 2897TIP3    H2 8635   6.052   2.610   2.458
 2898TIP3   OH2 8636   6.984   1.882   2.429
 2898TIP3    H1 8637   7.013   1.965   2.471
 2898TIP3    H2 8638   7.011   1.896   2.337
 2899TIP3   OH2 8639   6.382   2.062   2.463
 2899TIP3    H1 8640   6.426   1.978   2.484
 2899TIP3    H2 8641   6.351   2.045   2.372
 2900TIP3   OH2 8642   5.722   1.722   2.429
 2900TIP3    H1 8643   5.703   1.795   2.366
 2900TIP3    H2 8644   5.672   1.649   2.386
 2901TIP3   OH2 8645   6.416   1.814   2.050
 2901TIP3    H1 8646   6.488   1.800   2.116
 2901TIP3    H2 8647   6.469   1.849   1.975
 2902TIP3   OH2 8648   5.355   1.925   2.537
 2902TIP3    H1 8649   5.437   1.906   2.586
 2902TIP3    H2 8650   5.369   1.870   2.458
 2903TIP3   OH2 8651   5.795   2.122   2.331
 2903TIP3    H1 8652   5.889   2.098   2.344
 2903TIP3    H2 8653   5.757   2.038   2.300
 2904TIP3   OH2 8654   7.057   2.090   2.601
 2904TIP3    H1 8655   6.973   2.136   2.582
 2904TIP3    H2 8656   7.076   2.121   2.690
 2905TIP3   OH2 8657   5.717   1.706   2.864
 2905TIP3    H1 8658   5.658   1.743   2.797
 2905TIP3    H2 8659   5.665   1.723   2.945
 2906TIP3   OH2 8660   6.060   2.556   1.872
 2906TIP3    H1 8661   6.021   2.541   1.785
 2906TIP3    H2 8662   6.016   2.640   1.898
 2907TIP3   OH2 8663   5.823   2.482   2.656
 2907TIP3    H1 8664   5.763   2.550   2.693
 2907TIP3    H2 8665   5.867   2.531   2.584
 2908TIP3   OH2 8666   6.621   1.820   2.227
 2908TIP3    H1 8667   6.611   1.774   2.312
 2908TIP3    H2 8668   6.676   1.897   2.253
 2909TIP3   OH2 8669   5.589   1.821   2.648
 2909TIP3    H1 8670   5.650   1.894   2.671
 2909TIP3    H2 8671   5.639   1.781   2.574
 2910TIP3   OH2 8672   5.653   2.678   2.755
 2910TIP3    H1 8673   5.628   2.766   2.720
 2910TIP3    H2 8674   5.575   2.661   2.811
 2911TIP3   OH2 8675   5.045   2.367   1.992
 2911TIP3    H1 8676   5.003   2.395   1.909
 2911TIP3    H2 8677   5.075   2.453   2.029
 2912TIP3   OH2 8678   6.484   2.883   2.232
 2912TIP3    H1 8679   6.395   2.874   2.271
 2912TIP3    H2 8680   6.476   2.970   2.187
 2913TIP3   OH2 8681   6.779   1.780   2.596
 2913TIP3    H1 8682   6.692   1.809   2.565
 2913TIP3    H2 8683   6.839   1.813   2.525
 2914TIP3   OH2 8684   6.070   1.422   2.578
 2914TIP3    H1 8685   6.057   1.327   2.599
 2914TIP3    H2 8686   5.993   1.461   2.626
 2915TIP3   OH2 8687   6.184   2.927   1.903
 2915TIP3    H1 8688   6.235   2.845   1.884
 2915TIP3    H2 8689   6.245   2.993   1.864
 2916TIP3   OH2 8690   6.328   2.712   1.816
 2916TIP3    H1 8691   6.294   2.631   1.778
 2916TIP3    H2 8692   6.366   2.679   1.901
 2917TIP3   OH2 8693   6.711   2.793   2.577
 2917TIP3    H1 8694   6.699   2.716   2.517
 2917TIP3    H2 8695   6.693   2.868   2.516
 2918TIP3   OH2 8696   6.002   2.187   1.835
 2918TIP3    H1 8697   5.923   2.240   1.813
 2918TIP3    H2 8698   6.050   2.186   1.750
 2919TIP3   OH2 8699   5.961   1.975   1.547
 2919TIP3    H1 8700   6.027   2.025   1.597
 2919TIP3    H2 8701   6.020   1.912   1.499
 2920TIP3   OH2 8702   6.906   2.434   2.424
 2920TIP3    H1 8703   6.822   2.485   2.428
 2920TIP3    H2 8704   6.935   2.455   2.333
 2921TIP3   OH2 8705   6.351   2.271   1.804
 2921TIP3    H1 8706   6.296   2.295   1.882
 2921TIP3    H2 8707   6.434   2.245   1.847
 2922TIP3   OH2 8708   6.585   2.308   2.721
 2922TIP3    H1 8709   6.582   2.391   2.772
 2922TIP3    H2 8710   6.499   2.313   2.675
 2923TIP3   OH2 8711   5.583   2.266   2.223
 2923TIP3    H1 8712   5.544   2.209   2.154
 2923TIP3    H2 8713   5.660   2.214   2.253
 2924TIP3   OH2 8714   5.714   2.681   2.369
 2924TIP3    H1 8715   5.694   2.642   2.283
 2924TIP3    H2 8716   5.803   2.645   2.388
 2925TIP3   OH2 8717   5.717   2.240   2.576
 2925TIP3    H1 8718   5.752   2.217   2.487
 2925TIP3    H2 8719   5.761   2.325   2.595
 2926TIP3   OH2 8720   6.244   2.877   2.354
 2926TIP3    H1 8721   6.231   2.957   2.408
 2926TIP3    H2 8722   6.229   2.804   2.417
 2927TIP3   OH2 8723   5.857   2.796   2.902
 2927TIP3    H1 8724   5.796   2.858   2.948
 2927TIP3    H2 8725   5.792   2.743   2.851
 2928TIP3   OH2 8726   6.188   2.130   1.632
 2928TIP3    H1 8727   6.249   2.189   1.683
 2928TIP3    H2 8728   6.215   2.152   1.539
 2929TIP3   OH2 8729   5.612   2.350   3.004
 2929TIP3    H1 8730   5.617   2.439   3.046
 2929TIP3    H2 8731   5.517   2.331   3.017
 2930TIP3   OH2 8732   5.936   2.806   1.906
 2930TIP3    H1 8733   6.018   2.858   1.917
 2930TIP3    H2 8734   5.875   2.870   1.868
 2931TIP3   OH2 8735   5.651   2.963   2.990
 2931TIP3    H1 8736   5.615   2.964   2.899
 2931TIP3    H2 8737   5.572   2.941   3.044
 2932TIP3   OH2 8738   6.705   1.365   1.679
 2932TIP3    H1 8739   6.624   1.389   1.730
 2932TIP3    H2 8740   6.719   1.447   1.628
 2933TIP3   OH2 8741   5.452   2.111   2.021
 2933TIP3    H1 8742   5.382   2.156   1.969
 2933TIP3    H2 8743   5.410   2.027   2.042
 2934TIP3   OH2 8744   6.507   2.735   1.230
 2934TIP3    H1 8745   6.515   2.832   1.215
 2934TIP3    H2 8746   6.599   2.706   1.217
 2935TIP3   OH2 8747   5.230   2.495   2.935
 2935TIP3    H1 8748   5.163   2.473   2.867
 2935TIP3    H2 8749   5.267   2.408   2.958
 2936TIP3   OH2 8750   5.084   2.687   2.567
 2936TIP3    H1 8751   5.181   2.686   2.561
 2936TIP3    H2 8752   5.070   2.766   2.621
 2937TIP3   OH2 8753   6.949   3.141   2.625
 2937TIP3    H1 8754   6.947   3.044   2.639
 2937TIP3    H2 8755   6.865   3.166   2.670
 2938TIP3   OH2 8756   6.054   2.924   2.758
 2938TIP3    H1 8757   6.051   3.017   2.790
 2938TIP3    H2 8758   5.982   2.884   2.812
 2939TIP3   OH2 8759   5.817   3.052   1.711
 2939TIP3    H1 8760   5.770   3.036   1.627
 2939TIP3    H2 8761   5.784   3.140   1.736
 2940TIP3   OH2 8762   5.254   2.902   2.095
 2940TIP3    H1 8763   5.301   2.893   2.181
 2940TIP3    H2 8764   5.198   2.822   2.097
 2941TIP3   OH2 8765   6.016   2.955   1.348
 2941TIP3    H1 8766   6.075   2.885   1.313
 2941TIP3    H2 8767   6.051   2.966   1.439
 2942TIP3   OH2 8768   6.068   3.004   1.617
 2942TIP3    H1 8769   5.980   3.013   1.661
 2942TIP3    H2 8770   6.121   2.966   1.690
 2943TIP3   OH2 8771   6.838   2.270   2.898
 2943TIP3    H1 8772   6.756   2.280   2.849
 2943TIP3    H2 8773   6.854   2.174   2.890
 2944TIP3   OH2 8774   5.436   2.677   2.919
 2944TIP3    H1 8775   5.483   2.663   3.003
 2944TIP3    H2 8776   5.360   2.615   2.928
 2945TIP3   OH2 8777   5.833   1.501   2.710
 2945TIP3    H1 8778   5.744   1.471   2.682
 2945TIP3    H2 8779   5.808   1.582   2.758
 2946TIP3   OH2 8780   6.369   1.615   2.903
 2946TIP3    H1 8781   6.438   1.588   2.967
 2946TIP3    H2 8782   6.286   1.595   2.951
 2947TIP3   OH2 8783   6.605   2.044   2.820
 2947TIP3    H1 8784   6.556   2.042   2.906
 2947TIP3    H2 8785   6.581   2.132   2.785
 2948TIP3   OH2 8786   6.265   2.173   1.376
 2948TIP3    H1 8787   6.232   2.149   1.287
 2948TIP3    H2 8788   6.350   2.216   1.353
 2949TIP3   OH2 8789   5.970   1.554   1.675
 2949TIP3    H1 8790   5.944   1.549   1.769
 2949TIP3    H2 8791   5.941   1.465   1.646
 2950TIP3   OH2 8792   5.765   2.017   2.726
 2950TIP3    H1 8793   5.716   2.038   2.808
 2950TIP3    H2 8794   5.749   2.099   2.673
 2951TIP3   OH2 8795   5.650   1.903   2.240
 2951TIP3    H1 8796   5.557   1.877   2.259
 2951TIP3    H2 8797   5.662   1.861   2.152
 2952TIP3   OH2 8798   6.139   1.987   1.969
 2952TIP3    H1 8799   6.088   2.059   1.925
 2952TIP3    H2 8800   6.196   1.955   1.896
 2953TIP3   OH2 8801   6.315   2.264   3.053
 2953TIP3    H1 8802   6.292   2.192   3.115
 2953TIP3    H2 8803   6.408   2.278   3.076
 2954TIP3   OH2 8804   6.296   2.014   2.206
 2954TIP3    H1 8805   6.235   2.043   2.135
 2954TIP3    H2 8806   6.332   1.934   2.162
 2955TIP3   OH2 8807   5.585   2.045   2.935
 2955TIP3    H1 8808   5.613   2.109   3.002
 2955TIP3    H2 8809   5.574   1.963   2.988
 2956TIP3   OH2 8810   5.628   1.512   1.645
 2956TIP3    H1 8811   5.628   1.515   1.743
 2956TIP3    H2 8812   5.558   1.577   1.625
 2957TIP3   OH2 8813   5.178   1.566   2.515
 2957TIP3    H1 8814   5.252   1.599   2.571
 2957TIP3    H2 8815   5.223   1.535   2.435
 2958TIP3   OH2 8816   5.144   1.545   2.029
 2958TIP3    H1 8817   5.204   1.578   1.961
 2958TIP3    H2 8818   5.089   1.623   2.049
 2959TIP3   OH2 8819   6.306   2.262   2.627
 2959TIP3    H1 8820   6.340   2.190   2.569
 2959TIP3    H2 8821   6.277   2.208   2.704
 2960TIP3   OH2 8822   5.980   1.725   2.301
 2960TIP3    H1 8823   5.900   1.723   2.357
 2960TIP3    H2 8824   6.051   1.718   2.366
 2961TIP3   OH2 8825   5.412   1.782   2.308
 2961TIP3    H1 8826   5.317   1.787   2.281
 2961TIP3    H2 8827   5.436   1.690   2.287
 2962TIP3   OH2 8828   5.678   1.773   2.001
 2962TIP3    H1 8829   5.773   1.790   1.983
 2962TIP3    H2 8830   5.634   1.801   1.917
 2963TIP3   OH2 8831   6.470   1.801   2.504
 2963TIP3    H1 8832   6.437   1.813   2.596
 2963TIP3    H2 8833   6.403   1.741   2.469
 2964TIP3   OH2 8834   5.527   1.816   1.776
 2964TIP3    H1 8835   5.465   1.765   1.719
 2964TIP3    H2 8836   5.583   1.857   1.707
 2965TIP3   OH2 8837   6.642   3.489   2.724
 2965TIP3    H1 8838   6.639   3.514   2.630
 2965TIP3    H2 8839   6.721   3.538   2.754
 2966TIP3   OH2 8840   5.597   2.598   3.143
 2966TIP3    H1 8841   5.676   2.630   3.191
 2966TIP3    H2 8842   5.531   2.599   3.215
 2967TIP3   OH2 8843   6.059   2.054   2.398
 2967TIP3    H1 8844   6.133   2.015   2.350
 2967TIP3    H2 8845   6.066   2.011   2.486
 2968TIP3   OH2 8846   5.576   1.540   2.280
 2968TIP3    H1 8847   5.543   1.462   2.330
 2968TIP3    H2 8848   5.633   1.498   2.214
 2969TIP3   OH2 8849   6.035   1.953   2.687
 2969TIP3    H1 8850   5.946   1.988   2.703
 2969TIP3    H2 8851   6.093   2.013   2.738
 2970TIP3   OH2 8852   5.773   2.340   1.782
 2970TIP3    H1 8853   5.699   2.276   1.770
 2970TIP3    H2 8854   5.754   2.374   1.873
 2971TIP3   OH2 8855   6.672   2.577   2.410
 2971TIP3    H1 8856   6.696   2.627   2.330
 2971TIP3    H2 8857   6.587   2.535   2.384
 2972TIP3   OH2 8858   6.228   1.650   1.653
 2972TIP3    H1 8859   6.131   1.636   1.657
 2972TIP3    H2 8860   6.239   1.745   1.673
 2973TIP3   OH2 8861   6.171   2.658   2.781
 2973TIP3    H1 8862   6.200   2.641   2.871
 2973TIP3    H2 8863   6.133   2.748   2.788
 2974TIP3   OH2 8864   6.299   1.901   1.751
 2974TIP3    H1 8865   6.395   1.905   1.765
 2974TIP3    H2 8866   6.282   1.981   1.697
 2975TIP3   OH2 8867   5.464   2.360   2.458
 2975TIP3    H1 8868   5.505   2.333   2.373
 2975TIP3    H2 8869   5.511   2.304   2.521
 2976TIP3   OH2 8870   5.918   2.490   1.604
 2976TIP3    H1 8871   5.870   2.575   1.609
 2976TIP3    H2 8872   5.864   2.435   1.665
 2977TIP3   OH2 8873   5.349   2.282   3.072
 2977TIP3    H1 8874   5.367   2.270   3.167
 2977TIP3    H2 8875   5.278   2.216   3.058
 2978TIP3   OH2 8876   6.073   2.399   3.092
 2978TIP3    H1 8877   6.013   2.339   3.046
 2978TIP3    H2 8878   6.160   2.364   3.064
 2979TIP3   OH2 8879   6.331   2.919   2.678
 2979TIP3    H1 8880   6.235   2.918   2.690
 2979TIP3    H2 8881   6.359   2.972   2.756
 2980TIP3   OH2 8882   6.739   1.992   1.586
 2980TIP3    H1 8883   6.677   1.948   1.523
 2980TIP3    H2 8884   6.738   2.081   1.545
 2981TIP3   OH2 8885   6.961   2.851   2.665
 2981TIP3    H1 8886   6.863   2.844   2.657
 2981TIP3    H2 8887   6.987   2.821   2.575
 2982TIP3   OH2 8888   6.442   2.811   1.494
 2982TIP3    H1 8889   6.417   2.740   1.555
 2982TIP3    H2 8890   6.456   2.763   1.410
 2983TIP3   OH2 8891   6.438   2.440   2.327
 2983TIP3    H1 8892   6.345   2.415   2.341
 2983TIP3    H2 8893   6.472   2.359   2.283
 2984TIP3   OH2 8894   5.567   2.667   2.083
 2984TIP3    H1 8895   5.566   2.749   2.030
 2984TIP3    H2 8896   5.473   2.653   2.099
 2985TIP3   OH2 8897   5.135   1.965   1.795
 2985TIP3    H1 8898   5.180   2.051   1.813
 2985TIP3    H2 8899   5.057   1.974   1.853
 2986TIP3   OH2 8900   5.699   2.431   2.025
 2986TIP3    H1 8901   5.666   2.521   2.044
 2986TIP3    H2 8902   5.665   2.382   2.102
 2987TIP3   OH2 8903   5.837   3.010   2.552
 2987TIP3    H1 8904   5.879   3.083   2.502
 2987TIP3    H2 8905   5.914   2.974   2.600
 2988TIP3   OH2 8906   5.485   2.906   1.936
 2988TIP3    H1 8907   5.399   2.914   1.983
 2988TIP3    H2 8908   5.517   2.999   1.940
 2989TIP3   OH2 8909   6.222   2.646   2.513
 2989TIP3    H1 8910   6.212   2.644   2.611
 2989TIP3    H2 8911   6.302   2.593   2.501
 2990TIP3   OH2 8912   6.200   2.540   1.397
 2990TIP3    H1 8913   6.255   2.514   1.475
 2990TIP3    H2 8914   6.113   2.511   1.427
 2991TIP3   OH2 8915   6.472   3.177   2.563
 2991TIP3    H1 8916   6.392   3.121   2.556
 2991TIP3    H2 8917   6.456   3.241   2.490
 2992TIP3   OH2 8918   6.537   3.011   1.214
 2992TIP3    H1 8919   6.577   3.085   1.164
 2992TIP3    H2 8920   6.457   3.056   1.248
 2993TIP3   OH2 8921   5.557   1.788   3.079
 2993TIP3    H1 8922   5.461   1.791   3.093
 2993TIP3    H2 8923   5.586   1.732   3.153
 2994TIP3   OH2 8924   6.361   2.471   1.611
 2994TIP3    H1 8925   6.351   2.404   1.681
 2994TIP3    H2 8926   6.458   2.469   1.598
 2995TIP3   OH2 8927   5.276   2.872   2.710
 2995TIP3    H1 8928   5.330   2.801   2.749
 2995TIP3    H2 8929   5.295   2.946   2.769
 2996TIP3   OH2 8930   5.562   2.518   1.395
 2996TIP3    H1 8931   5.578   2.425   1.369
 2996TIP3    H2 8932   5.544   2.509   1.490
 2997TIP3   OH2 8933   5.508   2.523   1.667
 2997TIP3    H1 8934   5.581   2.496   1.725
 2997TIP3    H2 8935   5.511   2.621   1.675
 2998TIP3   OH2 8936   5.241   2.214   1.871
 2998TIP3    H1 8937   5.175   2.260   1.928
 2998TIP3    H2 8938   5.256   2.283   1.803
 2999TIP3   OH2 8939   6.396   1.852   2.763
 2999TIP3    H1 8940   6.476   1.891   2.801
 2999TIP3    H2 8941   6.384   1.771   2.818
 3000TIP3   OH2 8942   6.275   1.602   1.931
 3000TIP3    H1 8943   6.263   1.624   1.836
 3000TIP3    H2 8944   6.317   1.684   1.966
 3001TIP3   OH2 8945   5.774   2.719   1.614
 3001TIP3    H1 8946   5.688   2.745   1.651
 3001TIP3    H2 8947   5.793   2.796   1.558
 3002TIP3   OH2 8948   5.958   1.786   2.031
 3002TIP3    H1 8949   6.024   1.856   2.013
 3002TIP3    H2 8950   5.967   1.776   2.128
 3003TIP3   OH2 8951   6.234   2.100   2.836
 3003TIP3    H1 8952   6.257   2.153   2.915
 3003TIP3    H2 8953   6.288   2.020   2.848
 3004TIP3   OH2 8954   6.106   1.506   2.130
 3004TIP3    H1 8955   6.103   1.581   2.192
 3004TIP3    H2 8956   6.168   1.540   2.062
 3005TIP3   OH2 8957   5.519   2.795   1.684
 3005TIP3    H1 8958   5.490   2.866   1.623
 3005TIP3    H2 8959   5.504   2.838   1.771
 3006TIP3   OH2 8960   5.621   1.510   1.919
 3006TIP3    H1 8961   5.620   1.600   1.959
 3006TIP3    H2 8962   5.717   1.490   1.929
 3007TIP3   OH2 8963   6.872   2.003   2.819
 3007TIP3    H1 8964   6.774   2.001   2.826
 3007TIP3    H2 8965   6.884   1.960   2.734
 3008TIP3   OH2 8966   6.523   2.196   2.206
 3008TIP3    H1 8967   6.448   2.136   2.218
 3008TIP3    H2 8968   6.595   2.150   2.254
 3009TIP3   OH2 8969   5.238   2.422   1.676
 3009TIP3    H1 8970   5.306   2.491   1.686
 3009TIP3    H2 8971   5.282   2.365   1.609
 3010TIP3   OH2 8972   5.150   1.689   1.767
 3010TIP3    H1 8973   5.180   1.782   1.776
 3010TIP3    H2 8974   5.064   1.695   1.810
 3011TIP3   OH2 8975   6.493   3.154   2.154
 3011TIP3    H1 8976   6.450   3.201   2.079
 3011TIP3    H2 8977   6.587   3.173   2.134
 3012TIP3   OH2 8978   5.568   1.420   2.681
 3012TIP3    H1 8979   5.538   1.386   2.595
 3012TIP3    H2 8980   5.558   1.342   2.739
 3013TIP3   OH2 8981   5.103   2.636   2.060
 3013TIP3    H1 8982   5.041   2.669   2.127
 3013TIP3    H2 8983   5.071   2.681   1.979
 3014TIP3   OH2 8984   5.268   3.187   3.129
 3014TIP3    H1 8985   5.352   3.189   3.181
 3014TIP3    H2 8986   5.245   3.093   3.134
 3015TIP3   OH2 8987   5.754   3.145   3.176
 3015TIP3    H1 8988   5.845   3.113   3.181
 3015TIP3    H2 8989   5.719   3.087   3.105
 3016TIP3   OH2 8990   5.725   2.721   1.303
 3016TIP3    H1 8991   5.671   2.649   1.344
 3016TIP3    H2 8992   5.802   2.670   1.273
 3017TIP3   OH2 8993   6.383   3.054   2.913
 3017TIP3    H1 8994   6.377   2.983   2.981
 3017TIP3    H2 8995   6.461   3.104   2.943
 3018TIP3   OH2 8996   6.161   2.759   1.219
 3018TIP3    H1 8997   6.204   2.695   1.280
 3018TIP3    H2 8998   6.220   2.757   1.141
 3019TIP3   OH2 8999   5.396   2.588   3.334
 3019TIP3    H1 9000   5.411   2.492   3.341
 3019TIP3    H2 9001   5.308   2.592   3.291
 3020TIP3   OH2 9002   5.374   2.234   1.531
 3020TIP3    H1 9003   5.432   2.207   1.604
 3020TIP3    H2 9004   5.441   2.240   1.458
 3021TIP3   OH2 9005   6.004   2.675   3.108
 3021TIP3    H1 9006   5.961   2.693   3.022
 3021TIP3    H2 9007   6.034   2.583   3.098
 3022TIP3   OH2 9008   5.884   2.436   1.336
 3022TIP3    H1 9009   5.887   2.449   1.432
 3022TIP3    H2 9010   5.885   2.338   1.331
 3023TIP3   OH2 9011   6.495   2.685   2.715
 3023TIP3    H1 9012   6.570   2.729   2.671
 3023TIP3    H2 9013   6.425   2.752   2.701
 3024TIP3   OH2 9014   5.515   2.322   3.318
 3024TIP3    H1 9015   5.592   2.270   3.295
 3024TIP3    H2 9016   5.541   2.356   3.407
 3025TIP3   OH2 9017   5.575   2.145   1.746
 3025TIP3    H1 9018   5.552   2.107   1.833
 3025TIP3    H2 9019   5.615   2.069   1.700
 3026TIP3   OH2 9020   5.849   2.206   2.978
 3026TIP3    H1 9021   5.772   2.266   2.981
 3026TIP3    H2 9022   5.899   2.240   2.900
 3027TIP3   OH2 9023   5.684   1.937   1.591
 3027TIP3    H1 9024   5.659   1.944   1.497
 3027TIP3    H2 9025   5.782   1.943   1.583
 3028TIP3   OH2 9026   6.367   2.608   3.111
 3028TIP3    H1 9027   6.446   2.579   3.064
 3028TIP3    H2 9028   6.362   2.544   3.184
 3029TIP3   OH2 9029   6.500   2.266   1.257
 3029TIP3    H1 9030   6.479   2.220   1.173
 3029TIP3    H2 9031   6.468   2.356   1.234
 3030TIP3   OH2 9032   5.973   1.996   3.104
 3030TIP3    H1 9033   5.974   1.917   3.046
 3030TIP3    H2 9034   5.929   2.063   3.046
 3031TIP3   OH2 9035   5.976   1.782   2.911
 3031TIP3    H1 9036   6.004   1.823   2.827
 3031TIP3    H2 9037   5.883   1.759   2.893
 3032TIP3   OH2 9038   6.000   2.316   2.784
 3032TIP3    H1 9039   6.085   2.328   2.741
 3032TIP3    H2 9040   5.944   2.383   2.739
 3033TIP3   OH2 9041   6.583   2.283   3.164
 3033TIP3    H1 9042   6.630   2.200   3.177
 3033TIP3    H2 9043   6.652   2.340   3.128
 3034TIP3   OH2 9044   6.624   2.537   2.901
 3034TIP3    H1 9045   6.567   2.592   2.843
 3034TIP3    H2 9046   6.712   2.558   2.862
 3035TIP3   OH2 9047   5.852   2.103   3.336
 3035TIP3    H1 9048   5.783   2.035   3.352
 3035TIP3    H2 9049   5.886   2.077   3.248
 3036TIP3   OH2 9050   6.107   1.545   2.981
 3036TIP3    H1 9051   6.059   1.627   2.958
 3036TIP3    H2 9052   6.038   1.477   2.970
 3037TIP3   OH2 9053   6.233   2.047   3.196
 3037TIP3    H1 9054   6.220   2.034   3.291
 3037TIP3    H2 9055   6.144   2.024   3.164
 3038TIP3   OH2 9056   6.472   1.998   3.050
 3038TIP3    H1 9057   6.397   1.999   3.113
 3038TIP3    H2 9058   6.546   1.968   3.107
 3039TIP3   OH2 9059   6.702   1.940   3.201
 3039TIP3    H1 9060   6.715   1.845   3.217
 3039TIP3    H2 9061   6.697   1.977   3.291
 3040TIP3   OH2 9062   5.689   1.884   3.391
 3040TIP3    H1 9063   5.695   1.792   3.358
 3040TIP3    H2 9064   5.727   1.873   3.481
 3041TIP3   OH2 9065   6.201   1.555   3.239
 3041TIP3    H1 9066   6.268   1.484   3.233
 3041TIP3    H2 9067   6.161   1.549   3.150
 3042TIP3   OH2 9068   6.268   1.769   3.397
 3042TIP3    H1 9069   6.246   1.698   3.333
 3042TIP3    H2 9070   6.189   1.828   3.390
 3043TIP3   OH2 9071   5.490   2.998   1.496
 3043TIP3    H1 9072   5.586   2.990   1.477
 3043TIP3    H2 9073   5.462   3.050   1.419
 3044TIP3   OH2 9074   4.968   2.381   1.710
 3044TIP3    H1 9075   5.064   2.402   1.697
 3044TIP3    H2 9076   4.963   2.293   1.668
 3045TIP3   OH2 9077   4.886   2.991   2.127
 3045TIP3    H1 9078   4.819   2.931   2.090
 3045TIP3    H2 9079   4.930   2.932   2.193
 3046TIP3   OH2 9080   5.021   2.838   2.313
 3046TIP3    H1 9081   5.007   2.769   2.380
 3046TIP3    H2 9082   5.071   2.903   2.366
 3047TIP3   OH2 9083   6.748   3.241   2.114
 3047TIP3    H1 9084   6.773   3.275   2.202
 3047TIP3    H2 9085   6.812   3.285   2.056
 3048TIP3   OH2 9086   6.776   3.263   2.397
 3048TIP3    H1 9087   6.731   3.176   2.392
 3048TIP3    H2 9088   6.850   3.240   2.454
 3049TIP3   OH2 9089   6.822   2.940   2.969
 3049TIP3    H1 9090   6.750   2.950   3.034
 3049TIP3    H2 9091   6.864   3.029   2.973
 3050TIP3   OH2 9092   6.639   2.453   1.587
 3050TIP3    H1 9093   6.706   2.518   1.558
 3050TIP3    H2 9094   6.683   2.415   1.666
 3051TIP3   OH2 9095   6.766   2.321   1.792
 3051TIP3    H1 9096   6.700   2.279   1.851
 3051TIP3    H2 9097   6.831   2.357   1.856
 3052TIP3   OH2 9098   6.822   2.714   2.224
 3052TIP3    H1 9099   6.876   2.647   2.176
 3052TIP3    H2 9100   6.817   2.787   2.158
 3053TIP3   OH2 9101   6.650   3.013   2.418
 3053TIP3    H1 9102   6.579   3.055   2.469
 3053TIP3    H2 9103   6.600   2.966   2.347
 3054TIP3   OH2 9104   6.704   2.229   1.437
 3054TIP3    H1 9105   6.631   2.230   1.371
 3054TIP3    H2 9106   6.677   2.305   1.493
 3055TIP3   OH2 9107   6.573   1.905   1.391
 3055TIP3    H1 9108   6.529   1.934   1.310
 3055TIP3    H2 9109   6.549   1.810   1.391
 3056TIP3   OH2 9110   6.578   2.178   1.936
 3056TIP3    H1 9111   6.588   2.082   1.930
 3056TIP3    H2 9112   6.564   2.192   2.032
 3057TIP3   OH2 9113   5.205   2.249   2.685
 3057TIP3    H1 9114   5.203   2.218   2.593
 3057TIP3    H2 9115   5.302   2.251   2.701
 3058TIP3   OH2 9116   6.869   2.603   2.795
 3058TIP3    H1 9117   6.941   2.536   2.784
 3058TIP3    H2 9118   6.895   2.671   2.731
 3059TIP3   OH2 9119   7.053   2.405   2.805
 3059TIP3    H1 9120   6.978   2.356   2.845
 3059TIP3    H2 9121   7.126   2.341   2.822
 3060TIP3   OH2 9122   6.512   1.643   1.392
 3060TIP3    H1 9123   6.592   1.603   1.432
 3060TIP3    H2 9124   6.447   1.571   1.396
 3061TIP3   OH2 9125   6.576   1.894   1.829
 3061TIP3    H1 9126   6.617   1.806   1.845
 3061TIP3    H2 9127   6.634   1.927   1.758
 3062TIP3   OH2 9128   6.736   2.066   2.327
 3062TIP3    H1 9129   6.822   2.091   2.285
 3062TIP3    H2 9130   6.751   2.103   2.416
 3063TIP3   OH2 9131   6.808   2.212   2.558
 3063TIP3    H1 9132   6.730   2.246   2.607
 3063TIP3    H2 9133   6.840   2.293   2.513
 3064TIP3   OH2 9134   5.423   1.934   3.354
 3064TIP3    H1 9135   5.520   1.931   3.361
 3064TIP3    H2 9136   5.399   1.850   3.397
 3065TIP3   OH2 9137   7.259   1.805   3.113
 3065TIP3    H1 9138   7.317   1.739   3.069
 3065TIP3    H2 9139   7.228   1.858   3.037
 3066TIP3   OH2 9140   6.685   1.645   1.870
 3066TIP3    H1 9141   6.734   1.628   1.953
 3066TIP3    H2 9142   6.625   1.567   1.868
 3067TIP3   OH2 9143   5.384   1.630   2.689
 3067TIP3    H1 9144   5.447   1.555   2.699
 3067TIP3    H2 9145   5.446   1.704   2.682
 3068TIP3   OH2 9146   5.184   1.902   2.760
 3068TIP3    H1 9147   5.236   1.900   2.677
 3068TIP3    H2 9148   5.212   1.986   2.798
 3069TIP3   OH2 9149   7.127   1.941   2.919
 3069TIP3    H1 9150   7.040   1.982   2.937
 3069TIP3    H2 9151   7.098   1.868   2.861
 3070TIP3   OH2 9152   6.764   1.573   1.503
 3070TIP3    H1 9153   6.806   1.504   1.448
 3070TIP3    H2 9154   6.829   1.646   1.499
 3071TIP3   OH2 9155   5.170   1.406   2.260
 3071TIP3    H1 9156   5.078   1.401   2.291
 3071TIP3    H2 9157   5.162   1.464   2.182
 3072TIP3   OH2 9158   6.328   3.111   1.769
 3072TIP3    H1 9159   6.382   3.099   1.688
 3072TIP3    H2 9160   6.381   3.176   1.818
 3073TIP3   OH2 9161   5.391   1.486   3.077
 3073TIP3    H1 9162   5.341   1.481   3.160
 3073TIP3    H2 9163   5.324   1.524   3.017
 3074TIP3   OH2 9164   5.432   2.910   3.154
 3074TIP3    H1 9165   5.338   2.891   3.138
 3074TIP3    H2 9166   5.439   2.898   3.250
 3075TIP3   OH2 9167   5.612   2.948   2.702
 3075TIP3    H1 9168   5.562   3.024   2.665
 3075TIP3    H2 9169   5.697   2.963   2.656
 3076TIP3   OH2 9170   6.053   3.189   2.839
 3076TIP3    H1 9171   6.095   3.190   2.928
 3076TIP3    H2 9172   6.118   3.242   2.788
 3077TIP3   OH2 9173   6.231   3.344   2.701
 3077TIP3    H1 9174   6.302   3.294   2.658
 3077TIP3    H2 9175   6.284   3.401   2.761
 3078TIP3   OH2 9176   7.026   1.703   2.800
 3078TIP3    H1 9177   6.936   1.694   2.765
 3078TIP3    H2 9178   7.060   1.612   2.789
 3079TIP3   OH2 9179   5.285   3.203   2.727
 3079TIP3    H1 9180   5.195   3.235   2.705
 3079TIP3    H2 9181   5.298   3.247   2.812
 3080TIP3   OH2 9182   5.521   3.183   2.585
 3080TIP3    H1 9183   5.435   3.195   2.630
 3080TIP3    H2 9184   5.501   3.216   2.495
 3081TIP3   OH2 9185   5.947   3.210   2.382
 3081TIP3    H1 9186   5.877   3.229   2.317
 3081TIP3    H2 9187   5.959   3.297   2.425
 3082TIP3   OH2 9188   6.216   3.149   2.435
 3082TIP3    H1 9189   6.122   3.167   2.415
 3082TIP3    H2 9190   6.260   3.224   2.390
 3083TIP3   OH2 9191   6.422   3.340   2.347
 3083TIP3    H1 9192   6.408   3.425   2.300
 3083TIP3    H2 9193   6.448   3.281   2.274
 3084TIP3   OH2 9194   5.198   2.997   2.468
 3084TIP3    H1 9195   5.223   2.970   2.559
 3084TIP3    H2 9196   5.270   2.954   2.418
 3085TIP3   OH2 9197   5.393   2.869   2.328
 3085TIP3    H1 9198   5.407   2.785   2.378
 3085TIP3    H2 9199   5.484   2.905   2.326
 3086TIP3   OH2 9200   5.659   2.962   2.334
 3086TIP3    H1 9201   5.689   2.869   2.324
 3086TIP3    H2 9202   5.705   2.985   2.416
 3087TIP3   OH2 9203   6.229   1.617   2.414
 3087TIP3    H1 9204   6.190   1.546   2.468
 3087TIP3    H2 9205   6.305   1.573   2.373
 3088TIP3   OH2 9206   6.752   1.500   2.323
 3088TIP3    H1 9207   6.790   1.552   2.248
 3088TIP3    H2 9208   6.658   1.522   2.315
 3089TIP3   OH2 9209   6.850   1.600   2.087
 3089TIP3    H1 9210   6.924   1.548   2.049
 3089TIP3    H2 9211   6.884   1.691   2.072
 3090TIP3   OH2 9212   5.480   1.326   2.433
 3090TIP3    H1 9213   5.388   1.292   2.436
 3090TIP3    H2 9214   5.530   1.242   2.430
 3091TIP3   OH2 9215   5.268   1.199   2.085
 3091TIP3    H1 9216   5.300   1.256   2.013
 3091TIP3    H2 9217   5.240   1.265   2.152
 3092TIP3   OH2 9218   5.924   1.362   2.316
 3092TIP3    H1 9219   5.982   1.408   2.253
 3092TIP3    H2 9220   5.955   1.397   2.400
 3093TIP3   OH2 9221   6.467   1.508   2.299
 3093TIP3    H1 9222   6.472   1.468   2.211
 3093TIP3    H2 9223   6.456   1.428   2.356
 3094TIP3   OH2 9224   6.503   1.431   1.862
 3094TIP3    H1 9225   6.416   1.474   1.875
 3094TIP3    H2 9226   6.489   1.346   1.908
 3095TIP3   OH2 9227   4.985   2.772   1.858
 3095TIP3    H1 9228   4.899   2.740   1.826
 3095TIP3    H2 9229   4.976   2.866   1.838
 3096TIP3   OH2 9230   5.387   1.359   1.848
 3096TIP3    H1 9231   5.435   1.294   1.796
 3096TIP3    H2 9232   5.460   1.413   1.884
 3097TIP3   OH2 9233   5.898   1.534   1.943
 3097TIP3    H1 9234   5.958   1.487   2.003
 3097TIP3    H2 9235   5.918   1.627   1.969
 3098TIP3   OH2 9236   5.757   2.954   1.444
 3098TIP3    H1 9237   5.845   2.977   1.408
 3098TIP3    H2 9238   5.735   2.879   1.384
 3099TIP3   OH2 9239   6.477   3.077   1.537
 3099TIP3    H1 9240   6.468   2.980   1.525
 3099TIP3    H2 9241   6.431   3.109   1.457
 3100TIP3   OH2 9242   5.688   1.608   3.324
 3100TIP3    H1 9243   5.654   1.538   3.382
 3100TIP3    H2 9244   5.783   1.608   3.352
 3101TIP3   OH2 9245   5.938   1.606   3.443
 3101TIP3    H1 9246   6.023   1.581   3.405
 3101TIP3    H2 9247   5.925   1.536   3.511
 3102TIP3   OH2 9248   5.060   2.792   1.499
 3102TIP3    H1 9249   5.060   2.815   1.593
 3102TIP3    H2 9250   5.148   2.751   1.486
 3103TIP3   OH2 9251   6.764   1.670   3.231
 3103TIP3    H1 9252   6.783   1.639   3.323
 3103TIP3    H2 9253   6.853   1.664   3.190
 3104TIP3   OH2 9254   6.701   3.219   2.724
 3104TIP3    H1 9255   6.622   3.189   2.674
 3104TIP3    H2 9256   6.682   3.315   2.729
 3105TIP3   OH2 9257   7.264   2.484   2.236
 3105TIP3    H1 9258   7.290   2.416   2.301
 3105TIP3    H2 9259   7.342   2.541   2.237
 3106TIP3   OH2 9260   7.237   2.900   1.961
 3106TIP3    H1 9261   7.229   2.802   1.962
 3106TIP3    H2 9262   7.333   2.909   1.953
 3107TIP3   OH2 9263   6.944   2.101   1.742
 3107TIP3    H1 9264   6.894   2.183   1.760
 3107TIP3    H2 9265   6.874   2.046   1.702
 3108TIP3   OH2 9266   7.003   2.387   1.922
 3108TIP3    H1 9267   7.052   2.309   1.957
 3108TIP3    H2 9268   7.061   2.415   1.850
 3109TIP3   OH2 9269   7.870   3.320   1.551
 3109TIP3    H1 9270   7.965   3.295   1.550
 3109TIP3    H2 9271   7.855   3.332   1.645
 3110TIP3   OH2 9272   7.773   2.805   1.921
 3110TIP3    H1 9273   7.782   2.778   1.830
 3110TIP3    H2 9274   7.851   2.863   1.935
 3111TIP3   OH2 9275   7.492   1.981   1.929
 3111TIP3    H1 9276   7.505   2.046   1.858
 3111TIP3    H2 9277   7.457   1.905   1.877
 3112TIP3   OH2 9278   7.151   2.181   2.023
 3112TIP3    H1 9279   7.232   2.160   2.074
 3112TIP3    H2 9280   7.167   2.126   1.943
 3113TIP3   OH2 9281   7.576   2.382   1.815
 3113TIP3    H1 9282   7.668   2.349   1.828
 3113TIP3    H2 9283   7.533   2.299   1.785
 3114TIP3   OH2 9284   7.516   1.970   2.361
 3114TIP3    H1 9285   7.458   2.001   2.289
 3114TIP3    H2 9286   7.460   1.989   2.438
 3115TIP3   OH2 9287   7.624   2.736   2.153
 3115TIP3    H1 9288   7.559   2.802   2.188
 3115TIP3    H2 9289   7.665   2.787   2.081
 3116TIP3   OH2 9290   7.378   2.081   2.148
 3116TIP3    H1 9291   7.444   2.151   2.166
 3116TIP3    H2 9292   7.422   2.038   2.070
 3117TIP3   OH2 9293   7.451   2.933   2.243
 3117TIP3    H1 9294   7.424   3.020   2.206
 3117TIP3    H2 9295   7.372   2.915   2.298
 3118TIP3   OH2 9296   6.840   2.624   1.479
 3118TIP3    H1 9297   6.800   2.650   1.394
 3118TIP3    H2 9298   6.871   2.710   1.514
 3119TIP3   OH2 9299   7.368   2.526   1.707
 3119TIP3    H1 9300   7.330   2.467   1.639
 3119TIP3    H2 9301   7.445   2.473   1.738
 3120TIP3   OH2 9302   7.500   2.940   1.853
 3120TIP3    H1 9303   7.475   2.905   1.766
 3120TIP3    H2 9304   7.584   2.896   1.872
 3121TIP3   OH2 9305   7.514   2.496   2.063
 3121TIP3    H1 9306   7.541   2.472   1.972
 3121TIP3    H2 9307   7.555   2.584   2.077
 3122TIP3   OH2 9308   7.650   3.047   2.397
 3122TIP3    H1 9309   7.589   3.113   2.438
 3122TIP3    H2 9310   7.585   2.996   2.344
 3123TIP3   OH2 9311   7.402   2.618   2.488
 3123TIP3    H1 9312   7.404   2.704   2.535
 3123TIP3    H2 9313   7.309   2.592   2.503
 3124TIP3   OH2 9314   7.746   3.099   1.425
 3124TIP3    H1 9315   7.771   3.188   1.455
 3124TIP3    H2 9316   7.683   3.118   1.354
 3125TIP3   OH2 9317   7.446   3.218   2.475
 3125TIP3    H1 9318   7.411   3.220   2.384
 3125TIP3    H2 9319   7.366   3.198   2.528
 3126TIP3   OH2 9320   7.246   2.366   1.511
 3126TIP3    H1 9321   7.177   2.410   1.456
 3126TIP3    H2 9322   7.204   2.282   1.530
 3127TIP3   OH2 9323   7.026   2.753   2.421
 3127TIP3    H1 9324   6.959   2.731   2.353
 3127TIP3    H2 9325   7.063   2.665   2.444
 3128TIP3   OH2 9326   6.881   2.944   2.053
 3128TIP3    H1 9327   6.977   2.940   2.045
 3128TIP3    H2 9328   6.869   3.023   2.108
 3129TIP3   OH2 9329   7.838   3.165   2.237
 3129TIP3    H1 9330   7.844   3.258   2.270
 3129TIP3    H2 9331   7.769   3.130   2.296
 3130TIP3   OH2 9332   7.614   3.306   1.197
 3130TIP3    H1 9333   7.569   3.289   1.112
 3130TIP3    H2 9334   7.581   3.395   1.220
 3131TIP3   OH2 9335   7.049   3.158   1.581
 3131TIP3    H1 9336   7.096   3.150   1.667
 3131TIP3    H2 9337   6.997   3.076   1.580
 3132TIP3   OH2 9338   7.880   3.272   1.132
 3132TIP3    H1 9339   7.787   3.285   1.158
 3132TIP3    H2 9340   7.894   3.178   1.152
 3133TIP3   OH2 9341   7.233   2.933   2.406
 3133TIP3    H1 9342   7.280   2.919   2.490
 3133TIP3    H2 9343   7.157   2.871   2.414
 3134TIP3   OH2 9344   7.615   1.746   2.218
 3134TIP3    H1 9345   7.529   1.724   2.179
 3134TIP3    H2 9346   7.598   1.835   2.253
 3135TIP3   OH2 9347   7.558   2.278   2.216
 3135TIP3    H1 9348   7.504   2.295   2.295
 3135TIP3    H2 9349   7.538   2.358   2.162
 3136TIP3   OH2 9350   7.446   2.160   1.722
 3136TIP3    H1 9351   7.357   2.128   1.745
 3136TIP3    H2 9352   7.459   2.117   1.634
 3137TIP3   OH2 9353   7.371   2.300   2.423
 3137TIP3    H1 9354   7.422   2.353   2.486
 3137TIP3    H2 9355   7.360   2.216   2.472
 3138TIP3   OH2 9356   7.399   1.726   1.129
 3138TIP3    H1 9357   7.407   1.761   1.219
 3138TIP3    H2 9358   7.357   1.799   1.082
 3139TIP3   OH2 9359   6.975   1.823   2.002
 3139TIP3    H1 9360   7.048   1.856   2.058
 3139TIP3    H2 9361   7.020   1.788   1.924
 3140TIP3   OH2 9362   6.939   1.804   1.523
 3140TIP3    H1 9363   6.984   1.844   1.445
 3140TIP3    H2 9364   6.878   1.876   1.545
 3141TIP3   OH2 9365   7.208   2.041   1.791
 3141TIP3    H1 9366   7.112   2.045   1.766
 3141TIP3    H2 9367   7.232   1.948   1.776
 3142TIP3   OH2 9368   7.485   2.038   1.476
 3142TIP3    H1 9369   7.568   2.050   1.428
 3142TIP3    H2 9370   7.419   2.053   1.404
 3143TIP3   OH2 9371   7.324   2.061   1.262
 3143TIP3    H1 9372   7.247   2.026   1.212
 3143TIP3    H2 9373   7.375   2.100   1.188
 3144TIP3   OH2 9374   7.393   2.859   2.631
 3144TIP3    H1 9375   7.472   2.887   2.680
 3144TIP3    H2 9376   7.327   2.856   2.703
 3145TIP3   OH2 9377   7.368   1.797   1.762
 3145TIP3    H1 9378   7.334   1.725   1.820
 3145TIP3    H2 9379   7.417   1.746   1.697
 3146TIP3   OH2 9380   7.827   2.204   2.220
 3146TIP3    H1 9381   7.734   2.230   2.201
 3146TIP3    H2 9382   7.873   2.290   2.225
 3147TIP3   OH2 9383   7.539   2.624   1.270
 3147TIP3    H1 9384   7.489   2.540   1.264
 3147TIP3    H2 9385   7.545   2.638   1.367
 3148TIP3   OH2 9386   7.933   2.888   2.297
 3148TIP3    H1 9387   7.966   2.879   2.387
 3148TIP3    H2 9388   7.909   2.982   2.292
 3149TIP3   OH2 9389   7.264   2.625   1.947
 3149TIP3    H1 9390   7.297   2.592   1.860
 3149TIP3    H2 9391   7.299   2.558   2.008
 3150TIP3   OH2 9392   7.679   2.743   1.068
 3150TIP3    H1 9393   7.653   2.834   1.093
 3150TIP3    H2 9394   7.645   2.693   1.145
 3151TIP3   OH2 9395   7.143   2.540   2.559
 3151TIP3    H1 9396   7.161   2.524   2.654
 3151TIP3    H2 9397   7.075   2.473   2.540
 3152TIP3   OH2 9398   7.870   2.655   2.578
 3152TIP3    H1 9399   7.815   2.607   2.513
 3152TIP3    H2 9400   7.956   2.613   2.562
 3153TIP3   OH2 9401   7.365   2.924   1.575
 3153TIP3    H1 9402   7.365   3.004   1.519
 3153TIP3    H2 9403   7.271   2.905   1.580
 3154TIP3   OH2 9404   6.924   2.230   1.273
 3154TIP3    H1 9405   6.971   2.314   1.296
 3154TIP3    H2 9406   6.848   2.234   1.336
 3155TIP3   OH2 9407   7.515   2.691   1.537
 3155TIP3    H1 9408   7.471   2.779   1.541
 3155TIP3    H2 9409   7.460   2.640   1.600
 3156TIP3   OH2 9410   7.631   3.263   2.040
 3156TIP3    H1 9411   7.666   3.340   1.991
 3156TIP3    H2 9412   7.710   3.234   2.089
 3157TIP3   OH2 9413   7.283   3.162   1.425
 3157TIP3    H1 9414   7.196   3.172   1.469
 3157TIP3    H2 9415   7.315   3.255   1.427
 3158TIP3   OH2 9416   7.349   2.049   2.569
 3158TIP3    H1 9417   7.252   2.048   2.578
 3158TIP3    H2 9418   7.376   1.987   2.638
 3159TIP3   OH2 9419   7.071   3.129   2.198
 3159TIP3    H1 9420   7.124   3.056   2.234
 3159TIP3    H2 9421   7.096   3.202   2.256
 3160TIP3   OH2 9422   7.355   2.773   0.884
 3160TIP3    H1 9423   7.358   2.680   0.855
 3160TIP3    H2 9424   7.338   2.764   0.980
 3161TIP3   OH2 9425   7.308   2.777   1.156
 3161TIP3    H1 9426   7.389   2.746   1.199
 3161TIP3    H2 9427   7.314   2.874   1.167
 3162TIP3   OH2 9428   7.039   2.472   1.359
 3162TIP3    H1 9429   6.972   2.517   1.414
 3162TIP3    H2 9430   7.054   2.540   1.291
 3163TIP3   OH2 9431   7.573   2.988   1.113
 3163TIP3    H1 9432   7.483   3.012   1.141
 3163TIP3    H2 9433   7.594   3.063   1.055
 3164TIP3   OH2 9434   7.312   3.052   1.170
 3164TIP3    H1 9435   7.281   3.122   1.108
 3164TIP3    H2 9436   7.298   3.096   1.257
 3165TIP3   OH2 9437   7.422   1.773   1.408
 3165TIP3    H1 9438   7.408   1.857   1.456
 3165TIP3    H2 9439   7.508   1.790   1.367
 3166TIP3   OH2 9440   7.036   2.677   1.162
 3166TIP3    H1 9441   7.105   2.745   1.173
 3166TIP3    H2 9442   7.079   2.622   1.093
 3167TIP3   OH2 9443   6.978   1.963   1.306
 3167TIP3    H1 9444   6.973   2.060   1.296
 3167TIP3    H2 9445   6.908   1.932   1.248
 3168TIP3   OH2 9446   7.349   1.680   2.169
 3168TIP3    H1 9447   7.331   1.643   2.080
 3168TIP3    H2 9448   7.346   1.599   2.225
 3169TIP3   OH2 9449   6.902   2.896   1.547
 3169TIP3    H1 9450   6.837   2.926   1.612
 3169TIP3    H2 9451   6.870   2.939   1.465
 3170TIP3   OH2 9452   7.063   3.443   2.621
 3170TIP3    H1 9453   7.149   3.443   2.669
 3170TIP3    H2 9454   7.043   3.348   2.620
 3171TIP3   OH2 9455   7.539   3.400   2.665
 3171TIP3    H1 9456   7.633   3.381   2.674
 3171TIP3    H2 9457   7.514   3.340   2.592
 3172TIP3   OH2 9458   7.516   2.976   0.794
 3172TIP3    H1 9459   7.455   2.906   0.827
 3172TIP3    H2 9460   7.601   2.931   0.807
 3173TIP3   OH2 9461   7.191   2.846   2.821
 3173TIP3    H1 9462   7.207   2.749   2.827
 3173TIP3    H2 9463   7.104   2.848   2.777
 3174TIP3   OH2 9464   7.174   2.493   1.012
 3174TIP3    H1 9465   7.228   2.464   1.088
 3174TIP3    H2 9466   7.243   2.497   0.943
 3175TIP3   OH2 9467   7.814   2.933   2.590
 3175TIP3    H1 9468   7.759   2.950   2.511
 3175TIP3    H2 9469   7.829   2.836   2.586
 3176TIP3   OH2 9470   7.666   2.677   0.810
 3176TIP3    H1 9471   7.684   2.711   0.901
 3176TIP3    H2 9472   7.592   2.618   0.831
 3177TIP3   OH2 9473   7.312   2.582   2.804
 3177TIP3    H1 9474   7.386   2.525   2.781
 3177TIP3    H2 9475   7.339   2.613   2.893
 3178TIP3   OH2 9476   7.375   2.396   1.234
 3178TIP3    H1 9477   7.348   2.355   1.317
 3178TIP3    H2 9478   7.417   2.322   1.185
 3179TIP3   OH2 9479   7.609   2.446   2.484
 3179TIP3    H1 9480   7.541   2.516   2.487
 3179TIP3    H2 9481   7.669   2.483   2.415
 3180TIP3   OH2 9482   7.481   2.187   1.073
 3180TIP3    H1 9483   7.449   2.199   0.981
 3180TIP3    H2 9484   7.574   2.161   1.052
 3181TIP3   OH2 9485   7.780   2.258   2.587
 3181TIP3    H1 9486   7.778   2.171   2.542
 3181TIP3    H2 9487   7.714   2.309   2.536
 3182TIP3   OH2 9488   7.781   2.029   2.420
 3182TIP3    H1 9489   7.790   2.079   2.336
 3182TIP3    H2 9490   7.693   1.989   2.407
 3183TIP3   OH2 9491   7.772   2.570   2.312
 3183TIP3    H1 9492   7.841   2.554   2.244
 3183TIP3    H2 9493   7.716   2.636   2.265
 3184TIP3   OH2 9494   7.652   2.362   2.822
 3184TIP3    H1 9495   7.584   2.293   2.835
 3184TIP3    H2 9496   7.685   2.340   2.732
 3185TIP3   OH2 9497   7.487   2.144   2.876
 3185TIP3    H1 9498   7.491   2.053   2.840
 3185TIP3    H2 9499   7.522   2.130   2.966
 3186TIP3   OH2 9500   7.276   3.257   0.984
 3186TIP3    H1 9501   7.373   3.252   0.971
 3186TIP3    H2 9502   7.252   3.307   0.905
 3187TIP3   OH2 9503   6.765   2.637   1.198
 3187TIP3    H1 9504   6.860   2.658   1.184
 3187TIP3    H2 9505   6.760   2.549   1.157
 3188TIP3   OH2 9506   6.680   3.248   1.615
 3188TIP3    H1 9507   6.614   3.187   1.577
 3188TIP3    H2 9508   6.725   3.189   1.679
 3189TIP3   OH2 9509   6.815   3.095   1.800
 3189TIP3    H1 9510   6.803   3.025   1.867
 3189TIP3    H2 9511   6.867   3.159   1.853
 3190TIP3   OH2 9512   7.000   2.508   2.172
 3190TIP3    H1 9513   6.997   2.473   2.080
 3190TIP3    H2 9514   7.097   2.508   2.188
 3191TIP3   OH2 9515   7.219   2.193   2.847
 3191TIP3    H1 9516   7.316   2.187   2.848
 3191TIP3    H2 9517   7.195   2.107   2.886
 3192TIP3   OH2 9518   7.174   1.890   2.182
 3192TIP3    H1 9519   7.234   1.812   2.185
 3192TIP3    H2 9520   7.240   1.962   2.176
 3193TIP3   OH2 9521   6.980   2.160   2.247
 3193TIP3    H1 9522   7.031   2.151   2.164
 3193TIP3    H2 9523   7.016   2.243   2.282
 3194TIP3   OH2 9524   6.966   1.659   1.749
 3194TIP3    H1 9525   6.873   1.658   1.778
 3194TIP3    H2 9526   6.962   1.719   1.672
 3195TIP3   OH2 9527   7.186   1.748   2.568
 3195TIP3    H1 9528   7.133   1.742   2.649
 3195TIP3    H2 9529   7.120   1.783   2.505
 3196TIP3   OH2 9530   7.227   3.170   2.640
 3196TIP3    H1 9531   7.133   3.147   2.624
 3196TIP3    H2 9532   7.236   3.153   2.734
 3197TIP3   OH2 9533   7.407   3.203   2.190
 3197TIP3    H1 9534   7.357   3.278   2.151
 3197TIP3    H2 9535   7.492   3.217   2.143
 3198TIP3   OH2 9536   7.837   3.431   2.327
 3198TIP3    H1 9537   7.884   3.439   2.414
 3198TIP3    H2 9538   7.888   3.492   2.270
 3199TIP3   OH2 9539   7.978   3.597   2.151
 3199TIP3    H1 9540   8.029   3.590   2.067
 3199TIP3    H2 9541   8.024   3.671   2.194
 3200TIP3   OH2 9542   7.082   3.460   2.215
 3200TIP3    H1 9543   6.992   3.491   2.191
 3200TIP3    H2 9544   7.094   3.505   2.299
 3201TIP3   OH2 9545   7.316   3.436   2.071
 3201TIP3    H1 9546   7.229   3.449   2.116
 3201TIP3    H2 9547   7.297   3.470   1.981
 3202TIP3   OH2 9548   7.716   3.473   1.873
 3202TIP3    H1 9549   7.643   3.487   1.809
 3202TIP3    H2 9550   7.729   3.565   1.906
 3203TIP3   OH2 9551   7.967   3.373   1.852
 3203TIP3    H1 9552   7.876   3.408   1.862
 3203TIP3    H2 9553   8.020   3.451   1.875
 3204TIP3   OH2 9554   6.992   3.254   1.957
 3204TIP3    H1 9555   7.019   3.226   2.047
 3204TIP3    H2 9556   7.064   3.211   1.905
 3205TIP3   OH2 9557   7.186   3.127   1.816
 3205TIP3    H1 9558   7.201   3.043   1.865
 3205TIP3    H2 9559   7.277   3.163   1.812
 3206TIP3   OH2 9560   7.453   3.221   1.820
 3206TIP3    H1 9561   7.481   3.128   1.808
 3206TIP3    H2 9562   7.500   3.242   1.902
 3207TIP3   OH2 9563   7.272   1.592   1.914
 3207TIP3    H1 9564   7.183   1.553   1.921
 3207TIP3    H2 9565   7.326   1.509   1.913
 3208TIP3   OH2 9566   7.063   1.455   1.576
 3208TIP3    H1 9567   7.086   1.512   1.501
 3208TIP3    H2 9568   7.034   1.520   1.643
 3209TIP3   OH2 9569   6.780   3.029   1.347
 3209TIP3    H1 9570   6.694   2.996   1.314
 3209TIP3    H2 9571   6.771   3.123   1.324
 3210TIP3   OH2 9572   7.180   1.612   1.340
 3210TIP3    H1 9573   7.233   1.544   1.297
 3210TIP3    H2 9574   7.248   1.674   1.371
 3211TIP3   OH2 9575   7.543   3.211   0.939
 3211TIP3    H1 9576   7.635   3.223   0.907
 3211TIP3    H2 9577   7.516   3.140   0.877
 3212TIP3   OH2 9578   7.477   1.867   2.806
 3212TIP3    H1 9579   7.443   1.795   2.863
 3212TIP3    H2 9580   7.571   1.868   2.834
 3213TIP3   OH2 9581   7.717   1.863   2.938
 3213TIP3    H1 9582   7.796   1.825   2.894
 3213TIP3    H2 9583   7.701   1.793   3.006
 3214TIP3   OH2 9584   6.856   3.048   0.985
 3214TIP3    H1 9585   6.863   3.071   1.079
 3214TIP3    H2 9586   6.943   3.006   0.969
 3215TIP3   OH2 9587   0.418   3.384   3.179
 3215TIP3    H1 9588   0.386   3.473   3.156
 3215TIP3    H2 9589   0.348   3.328   3.140
 3216TIP3   OH2 9590   0.418   3.384   3.566
 3216TIP3    H1 9591   0.453   3.355   3.652
 3216TIP3    H2 9592   0.377   3.302   3.533
 3217TIP3   OH2 9593  -0.249   3.258   3.887
 3217TIP3    H1 9594  -0.276   3.203   3.962
 3217TIP3    H2 9595  -0.211   3.334   3.931
 3218TIP3   OH2 9596   0.671   3.676   3.255
 3218TIP3    H1 9597   0.653   3.592   3.300
 3218TIP3    H2 9598   0.691   3.733   3.331
 3219TIP3   OH2 9599  -0.300   3.667   3.585
 3219TIP3    H1 9600  -0.320   3.573   3.605
 3219TIP3    H2 9601  -0.220   3.679   3.638
 3220TIP3   OH2 9602  -0.525   3.171   3.562
 3220TIP3    H1 9603  -0.493   3.127   3.643
 3220TIP3    H2 9604  -0.468   3.248   3.557
 3221TIP3   OH2 9605   0.318   4.110   3.248
 3221TIP3    H1 9606   0.388   4.045   3.258
 3221TIP3    H2 9607   0.295   4.128   3.340
 3222TIP3   OH2 9608   0.220   3.607   3.608
 3222TIP3    H1 9609   0.258   3.526   3.569
 3222TIP3    H2 9610   0.304   3.652   3.633
 3223TIP3   OH2 9611   1.233   2.925   3.607
 3223TIP3    H1 9612   1.262   3.009   3.649
 3223TIP3    H2 9613   1.258   2.942   3.514
 3224TIP3   OH2 9614   0.630   3.107   3.640
 3224TIP3    H1 9615   0.674   3.022   3.660
 3224TIP3    H2 9616   0.599   3.090   3.549
 3225TIP3   OH2 9617  -0.026   2.764   3.604
 3225TIP3    H1 9618  -0.046   2.839   3.544
 3225TIP3    H2 9619  -0.074   2.692   3.558
 3226TIP3   OH2 9620   0.665   2.859   3.229
 3226TIP3    H1 9621   0.739   2.845   3.293
 3226TIP3    H2 9622   0.715   2.893   3.152
 3227TIP3   OH2 9623  -0.393   2.969   3.719
 3227TIP3    H1 9624  -0.311   2.960   3.770
 3227TIP3    H2 9625  -0.369   2.925   3.635
 3228TIP3   OH2 9626   0.049   3.169   3.492
 3228TIP3    H1 9627   0.140   3.142   3.514
 3228TIP3    H2 9628   0.008   3.082   3.470
 3229TIP3   OH2 9629   1.306   3.132   3.781
 3229TIP3    H1 9630   1.224   3.181   3.760
 3229TIP3    H2 9631   1.331   3.173   3.865
 3230TIP3   OH2 9632  -0.035   2.748   4.045
 3230TIP3    H1 9633  -0.088   2.793   3.977
 3230TIP3    H2 9634  -0.087   2.767   4.125
 3231TIP3   OH2 9635   0.320   3.613   3.050
 3231TIP3    H1 9636   0.279   3.583   2.968
 3231TIP3    H2 9637   0.278   3.700   3.064
 3232TIP3   OH2 9638   0.071   3.533   3.837
 3232TIP3    H1 9639   0.010   3.597   3.879
 3232TIP3    H2 9640   0.112   3.584   3.765
 3233TIP3   OH2 9641   0.872   2.864   3.405
 3233TIP3    H1 9642   0.859   2.820   3.490
 3233TIP3    H2 9643   0.926   2.941   3.429
 3234TIP3   OH2 9644  -0.153   2.865   3.824
 3234TIP3    H1 9645  -0.096   2.941   3.849
 3234TIP3    H2 9646  -0.102   2.828   3.749
 3235TIP3   OH2 9647  -0.115   3.711   3.955
 3235TIP3    H1 9648  -0.175   3.765   3.899
 3235TIP3    H2 9649  -0.181   3.668   4.012
 3236TIP3   OH2 9650   0.699   3.924   3.349
 3236TIP3    H1 9651   0.630   3.921   3.421
 3236TIP3    H2 9652   0.728   4.019   3.358
 3237TIP3   OH2 9653   1.027   2.822   3.772
 3237TIP3    H1 9654   0.941   2.853   3.741
 3237TIP3    H2 9655   1.088   2.856   3.703
 3238TIP3   OH2 9656   0.319   2.467   3.755
 3238TIP3    H1 9657   0.303   2.372   3.773
 3238TIP3    H2 9658   0.243   2.507   3.802
 3239TIP3   OH2 9659   0.611   3.796   3.026
 3239TIP3    H1 9660   0.573   3.761   2.945
 3239TIP3    H2 9661   0.606   3.717   3.084
 3240TIP3   OH2 9662   0.944   3.855   3.736
 3240TIP3    H1 9663   0.948   3.768   3.690
 3240TIP3    H2 9664   1.006   3.908   3.680
 3241TIP3   OH2 9665   0.254   3.235   3.006
 3241TIP3    H1 9666   0.173   3.284   2.982
 3241TIP3    H2 9667   0.285   3.207   2.918
 3242TIP3   OH2 9668   1.155   3.477   3.603
 3242TIP3    H1 9669   1.075   3.533   3.605
 3242TIP3    H2 9670   1.192   3.503   3.516
 3243TIP3   OH2 9671   0.607   3.341   2.985
 3243TIP3    H1 9672   0.549   3.351   3.064
 3243TIP3    H2 9673   0.687   3.301   3.026
 3244TIP3   OH2 9674   0.833   3.352   3.899
 3244TIP3    H1 9675   0.831   3.436   3.948
 3244TIP3    H2 9676   0.747   3.357   3.853
 3245TIP3   OH2 9677  -0.165   3.308   3.396
 3245TIP3    H1 9678  -0.206   3.248   3.331
 3245TIP3    H2 9679  -0.086   3.257   3.423
 3246TIP3   OH2 9680  -0.016   3.745   3.535
 3246TIP3    H1 9681  -0.057   3.686   3.471
 3246TIP3    H2 9682   0.068   3.699   3.556
 3247TIP3   OH2 9683   0.021   3.274   3.750
 3247TIP3    H1 9684   0.024   3.266   3.653
 3247TIP3    H2 9685   0.028   3.370   3.766
 3248TIP3   OH2 9686   0.500   3.920   3.527
 3248TIP3    H1 9687   0.487   4.001   3.581
 3248TIP3    H2 9688   0.483   3.849   3.592
 3249TIP3   OH2 9689   0.100   3.845   4.074
 3249TIP3    H1 9690   0.045   3.903   4.130
 3249TIP3    H2 9691   0.031   3.789   4.033
 3250TIP3   OH2 9692   0.474   3.154   2.825
 3250TIP3    H1 9693   0.510   3.239   2.854
 3250TIP3    H2 9694   0.406   3.175   2.758
 3251TIP3   OH2 9695  -0.153   3.397   4.181
 3251TIP3    H1 9696  -0.145   3.480   4.234
 3251TIP3    H2 9697  -0.248   3.394   4.167
 3252TIP3   OH2 9698   0.209   3.878   3.068
 3252TIP3    H1 9699   0.208   3.944   3.138
 3252TIP3    H2 9700   0.131   3.903   3.016
 3253TIP3   OH2 9701  -0.118   4.016   4.163
 3253TIP3    H1 9702  -0.137   4.017   4.067
 3253TIP3    H2 9703  -0.194   3.967   4.199
 3254TIP3   OH2 9704   0.955   2.413   2.859
 3254TIP3    H1 9705   0.873   2.436   2.908
 3254TIP3    H2 9706   0.969   2.495   2.807
 3255TIP3   OH2 9707  -0.290   3.147   3.201
 3255TIP3    H1 9708  -0.357   3.189   3.144
 3255TIP3    H2 9709  -0.334   3.064   3.223
 3256TIP3   OH2 9710   0.748   3.785   2.417
 3256TIP3    H1 9711   0.764   3.879   2.392
 3256TIP3    H2 9712   0.836   3.746   2.396
 3257TIP3   OH2 9713   1.206   4.203   3.807
 3257TIP3    H1 9714   1.191   4.130   3.744
 3257TIP3    H2 9715   1.119   4.208   3.852
 3258TIP3   OH2 9716   0.300   3.971   3.931
 3258TIP3    H1 9717   0.300   4.063   3.966
 3258TIP3    H2 9718   0.229   3.930   3.986
 3259TIP3   OH2 9719   0.063   4.099   2.886
 3259TIP3    H1 9720   0.018   4.085   2.801
 3259TIP3    H2 9721   0.035   4.189   2.911
 3260TIP3   OH2 9722   0.271   3.991   2.523
 3260TIP3    H1 9723   0.332   3.921   2.493
 3260TIP3    H2 9724   0.306   4.010   2.613
 3261TIP3   OH2 9725   0.314   4.047   2.798
 3261TIP3    H1 9726   0.225   4.064   2.837
 3261TIP3    H2 9727   0.348   3.981   2.860
 3262TIP3   OH2 9728   1.084   3.312   4.078
 3262TIP3    H1 9729   1.004   3.323   4.023
 3262TIP3    H2 9730   1.100   3.216   4.068
 3263TIP3   OH2 9731   0.082   2.544   3.888
 3263TIP3    H1 9732  -0.006   2.513   3.859
 3263TIP3    H2 9733   0.057   2.626   3.935
 3264TIP3   OH2 9734   0.618   2.659   4.079
 3264TIP3    H1 9735   0.687   2.633   4.144
 3264TIP3    H2 9736   0.535   2.641   4.127
 3265TIP3   OH2 9737   0.852   3.088   3.995
 3265TIP3    H1 9738   0.804   3.086   4.081
 3265TIP3    H2 9739   0.831   3.176   3.961
 3266TIP3   OH2 9740   0.231   2.643   2.866
 3266TIP3    H1 9741   0.200   2.612   2.953
 3266TIP3    H2 9742   0.192   2.576   2.807
 3267TIP3   OH2 9743   0.017   3.059   3.909
 3267TIP3    H1 9744  -0.041   3.083   3.984
 3267TIP3    H2 9745   0.010   3.140   3.853
 3268TIP3   OH2 9746  -0.103   2.949   3.422
 3268TIP3    H1 9747  -0.197   2.926   3.435
 3268TIP3    H2 9748  -0.088   2.908   3.333
 3269TIP3   OH2 9749   0.388   3.033   3.147
 3269TIP3    H1 9750   0.340   3.104   3.099
 3269TIP3    H2 9751   0.445   2.997   3.076
 3270TIP3   OH2 9752   0.563   3.310   4.230
 3270TIP3    H1 9753   0.541   3.237   4.292
 3270TIP3    H2 9754   0.658   3.323   4.252
 3271TIP3   OH2 9755   0.545   3.059   3.382
 3271TIP3    H1 9756   0.483   3.086   3.311
 3271TIP3    H2 9757   0.581   2.979   3.339
 3272TIP3   OH2 9758  -0.158   3.080   4.121
 3272TIP3    H1 9759  -0.154   3.154   4.182
 3272TIP3    H2 9760  -0.169   3.004   4.180
 3273TIP3   OH2 9761  -0.565   2.617   3.718
 3273TIP3    H1 9762  -0.481   2.644   3.759
 3273TIP3    H2 9763  -0.539   2.593   3.629
 3274TIP3   OH2 9764   0.555   3.307   3.803
 3274TIP3    H1 9765   0.588   3.235   3.745
 3274TIP3    H2 9766   0.525   3.254   3.880
 3275TIP3   OH2 9767   0.231   2.769   3.478
 3275TIP3    H1 9768   0.150   2.766   3.532
 3275TIP3    H2 9769   0.301   2.765   3.545
 3276TIP3   OH2 9770  -0.340   2.818   3.485
 3276TIP3    H1 9771  -0.429   2.801   3.452
 3276TIP3    H2 9772  -0.293   2.734   3.466
 3277TIP3   OH2 9773  -0.067   2.824   3.184
 3277TIP3    H1 9774   0.029   2.835   3.166
 3277TIP3    H2 9775  -0.109   2.855   3.100
 3278TIP3   OH2 9776   0.719   2.846   3.681
 3278TIP3    H1 9777   0.685   2.858   3.772
 3278TIP3    H2 9778   0.651   2.786   3.645
 3279TIP3   OH2 9779  -0.218   2.881   2.966
 3279TIP3    H1 9780  -0.298   2.828   2.951
 3279TIP3    H2 9781  -0.183   2.895   2.876
 3280TIP3   OH2 9782   0.890   4.536   3.901
 3280TIP3    H1 9783   0.889   4.555   3.805
 3280TIP3    H2 9784   0.972   4.582   3.928
 3281TIP3   OH2 9785  -0.156   3.633   4.341
 3281TIP3    H1 9786  -0.080   3.665   4.392
 3281TIP3    H2 9787  -0.228   3.683   4.383
 3282TIP3   OH2 9788   0.309   3.100   3.574
 3282TIP3    H1 9789   0.382   3.060   3.525
 3282TIP3    H2 9790   0.315   3.056   3.661
 3283TIP3   OH2 9791  -0.178   2.590   3.447
 3283TIP3    H1 9792  -0.194   2.505   3.492
 3283TIP3    H2 9793  -0.144   2.563   3.360
 3284TIP3   OH2 9794   0.284   2.995   3.867
 3284TIP3    H1 9795   0.194   3.032   3.880
 3284TIP3    H2 9796   0.340   3.058   3.915
 3285TIP3   OH2 9797   0.018   3.389   2.957
 3285TIP3    H1 9798  -0.051   3.320   2.947
 3285TIP3    H2 9799   0.002   3.419   3.050
 3286TIP3   OH2 9800   0.923   3.625   3.583
 3286TIP3    H1 9801   0.949   3.669   3.498
 3286TIP3    H2 9802   0.840   3.580   3.557
 3287TIP3   OH2 9803   0.492   2.696   2.823
 3287TIP3    H1 9804   0.394   2.691   2.831
 3287TIP3    H2 9805   0.510   2.789   2.849
 3288TIP3   OH2 9806   0.423   3.706   3.954
 3288TIP3    H1 9807   0.448   3.679   4.044
 3288TIP3    H2 9808   0.382   3.793   3.968
 3289TIP3   OH2 9809   0.558   2.932   2.943
 3289TIP3    H1 9810   0.654   2.946   2.951
 3289TIP3    H2 9811   0.531   3.011   2.890
 3290TIP3   OH2 9812  -0.279   3.399   3.640
 3290TIP3    H1 9813  -0.233   3.354   3.567
 3290TIP3    H2 9814  -0.270   3.338   3.716
 3291TIP3   OH2 9815   0.158   3.543   2.777
 3291TIP3    H1 9816   0.111   3.627   2.793
 3291TIP3    H2 9817   0.110   3.481   2.837
 3292TIP3   OH2 9818   0.321   3.444   4.271
 3292TIP3    H1 9819   0.258   3.386   4.225
 3292TIP3    H2 9820   0.407   3.407   4.240
 3293TIP3   OH2 9821   0.579   3.971   3.849
 3293TIP3    H1 9822   0.483   3.965   3.864
 3293TIP3    H2 9823   0.607   4.021   3.929
 3294TIP3   OH2 9824   0.987   3.037   2.762
 3294TIP3    H1 9825   0.926   2.992   2.699
 3294TIP3    H2 9826   0.984   3.126   2.721
 3295TIP3   OH2 9827   1.214   3.858   3.843
 3295TIP3    H1 9828   1.120   3.885   3.844
 3295TIP3    H2 9829   1.234   3.880   3.750
 3296TIP3   OH2 9830   0.677   3.842   2.676
 3296TIP3    H1 9831   0.673   3.755   2.718
 3296TIP3    H2 9832   0.707   3.818   2.586
 3297TIP3   OH2 9833   0.685   3.487   3.498
 3297TIP3    H1 9834   0.594   3.458   3.517
 3297TIP3    H2 9835   0.722   3.404   3.461
 3298TIP3   OH2 9836  -0.184   3.712   3.253
 3298TIP3    H1 9837  -0.198   3.794   3.202
 3298TIP3    H2 9838  -0.265   3.705   3.305
 3299TIP3   OH2 9839   7.533   1.403   1.347
 3299TIP3    H1 9840   7.594   1.476   1.371
 3299TIP3    H2 9841   7.457   1.422   1.402
 3300TIP3   OH2 9842  -0.048   3.476   3.204
 3300TIP3    H1 9843  -0.087   3.564   3.222
 3300TIP3    H2 9844  -0.082   3.424   3.279
 3301TIP3   OH2 9845   0.093   4.059   3.730
 3301TIP3    H1 9846   0.140   4.127   3.677
 3301TIP3    H2 9847   0.168   4.018   3.778
 3302TIP3   OH2 9848  -0.267   3.954   3.118
 3302TIP3    H1 9849  -0.349   3.975   3.165
 3302TIP3    H2 9850  -0.225   4.042   3.115
 3303TIP3   OH2 9851   0.473   3.692   3.687
 3303TIP3    H1 9852   0.462   3.691   3.785
 3303TIP3    H2 9853   0.550   3.633   3.676
 3304TIP3   OH2 9854   0.697   4.245   3.764
 3304TIP3    H1 9855   0.635   4.172   3.744
 3304TIP3    H2 9856   0.704   4.287   3.676
 3305TIP3   OH2 9857   0.784   4.057   2.390
 3305TIP3    H1 9858   0.825   4.129   2.340
 3305TIP3    H2 9859   0.707   4.105   2.426
 3306TIP3   OH2 9860  -0.185   2.821   4.272
 3306TIP3    H1 9861  -0.279   2.815   4.296
 3306TIP3    H2 9862  -0.143   2.767   4.341
 3307TIP3   OH2 9863   0.612   3.528   2.784
 3307TIP3    H1 9864   0.600   3.464   2.858
 3307TIP3    H2 9865   0.707   3.513   2.765
 3308TIP3   OH2 9866  -0.173   3.558   2.573
 3308TIP3    H1 9867  -0.177   3.463   2.550
 3308TIP3    H2 9868  -0.203   3.555   2.666
 3309TIP3   OH2 9869  -0.237   3.571   2.842
 3309TIP3    H1 9870  -0.165   3.539   2.897
 3309TIP3    H2 9871  -0.232   3.668   2.855
 3310TIP3   OH2 9872  -0.493   3.258   3.058
 3310TIP3    H1 9873  -0.531   3.316   3.125
 3310TIP3    H2 9874  -0.479   3.322   2.985
 3311TIP3   OH2 9875   0.644   2.897   3.940
 3311TIP3    H1 9876   0.725   2.937   3.976
 3311TIP3    H2 9877   0.633   2.817   3.995
 3312TIP3   OH2 9878   0.523   2.647   3.107
 3312TIP3    H1 9879   0.509   2.669   3.013
 3312TIP3    H2 9880   0.564   2.730   3.140
 3313TIP3   OH2 9881   0.025   3.777   2.801
 3313TIP3    H1 9882  -0.066   3.798   2.831
 3313TIP3    H2 9883   0.039   3.848   2.736
 3314TIP3   OH2 9884   0.210   2.829   3.208
 3314TIP3    H1 9885   0.275   2.900   3.188
 3314TIP3    H2 9886   0.219   2.821   3.305
 3315TIP3   OH2 9887   0.482   3.146   4.011
 3315TIP3    H1 9888   0.505   3.198   4.091
 3315TIP3    H2 9889   0.536   3.066   4.023
 3316TIP3   OH2 9890   0.359   2.551   3.310
 3316TIP3    H1 9891   0.351   2.629   3.367
 3316TIP3    H2 9892   0.419   2.585   3.240
 3317TIP3   OH2 9893  -0.233   3.842   2.864
 3317TIP3    H1 9894  -0.260   3.912   2.799
 3317TIP3    H2 9895  -0.250   3.888   2.949
 3318TIP3   OH2 9896  -0.121   2.550   3.152
 3318TIP3    H1 9897  -0.125   2.647   3.146
 3318TIP3    H2 9898  -0.029   2.535   3.125
 3319TIP3   OH2 9899   1.120   3.046   4.000
 3319TIP3    H1 9900   1.022   3.042   4.002
 3319TIP3    H2 9901   1.137   3.014   3.910
 3320TIP3   OH2 9902   0.771   3.242   3.385
 3320TIP3    H1 9903   0.697   3.180   3.394
 3320TIP3    H2 9904   0.844   3.195   3.431
 3321TIP3   OH2 9905  -0.506   3.475   2.889
 3321TIP3    H1 9906  -0.430   3.534   2.875
 3321TIP3    H2 9907  -0.491   3.416   2.812
 3322TIP3   OH2 9908   0.748   4.173   3.278
 3322TIP3    H1 9909   0.705   4.245   3.226
 3322TIP3    H2 9910   0.839   4.211   3.284
 3323TIP3   OH2 9911  -0.181   2.461   3.854
 3323TIP3    H1 9912  -0.216   2.425   3.770
 3323TIP3    H2 9913  -0.191   2.384   3.914
 3324TIP3   OH2 9914  -0.016   4.190   4.358
 3324TIP3    H1 9915   0.080   4.182   4.366
 3324TIP3    H2 9916  -0.035   4.126   4.288
 3325TIP3   OH2 9917  -0.026   3.768   2.483
 3325TIP3    H1 9918  -0.080   3.694   2.519
 3325TIP3    H2 9919   0.051   3.720   2.447
 3326TIP3   OH2 9920   0.630   4.097   4.090
 3326TIP3    H1 9921   0.625   4.026   4.158
 3326TIP3    H2 9922   0.709   4.147   4.118
 3327TIP3   OH2 9923   0.432   3.791   2.396
 3327TIP3    H1 9924   0.520   3.782   2.437
 3327TIP3    H2 9925   0.459   3.800   2.302
 3328TIP3   OH2 9926  -0.375   3.293   2.727
 3328TIP3    H1 9927  -0.313   3.257   2.793
 3328TIP3    H2 9928  -0.319   3.294   2.648
 3329TIP3   OH2 9929   0.248   3.719   4.285
 3329TIP3    H1 9930   0.209   3.731   4.197
 3329TIP3    H2 9931   0.282   3.626   4.279
 3330TIP3   OH2 9932   0.181   3.478   2.515
 3330TIP3    H1 9933   0.167   3.519   2.605
 3330TIP3    H2 9934   0.119   3.403   2.525
 3331TIP3   OH2 9935   0.747   3.732   3.891
 3331TIP3    H1 9936   0.819   3.777   3.842
 3331TIP3    H2 9937   0.674   3.795   3.876
 3332TIP3   OH2 9938  -0.236   3.353   4.512
 3332TIP3    H1 9939  -0.169   3.319   4.453
 3332TIP3    H2 9940  -0.185   3.400   4.581
 3333TIP3   OH2 9941  -0.171   3.185   2.922
 3333TIP3    H1 9942  -0.192   3.141   3.007
 3333TIP3    H2 9943  -0.137   3.110   2.869
 3334TIP3   OH2 9944   0.102   3.260   4.163
 3334TIP3    H1 9945   0.019   3.311   4.158
 3334TIP3    H2 9946   0.148   3.290   4.081
 3335TIP3   OH2 9947  -0.067   2.982   2.741
 3335TIP3    H1 9948  -0.058   2.934   2.657
 3335TIP3    H2 9949   0.024   3.013   2.750
 3336TIP3   OH2 9950   0.617   3.654   4.288
 3336TIP3    H1 9951   0.693   3.622   4.238
 3336TIP3    H2 9952   0.611   3.588   4.360
 3337TIP3   OH2 9953   0.751   3.325   2.432
 3337TIP3    H1 9954   0.716   3.270   2.359
 3337TIP3    H2 9955   0.773   3.406   2.386
 3338TIP3   OH2 9956   0.225   3.044   4.280
 3338TIP3    H1 9957   0.222   2.964   4.224
 3338TIP3    H2 9958   0.179   3.110   4.223
 3339TIP3   OH2 9959   0.225   2.825   4.089
 3339TIP3    H1 9960   0.252   2.870   4.006
 3339TIP3    H2 9961   0.131   2.804   4.071
 3340TIP3   OH2 9962   0.251   3.367   3.966
 3340TIP3    H1 9963   0.331   3.370   3.913
 3340TIP3    H2 9964   0.191   3.426   3.915
 3341TIP3   OH2 9965   0.831   3.328   4.340
 3341TIP3    H1 9966   0.878   3.245   4.356
 3341TIP3    H2 9967   0.901   3.383   4.301
 3342TIP3   OH2 9968   0.872   3.584   4.079
 3342TIP3    H1 9969   0.817   3.639   4.019
 3342TIP3    H2 9970   0.961   3.601   4.040
 3343TIP3   OH2 9971   0.103   3.161   4.512
 3343TIP3    H1 9972   0.043   3.084   4.523
 3343TIP3    H2 9973   0.136   3.145   4.422
 3344TIP3   OH2 9974   0.356   2.589   4.159
 3344TIP3    H1 9975   0.309   2.672   4.134
 3344TIP3    H2 9976   0.286   2.522   4.146
 3345TIP3   OH2 9977   0.483   3.092   4.373
 3345TIP3    H1 9978   0.468   3.079   4.468
 3345TIP3    H2 9979   0.394   3.069   4.339
 3346TIP3   OH2 9980   0.721   3.043   4.227
 3346TIP3    H1 9981   0.646   3.045   4.290
 3346TIP3    H2 9982   0.795   3.013   4.284
 3347TIP3   OH2 9983   0.950   2.984   4.376
 3347TIP3    H1 9984   0.963   2.889   4.394
 3347TIP3    H2 9985   0.945   3.023   4.466
 3348TIP3   OH2 9986  -0.036   2.933   4.564
 3348TIP3    H1 9987  -0.046   2.842   4.529
 3348TIP3    H2 9988  -0.010   2.914   4.656
 3349TIP3   OH2 9989   0.448   2.597   4.417
 3349TIP3    H1 9990   0.516   2.528   4.409
 3349TIP3    H2 9991   0.409   2.594   4.327
 3350TIP3   OH2 9992   0.516   2.812   4.575
 3350TIP3    H1 9993   0.493   2.742   4.510
 3350TIP3    H2 9994   0.439   2.872   4.568
 3351TIP3   OH2 9995  -0.260   4.032   2.668
 3351TIP3    H1 9996  -0.165   4.038   2.648
 3351TIP3    H2 9997  -0.296   4.090   2.599
 3352TIP3   OH2 9998   0.980   4.307   3.290
 3352TIP3    H1 9999   1.016   4.317   3.380
 3352TIP3    H210000   1.055   4.332   3.234
 3353TIP3   OH210001   1.024   4.305   3.568
 3353TIP3    H110002   0.971   4.223   3.563
 3353TIP3    H210003   1.110   4.268   3.594
 3354TIP3   OH210004   1.071   3.985   4.147
 3354TIP3    H110005   0.999   3.994   4.213
 3354TIP3    H210006   1.112   4.073   4.150
 3355TIP3   OH210007   0.888   3.501   2.763
 3355TIP3    H110008   0.959   3.562   2.733
 3355TIP3    H210009   0.931   3.460   2.842
 3356TIP3   OH210010   1.013   3.368   2.967
 3356TIP3    H110011   0.950   3.323   3.028
 3356TIP3    H210012   1.083   3.400   3.027
 3357TIP3   OH210013   1.046   3.758   3.379
 3357TIP3    H110014   1.119   3.698   3.357
 3357TIP3    H210015   1.094   3.835   3.417
 3358TIP3   OH210016   0.838   4.087   3.572
 3358TIP3    H110017   0.815   4.077   3.665
 3358TIP3    H210018   0.857   3.995   3.548
 3359TIP3   OH210019   0.949   3.274   2.616
 3359TIP3    H110020   0.875   3.275   2.552
 3359TIP3    H210021   0.924   3.350   2.672
 3360TIP3   OH210022   0.823   2.946   2.565
 3360TIP3    H110023   0.774   2.977   2.488
 3360TIP3    H210024   0.805   2.850   2.559
 3361TIP3   OH210025   0.826   3.222   3.113
 3361TIP3    H110026   0.836   3.126   3.103
 3361TIP3    H210027   0.814   3.232   3.210
 3362TIP3   OH210028   1.115   3.642   3.972
 3362TIP3    H110029   1.187   3.575   3.965
 3362TIP3    H210030   1.150   3.713   3.913
 3363TIP3   OH210031   1.300   3.450   3.990
 3363TIP3    H110032   1.226   3.397   4.027
 3363TIP3    H210033   1.374   3.387   4.002
 3364TIP3   OH210034   0.776   2.680   2.546
 3364TIP3    H110035   0.840   2.645   2.611
 3364TIP3    H210036   0.694   2.628   2.564
 3365TIP3   OH210037   0.832   2.942   3.009
 3365TIP3    H110038   0.872   2.853   3.024
 3365TIP3    H210039   0.887   2.973   2.935
 3366TIP3   OH210040   0.985   3.111   3.503
 3366TIP3    H110041   1.071   3.135   3.461
 3366TIP3    H210042   1.000   3.148   3.592
 3367TIP3   OH210043   1.057   3.255   3.735
 3367TIP3    H110044   0.979   3.291   3.783
 3367TIP3    H210045   1.091   3.336   3.690
 3368TIP3   OH210046  -0.311   2.893   4.641
 3368TIP3    H110047  -0.246   2.933   4.580
 3368TIP3    H210048  -0.393   2.936   4.610
 3369TIP3   OH210049   1.506   2.848   4.291
 3369TIP3    H110050   1.566   2.784   4.248
 3369TIP3    H210051   1.476   2.902   4.214
 3370TIP3   OH210052   0.934   2.690   3.047
 3370TIP3    H110053   0.982   2.671   3.131
 3370TIP3    H210054   0.873   2.613   3.044
 3371TIP3   OH210055  -0.349   2.678   3.872
 3371TIP3    H110056  -0.287   2.603   3.877
 3371TIP3    H210057  -0.287   2.752   3.856
 3372TIP3   OH210058   1.375   2.984   4.097
 3372TIP3    H110059   1.288   3.027   4.112
 3372TIP3    H210060   1.347   2.912   4.038
 3373TIP3   OH210061   1.014   2.621   2.686
 3373TIP3    H110062   1.052   2.553   2.627
 3373TIP3    H210063   1.079   2.693   2.678
 3374TIP3   OH210064  -0.365   2.536   4.266
 3374TIP3    H110065  -0.406   2.540   4.354
 3374TIP3    H210066  -0.426   2.590   4.214
 3375TIP3   OH210067  -0.143   4.027   3.880
 3375TIP3    H110068  -0.162   4.102   3.821
 3375TIP3    H210069  -0.053   4.006   3.850
 3376TIP3   OH210070   0.302   4.235   4.016
 3376TIP3    H110071   0.344   4.234   4.104
 3376TIP3    H210072   0.370   4.286   3.965
 3377TIP3   OH210073   0.482   4.388   3.876
 3377TIP3    H110074   0.556   4.337   3.837
 3377TIP3    H210075   0.533   4.447   3.936
 3378TIP3   OH210076   1.276   2.749   3.976
 3378TIP3    H110077   1.186   2.742   3.939
 3378TIP3    H210078   1.308   2.657   3.964
 3379TIP3   OH210079  -0.229   4.253   3.734
 3379TIP3    H110080  -0.257   4.340   3.767
 3379TIP3    H210081  -0.283   4.243   3.655
 3380TIP3   OH210082   0.200   4.257   3.554
 3380TIP3    H110083   0.134   4.281   3.486
 3380TIP3    H210084   0.215   4.344   3.599
 3381TIP3   OH210085   0.466   4.190   3.601
 3381TIP3    H110086   0.373   4.217   3.586
 3381TIP3    H210087   0.516   4.268   3.569
 3382TIP3   OH210088   0.666   4.384   3.519
 3382TIP3    H110089   0.652   4.472   3.478
 3382TIP3    H210090   0.706   4.335   3.445
 3383TIP3   OH210091  -0.355   3.918   3.495
 3383TIP3    H110092  -0.349   3.827   3.533
 3383TIP3    H210093  -0.262   3.946   3.499
 3384TIP3   OH210094  -0.078   4.014   3.510
 3384TIP3    H110095  -0.056   3.919   3.496
 3384TIP3    H210096  -0.029   4.028   3.593
 3385TIP3   OH210097   0.481   2.664   3.595
 3385TIP3    H110098   0.440   2.592   3.645
 3385TIP3    H210099   0.555   2.620   3.550
 3386TIP3   OH210100   1.001   2.545   3.501
 3386TIP3    H110101   1.039   2.596   3.426
 3386TIP3    H210102   0.906   2.567   3.494
 3387TIP3   OH210103   1.098   2.641   3.265
 3387TIP3    H110104   1.172   2.590   3.224
 3387TIP3    H210105   1.132   2.733   3.250
 3388TIP3   OH210106  -0.284   2.366   3.602
 3388TIP3    H110107  -0.364   2.313   3.616
 3388TIP3    H210108  -0.217   2.294   3.601
 3389TIP3   OH210109   0.175   2.410   3.491
 3389TIP3    H110110   0.231   2.457   3.427
 3389TIP3    H210111   0.206   2.446   3.575
 3390TIP3   OH210112   0.716   2.553   3.476
 3390TIP3    H110113   0.719   2.516   3.387
 3390TIP3    H210114   0.704   2.472   3.531
 3391TIP3   OH210115   0.751   2.477   3.039
 3391TIP3    H110116   0.664   2.520   3.049
 3391TIP3    H210117   0.734   2.391   3.084
 3392TIP3   OH210118   0.154   2.575   3.122
 3392TIP3    H110119   0.213   2.532   3.187
 3392TIP3    H210120   0.170   2.669   3.146
 3393TIP3   OH210121   0.011   4.000   2.621
 3393TIP3    H110122   0.098   4.023   2.582
 3393TIP3    H210123  -0.015   3.927   2.561
 3394TIP3   OH210124   0.733   4.115   2.712
 3394TIP3    H110125   0.710   4.020   2.706
 3394TIP3    H210126   0.680   4.153   2.639
 3395TIP3   OH210127  -0.063   2.658   4.492
 3395TIP3    H110128  -0.099   2.585   4.548
 3395TIP3    H210129   0.029   2.657   4.525
 3396TIP3   OH210130   0.184   2.651   4.623
 3396TIP3    H110131   0.269   2.632   4.581
 3396TIP3    H210132   0.174   2.576   4.685
 3397TIP3   OH210133   1.013   2.713   4.408
 3397TIP3    H110134   1.032   2.683   4.499
 3397TIP3    H210135   1.102   2.709   4.367
 3398TIP3   OH210136   0.942   4.263   3.907
 3398TIP3    H110137   0.862   4.237   3.858
 3398TIP3    H210138   0.930   4.360   3.907
 3399TIP3   OH210139   2.225   3.648   2.671
 3399TIP3    H110140   2.191   3.736   2.645
 3399TIP3    H210141   2.157   3.591   2.628
 3400TIP3   OH210142   2.220   3.643   3.050
 3400TIP3    H110143   2.248   3.604   3.134
 3400TIP3    H210144   2.179   3.567   3.005
 3401TIP3   OH210145   1.511   3.527   3.411
 3401TIP3    H110146   1.544   3.462   3.475
 3401TIP3    H210147   1.584   3.591   3.410
 3402TIP3   OH210148   2.466   3.943   2.728
 3402TIP3    H110149   2.438   3.872   2.788
 3402TIP3    H210150   2.490   4.014   2.789
 3403TIP3   OH210151   1.493   3.942   3.119
 3403TIP3    H110152   1.479   3.846   3.132
 3403TIP3    H210153   1.590   3.947   3.124
 3404TIP3   OH210154   1.192   3.140   2.922
 3404TIP3    H110155   1.148   3.225   2.936
 3404TIP3    H210156   1.120   3.091   2.877
 3405TIP3   OH210157   1.250   3.430   3.095
 3405TIP3    H110158   1.301   3.354   3.132
 3405TIP3    H210159   1.315   3.469   3.034
 3406TIP3   OH210160   2.113   4.402   2.747
 3406TIP3    H110161   2.155   4.330   2.697
 3406TIP3    H210162   2.099   4.362   2.833
 3407TIP3   OH210163   2.015   3.864   3.095
 3407TIP3    H110164   2.053   3.787   3.050
 3407TIP3    H210165   2.098   3.909   3.119
 3408TIP3   OH210166   3.031   3.184   3.094
 3408TIP3    H110167   3.060   3.267   3.137
 3408TIP3    H210168   3.049   3.203   3.001
 3409TIP3   OH210169   2.428   3.364   3.126
 3409TIP3    H110170   2.468   3.277   3.145
 3409TIP3    H210171   2.395   3.349   3.036
 3410TIP3   OH210172   1.762   3.027   3.092
 3410TIP3    H110173   1.747   3.099   3.027
 3410TIP3    H210174   1.715   2.954   3.047
 3411TIP3   OH210175   2.462   3.111   2.717
 3411TIP3    H110176   2.536   3.098   2.781
 3411TIP3    H210177   2.510   3.153   2.643
 3412TIP3   OH210178   1.398   3.224   3.201
 3412TIP3    H110179   1.482   3.208   3.248
 3412TIP3    H210180   1.414   3.172   3.119
 3413TIP3   OH210181   1.840   3.425   2.999
 3413TIP3    H110182   1.935   3.402   3.008
 3413TIP3    H210183   1.804   3.342   2.961
 3414TIP3   OH210184   3.104   3.394   3.261
 3414TIP3    H110185   3.018   3.438   3.244
 3414TIP3    H210186   3.110   3.405   3.357
 3415TIP3   OH210187   1.761   3.008   3.529
 3415TIP3    H110188   1.704   3.045   3.459
 3415TIP3    H210189   1.708   3.028   3.608
 3416TIP3   OH210190   2.121   3.868   2.533
 3416TIP3    H110191   2.067   3.819   2.469
 3416TIP3    H210192   2.063   3.944   2.553
 3417TIP3   OH210193   1.873   3.781   3.318
 3417TIP3    H110194   1.811   3.850   3.352
 3417TIP3    H210195   1.914   3.829   3.243
 3418TIP3   OH210196   2.670   3.118   2.892
 3418TIP3    H110197   2.647   3.078   2.976
 3418TIP3    H210198   2.720   3.198   2.920
 3419TIP3   OH210199   1.633   3.123   3.313
 3419TIP3    H110200   1.695   3.196   3.335
 3419TIP3    H210201   1.681   3.084   3.236
 3420TIP3   OH210202   1.706   3.980   3.411
 3420TIP3    H110203   1.673   4.066   3.378
 3420TIP3    H210204   1.629   3.956   3.469
 3421TIP3   OH210205   1.087   3.670   2.656
 3421TIP3    H110206   1.051   3.697   2.570
 3421TIP3    H210207   1.120   3.754   2.693
 3422TIP3   OH210208   2.533   4.186   2.899
 3422TIP3    H110209   2.443   4.176   2.937
 3422TIP3    H210210   2.523   4.270   2.851
 3423TIP3   OH210211   2.822   3.086   3.260
 3423TIP3    H110212   2.734   3.110   3.227
 3423TIP3    H210213   2.880   3.117   3.188
 3424TIP3   OH210214   2.116   2.726   3.243
 3424TIP3    H110215   2.102   2.631   3.260
 3424TIP3    H210216   2.038   2.764   3.289
 3425TIP3   OH210217   2.230   4.228   2.569
 3425TIP3    H110218   2.280   4.145   2.549
 3425TIP3    H210219   2.291   4.293   2.527
 3426TIP3   OH210220   2.376   4.013   2.476
 3426TIP3    H110221   2.317   3.940   2.455
 3426TIP3    H210222   2.417   3.981   2.560
 3427TIP3   OH210223   2.757   4.094   3.240
 3427TIP3    H110224   2.743   4.017   3.182
 3427TIP3    H210225   2.735   4.168   3.179
 3428TIP3   OH210226   2.054   3.537   2.485
 3428TIP3    H110227   1.967   3.496   2.485
 3428TIP3    H210228   2.103   3.485   2.420
 3429TIP3   OH210229   1.995   3.278   2.197
 3429TIP3    H110230   2.043   3.307   2.276
 3429TIP3    H210231   2.059   3.216   2.158
 3430TIP3   OH210232   2.951   3.737   3.088
 3430TIP3    H110233   2.866   3.786   3.090
 3430TIP3    H210234   2.980   3.758   2.996
 3431TIP3   OH210235   2.397   3.579   2.469
 3431TIP3    H110236   2.339   3.600   2.546
 3431TIP3    H210237   2.478   3.550   2.515
 3432TIP3   OH210238   2.630   3.611   3.383
 3432TIP3    H110239   2.622   3.694   3.432
 3432TIP3    H210240   2.543   3.609   3.337
 3433TIP3   OH210241   1.628   3.571   2.889
 3433TIP3    H110242   1.582   3.512   2.825
 3433TIP3    H210243   1.705   3.516   2.916
 3434TIP3   OH210244   1.765   3.986   3.028
 3434TIP3    H110245   1.742   3.944   2.944
 3434TIP3    H210246   1.853   3.948   3.047
 3435TIP3   OH210247   1.763   3.539   3.241
 3435TIP3    H110248   1.795   3.514   3.151
 3435TIP3    H210249   1.807   3.625   3.256
 3436TIP3   OH210250   2.292   4.179   3.018
 3436TIP3    H110251   2.275   4.258   3.072
 3436TIP3    H210252   2.275   4.105   3.080
 3437TIP3   OH210253   1.901   4.096   3.566
 3437TIP3    H110254   1.838   4.158   3.609
 3437TIP3    H210255   1.838   4.045   3.511
 3438TIP3   OH210256   2.242   3.423   2.302
 3438TIP3    H110257   2.295   3.489   2.352
 3438TIP3    H210258   2.262   3.449   2.209
 3439TIP3   OH210259   1.657   3.649   3.669
 3439TIP3    H110260   1.661   3.738   3.709
 3439TIP3    H210261   1.561   3.632   3.678
 3440TIP3   OH210262   1.979   4.108   2.570
 3440TIP3    H110263   2.061   4.160   2.581
 3440TIP3    H210264   1.919   4.172   2.530
 3441TIP3   OH210265   1.696   4.265   3.651
 3441TIP3    H110266   1.663   4.264   3.559
 3441TIP3    H210267   1.616   4.239   3.702
 3442TIP3   OH210268   2.750   2.668   2.345
 3442TIP3    H110269   2.669   2.690   2.396
 3442TIP3    H210270   2.764   2.752   2.296
 3443TIP3   OH210271   1.484   3.413   2.707
 3443TIP3    H110272   1.427   3.455   2.641
 3443TIP3    H210273   1.464   3.320   2.693
 3444TIP3   OH210274   2.550   4.036   1.891
 3444TIP3    H110275   2.558   4.133   1.879
 3444TIP3    H210276   2.643   4.008   1.879
 3445TIP3   OH210277   2.996   4.441   3.301
 3445TIP3    H110278   2.989   4.344   3.297
 3445TIP3    H210279   2.906   4.465   3.332
 3446TIP3   OH210280   2.100   4.223   3.425
 3446TIP3    H110281   2.096   4.317   3.454
 3446TIP3    H210282   2.026   4.184   3.476
 3447TIP3   OH210283   1.862   4.355   2.373
 3447TIP3    H110284   1.813   4.337   2.291
 3447TIP3    H210285   1.828   4.442   2.400
 3448TIP3   OH210286   1.297   4.200   2.758
 3448TIP3    H110287   1.346   4.194   2.843
 3448TIP3    H210288   1.248   4.116   2.759
 3449TIP3   OH210289   2.061   4.257   2.012
 3449TIP3    H110290   2.119   4.186   1.977
 3449TIP3    H210291   2.095   4.267   2.103
 3450TIP3   OH210292   2.113   4.305   2.281
 3450TIP3    H110293   2.025   4.315   2.323
 3450TIP3    H210294   2.163   4.263   2.352
 3451TIP3   OH210295   2.882   3.573   3.560
 3451TIP3    H110296   2.798   3.579   3.512
 3451TIP3    H210297   2.899   3.477   3.553
 3452TIP3   OH210298   1.498   3.962   3.580
 3452TIP3    H110299   1.517   3.942   3.673
 3452TIP3    H210300   1.401   3.969   3.577
 3453TIP3   OH210301   1.878   2.801   3.374
 3453TIP3    H110302   1.789   2.772   3.345
 3453TIP3    H210303   1.853   2.884   3.419
 3454TIP3   OH210304   2.414   2.917   3.566
 3454TIP3    H110305   2.484   2.888   3.628
 3454TIP3    H210306   2.332   2.895   3.614
 3455TIP3   OH210307   2.651   3.348   3.486
 3455TIP3    H110308   2.600   3.343   3.570
 3455TIP3    H210309   2.622   3.434   3.449
 3456TIP3   OH210310   2.309   3.471   2.038
 3456TIP3    H110311   2.278   3.448   1.949
 3456TIP3    H210312   2.391   3.520   2.018
 3457TIP3   OH210313   2.024   2.848   2.341
 3457TIP3    H110314   1.986   2.861   2.429
 3457TIP3    H210315   1.982   2.763   2.315
 3458TIP3   OH210316   1.811   3.318   3.390
 3458TIP3    H110317   1.759   3.338   3.471
 3458TIP3    H210318   1.794   3.399   3.337
 3459TIP3   OH210319   1.707   3.206   2.894
 3459TIP3    H110320   1.613   3.178   2.894
 3459TIP3    H210321   1.733   3.199   2.800
 3460TIP3   OH210322   2.203   3.313   2.636
 3460TIP3    H110323   2.105   3.303   2.630
 3460TIP3    H210324   2.231   3.256   2.563
 3461TIP3   OH210325   2.360   3.567   3.717
 3461TIP3    H110326   2.336   3.493   3.778
 3461TIP3    H210327   2.454   3.578   3.740
 3462TIP3   OH210328   2.344   3.319   2.869
 3462TIP3    H110329   2.287   3.347   2.794
 3462TIP3    H210330   2.375   3.234   2.830
 3463TIP3   OH210331   1.632   3.347   3.598
 3463TIP3    H110332   1.648   3.416   3.664
 3463TIP3    H210333   1.621   3.267   3.653
 3464TIP3   OH210334   1.676   2.822   2.305
 3464TIP3    H110335   1.670   2.820   2.402
 3464TIP3    H210336   1.602   2.882   2.284
 3465TIP3   OH210337   1.223   2.865   3.183
 3465TIP3    H110338   1.297   2.901   3.236
 3465TIP3    H210339   1.263   2.841   3.099
 3466TIP3   OH210340   1.190   2.848   2.700
 3466TIP3    H110341   1.232   2.884   2.619
 3466TIP3    H210342   1.130   2.922   2.720
 3467TIP3   OH210343   2.360   3.562   3.295
 3467TIP3    H110344   2.389   3.491   3.233
 3467TIP3    H210345   2.326   3.508   3.369
 3468TIP3   OH210346   2.025   2.980   2.982
 3468TIP3    H110347   1.940   3.004   3.021
 3468TIP3    H210348   2.088   3.021   3.042
 3469TIP3   OH210349   1.457   3.084   2.969
 3469TIP3    H110350   1.362   3.090   2.942
 3469TIP3    H210351   1.481   2.992   2.947
 3470TIP3   OH210352   2.513   3.101   3.167
 3470TIP3    H110353   2.482   3.115   3.259
 3470TIP3    H210354   2.444   3.040   3.135
 3471TIP3   OH210355   1.543   3.095   2.441
 3471TIP3    H110356   1.493   3.064   2.364
 3471TIP3    H210357   1.617   3.142   2.399
 3472TIP3   OH210358   2.690   4.783   3.388
 3472TIP3    H110359   2.680   4.814   3.295
 3472TIP3    H210360   2.765   4.838   3.418
 3473TIP3   OH210361   1.646   3.890   3.821
 3473TIP3    H110362   1.724   3.926   3.868
 3473TIP3    H210363   1.579   3.895   3.891
 3474TIP3   OH210364   2.105   3.356   3.063
 3474TIP3    H110365   2.173   3.317   3.006
 3474TIP3    H210366   2.117   3.309   3.147
 3475TIP3   OH210367   1.624   2.841   2.943
 3475TIP3    H110368   1.590   2.763   2.991
 3475TIP3    H210369   1.674   2.800   2.871
 3476TIP3   OH210370   2.080   3.251   3.354
 3476TIP3    H110371   1.990   3.287   3.366
 3476TIP3    H210372   2.137   3.314   3.403
 3477TIP3   OH210373   1.777   3.669   2.432
 3477TIP3    H110374   1.727   3.585   2.431
 3477TIP3    H210375   1.784   3.686   2.529
 3478TIP3   OH210376   2.715   3.879   3.076
 3478TIP3    H110377   2.738   3.928   2.994
 3478TIP3    H210378   2.631   3.835   3.050
 3479TIP3   OH210379   2.273   2.953   2.299
 3479TIP3    H110380   2.178   2.935   2.317
 3479TIP3    H210381   2.285   3.044   2.333
 3480TIP3   OH210382   2.225   3.964   3.443
 3480TIP3    H110383   2.236   3.938   3.535
 3480TIP3    H210384   2.178   4.050   3.450
 3481TIP3   OH210385   2.347   3.192   2.409
 3481TIP3    H110386   2.440   3.210   2.431
 3481TIP3    H210387   2.318   3.277   2.369
 3482TIP3   OH210388   1.507   3.661   3.122
 3482TIP3    H110389   1.549   3.634   3.038
 3482TIP3    H210390   1.552   3.602   3.185
 3483TIP3   OH210391   1.958   3.789   2.262
 3483TIP3    H110392   1.914   3.876   2.273
 3483TIP3    H210393   1.905   3.734   2.324
 3484TIP3   OH210394   1.401   3.581   3.738
 3484TIP3    H110395   1.401   3.567   3.834
 3484TIP3    H210396   1.317   3.540   3.710
 3485TIP3   OH210397   2.118   3.701   3.756
 3485TIP3    H110398   2.056   3.643   3.708
 3485TIP3    H210399   2.204   3.664   3.727
 3486TIP3   OH210400   2.378   4.223   3.338
 3486TIP3    H110401   2.282   4.216   3.350
 3486TIP3    H210402   2.402   4.275   3.418
 3487TIP3   OH210403   2.787   3.293   2.247
 3487TIP3    H110404   2.726   3.248   2.184
 3487TIP3    H210405   2.782   3.383   2.208
 3488TIP3   OH210406   3.003   4.159   3.325
 3488TIP3    H110407   2.907   4.142   3.310
 3488TIP3    H210408   3.037   4.125   3.239
 3489TIP3   OH210409   2.491   4.111   2.160
 3489TIP3    H110410   2.460   4.045   2.223
 3489TIP3    H210411   2.499   4.061   2.077
 3490TIP3   OH210412   2.485   3.739   2.995
 3490TIP3    H110413   2.391   3.715   3.007
 3490TIP3    H210414   2.517   3.660   2.948
 3491TIP3   OH210415   1.614   3.969   2.749
 3491TIP3    H110416   1.612   4.049   2.692
 3491TIP3    H210417   1.520   3.952   2.762
 3492TIP3   OH210418   1.174   3.271   2.452
 3492TIP3    H110419   1.223   3.352   2.475
 3492TIP3    H210420   1.099   3.275   2.515
 3493TIP3   OH210421   1.752   3.733   2.695
 3493TIP3    H110422   1.715   3.822   2.712
 3493TIP3    H210423   1.714   3.682   2.769
 3494TIP3   OH210424   1.882   4.313   3.213
 3494TIP3    H110425   1.923   4.385   3.162
 3494TIP3    H210426   1.959   4.276   3.259
 3495TIP3   OH210427   1.529   4.208   2.599
 3495TIP3    H110428   1.444   4.218   2.645
 3495TIP3    H210429   1.563   4.300   2.603
 3496TIP3   OH210430   2.268   3.948   3.175
 3496TIP3    H110431   2.259   3.946   3.273
 3496TIP3    H210432   2.340   3.885   3.160
 3497TIP3   OH210433   2.243   3.842   2.058
 3497TIP3    H110434   2.299   3.816   2.136
 3497TIP3    H210435   2.156   3.812   2.090
 3498TIP3   OH210436   2.521   4.477   3.227
 3498TIP3    H110437   2.440   4.422   3.222
 3498TIP3    H210438   2.503   4.542   3.155
 3499TIP3   OH210439   2.582   4.313   1.877
 3499TIP3    H110440   2.619   4.387   1.827
 3499TIP3    H210441   2.502   4.356   1.913
 3500TIP3   OH210442   1.601   3.090   3.744
 3500TIP3    H110443   1.504   3.092   3.754
 3500TIP3    H210444   1.628   3.030   3.816
 3501TIP3   OH210445   2.406   3.769   2.265
 3501TIP3    H110446   2.392   3.710   2.342
 3501TIP3    H210447   2.504   3.767   2.261
 3502TIP3   OH210448   1.606   3.818   2.060
 3502TIP3    H110449   1.622   3.726   2.034
 3502TIP3    H210450   1.588   3.809   2.155
 3503TIP3   OH210451   1.552   3.822   2.332
 3503TIP3    H110452   1.631   3.785   2.375
 3503TIP3    H210453   1.563   3.918   2.345
 3504TIP3   OH210454   1.286   3.513   2.533
 3504TIP3    H110455   1.222   3.560   2.591
 3504TIP3    H210456   1.305   3.583   2.468
 3505TIP3   OH210457   2.441   3.155   3.428
 3505TIP3    H110458   2.522   3.190   3.467
 3505TIP3    H210459   2.427   3.073   3.480
 3506TIP3   OH210460   2.328   2.901   2.591
 3506TIP3    H110461   2.306   2.930   2.501
 3506TIP3    H210462   2.364   2.984   2.630
 3507TIP3   OH210463   1.820   4.023   2.277
 3507TIP3    H110464   1.733   4.046   2.315
 3507TIP3    H210465   1.835   4.100   2.221
 3508TIP3   OH210466   2.278   3.401   3.499
 3508TIP3    H110467   2.302   3.452   3.579
 3508TIP3    H210468   2.331   3.320   3.508
 3509TIP3   OH210469   2.142   2.814   2.790
 3509TIP3    H110470   2.119   2.888   2.849
 3509TIP3    H210471   2.211   2.854   2.732
 3510TIP3   OH210472   1.565   4.097   2.348
 3510TIP3    H110473   1.535   4.167   2.286
 3510TIP3    H210474   1.549   4.140   2.435
 3511TIP3   OH210475   1.662   2.814   2.580
 3511TIP3    H110476   1.647   2.909   2.590
 3511TIP3    H210477   1.759   2.809   2.594
 3512TIP3   OH210478   2.916   3.306   3.476
 3512TIP3    H110479   2.818   3.307   3.488
 3512TIP3    H210480   2.921   3.249   3.398
 3513TIP3   OH210481   2.568   3.498   2.869
 3513TIP3    H110482   2.490   3.440   2.877
 3513TIP3    H210483   2.636   3.447   2.918
 3514TIP3   OH210484   1.283   3.725   2.337
 3514TIP3    H110485   1.357   3.789   2.347
 3514TIP3    H210486   1.325   3.665   2.273
 3515TIP3   OH210487   1.214   2.995   2.473
 3515TIP3    H110488   1.232   3.091   2.469
 3515TIP3    H210489   1.130   2.988   2.425
 3516TIP3   OH210490   2.539   4.456   2.818
 3516TIP3    H110491   2.495   4.502   2.742
 3516TIP3    H210492   2.633   4.474   2.796
 3517TIP3   OH210493   1.612   2.722   3.345
 3517TIP3    H110494   1.583   2.689   3.257
 3517TIP3    H210495   1.602   2.643   3.401
 3518TIP3   OH210496   1.149   3.948   2.728
 3518TIP3    H110497   1.067   3.980   2.768
 3518TIP3    H210498   1.137   3.982   2.637
 3519TIP3   OH210499   1.307   4.483   3.801
 3519TIP3    H110500   1.396   4.478   3.844
 3519TIP3    H210501   1.282   4.388   3.799
 3520TIP3   OH210502   1.787   4.440   3.846
 3520TIP3    H110503   1.883   4.426   3.845
 3520TIP3    H210504   1.760   4.383   3.772
 3521TIP3   OH210505   1.770   4.020   1.968
 3521TIP3    H110506   1.713   3.951   2.010
 3521TIP3    H210507   1.847   3.966   1.944
 3522TIP3   OH210508   2.430   4.355   3.574
 3522TIP3    H110509   2.421   4.284   3.642
 3522TIP3    H210510   2.497   4.413   3.612
 3523TIP3   OH210511   2.207   4.060   1.884
 3523TIP3    H110512   2.244   3.993   1.945
 3523TIP3    H210513   2.268   4.056   1.808
 3524TIP3   OH210514   1.435   3.887   4.002
 3524TIP3    H110515   1.456   3.791   4.003
 3524TIP3    H210516   1.352   3.886   3.950
 3525TIP3   OH210517   1.418   3.534   2.196
 3525TIP3    H110518   1.473   3.500   2.270
 3525TIP3    H210519   1.487   3.540   2.126
 3526TIP3   OH210520   2.045   3.976   3.772
 3526TIP3    H110521   2.000   3.995   3.687
 3526TIP3    H210522   2.075   3.884   3.761
 3527TIP3   OH210523   1.928   3.738   1.996
 3527TIP3    H110524   1.931   3.751   2.093
 3527TIP3    H210525   1.929   3.640   1.991
 3528TIP3   OH210526   2.543   3.987   3.385
 3528TIP3    H110527   2.611   4.032   3.332
 3528TIP3    H210528   2.466   4.044   3.368
 3529TIP3   OH210529   1.556   3.625   3.989
 3529TIP3    H110530   1.633   3.584   3.949
 3529TIP3    H210531   1.591   3.656   4.076
 3530TIP3   OH210532   1.624   3.437   2.417
 3530TIP3    H110533   1.635   3.392   2.502
 3530TIP3    H210534   1.655   3.366   2.356
 3531TIP3   OH210535   1.897   3.511   3.647
 3531TIP3    H110536   1.816   3.566   3.646
 3531TIP3    H210537   1.944   3.544   3.567
 3532TIP3   OH210538   1.710   3.237   2.253
 3532TIP3    H110539   1.699   3.244   2.157
 3532TIP3    H210540   1.807   3.232   2.262
 3533TIP3   OH210541   2.414   3.910   3.776
 3533TIP3    H110542   2.483   3.871   3.722
 3533TIP3    H210543   2.406   3.845   3.849
 3534TIP3   OH210544   2.547   3.567   1.918
 3534TIP3    H110545   2.525   3.522   1.835
 3534TIP3    H210546   2.514   3.658   1.897
 3535TIP3   OH210547   2.017   3.297   3.768
 3535TIP3    H110548   2.018   3.219   3.710
 3535TIP3    H210549   1.974   3.365   3.711
 3536TIP3   OH210550   2.020   3.084   3.577
 3536TIP3    H110551   2.049   3.125   3.493
 3536TIP3    H210552   1.927   3.061   3.557
 3537TIP3   OH210553   2.047   3.621   3.453
 3537TIP3    H110554   2.129   3.627   3.403
 3537TIP3    H210555   1.989   3.684   3.404
 3538TIP3   OH210556   2.627   3.583   3.827
 3538TIP3    H110557   2.669   3.498   3.848
 3538TIP3    H210558   2.702   3.633   3.793
 3539TIP3   OH210559   2.671   3.843   3.572
 3539TIP3    H110560   2.612   3.894   3.511
 3539TIP3    H210561   2.757   3.857   3.529
 3540TIP3   OH210562   1.898   3.404   4.003
 3540TIP3    H110563   1.828   3.336   4.015
 3540TIP3    H210564   1.930   3.383   3.913
 3541TIP3   OH210565   2.152   2.847   3.646
 3541TIP3    H110566   2.104   2.928   3.621
 3541TIP3    H210567   2.084   2.778   3.632
 3542TIP3   OH210568   2.277   3.350   3.859
 3542TIP3    H110569   2.265   3.335   3.954
 3542TIP3    H210570   2.188   3.325   3.826
 3543TIP3   OH210571   2.517   3.301   3.714
 3543TIP3    H110572   2.442   3.300   3.777
 3543TIP3    H210573   2.591   3.269   3.770
 3544TIP3   OH210574   2.746   3.240   3.861
 3544TIP3    H110575   2.760   3.145   3.879
 3544TIP3    H210576   2.742   3.278   3.952
 3545TIP3   OH210577   1.733   3.185   4.055
 3545TIP3    H110578   1.740   3.095   4.019
 3545TIP3    H210579   1.772   3.172   4.144
 3546TIP3   OH210580   2.242   2.855   3.905
 3546TIP3    H110581   2.311   2.786   3.899
 3546TIP3    H210582   2.205   2.851   3.814
 3547TIP3   OH210583   2.312   3.069   4.061
 3547TIP3    H110584   2.290   2.998   3.997
 3547TIP3    H210585   2.234   3.128   4.053
 3548TIP3   OH210586   1.535   4.299   2.159
 3548TIP3    H110587   1.630   4.292   2.139
 3548TIP3    H210588   1.506   4.352   2.082
 3549TIP3   OH210589   1.013   3.681   2.373
 3549TIP3    H110590   1.107   3.705   2.360
 3549TIP3    H210591   1.011   3.591   2.333
 3550TIP3   OH210592   0.927   4.291   2.792
 3550TIP3    H110593   0.861   4.230   2.754
 3550TIP3    H210594   0.968   4.234   2.860
 3551TIP3   OH210595   1.055   4.140   2.982
 3551TIP3    H110596   1.097   4.060   3.013
 3551TIP3    H210597   1.099   4.207   3.038
 3552TIP3   OH210598   2.795   4.540   2.777
 3552TIP3    H110599   2.816   4.578   2.864
 3552TIP3    H210600   2.854   4.590   2.719
 3553TIP3   OH210601   2.817   4.566   3.059
 3553TIP3    H110602   2.774   4.478   3.055
 3553TIP3    H210603   2.898   4.543   3.107
 3554TIP3   OH210604   2.896   4.259   3.663
 3554TIP3    H110605   2.811   4.247   3.712
 3554TIP3    H210606   2.871   4.327   3.597
 3555TIP3   OH210607   2.687   3.753   2.250
 3555TIP3    H110608   2.754   3.818   2.224
 3555TIP3    H210609   2.728   3.714   2.331
 3556TIP3   OH210610   2.813   3.620   2.455
 3556TIP3    H110611   2.744   3.578   2.512
 3556TIP3    H210612   2.874   3.658   2.521
 3557TIP3   OH210613   2.870   4.017   2.890
 3557TIP3    H110614   2.920   3.949   2.841
 3557TIP3    H210615   2.860   4.087   2.823
 3558TIP3   OH210616   2.697   4.314   3.084
 3558TIP3    H110617   2.623   4.358   3.131
 3558TIP3    H210618   2.648   4.268   3.011
 3559TIP3   OH210619   2.749   3.530   2.100
 3559TIP3    H110620   2.676   3.532   2.034
 3559TIP3    H210621   2.721   3.605   2.156
 3560TIP3   OH210622   2.625   3.199   2.050
 3560TIP3    H110623   2.571   3.239   1.980
 3560TIP3    H210624   2.600   3.105   2.041
 3561TIP3   OH210625   2.626   3.479   2.600
 3561TIP3    H110626   2.627   3.382   2.592
 3561TIP3    H210627   2.609   3.492   2.696
 3562TIP3   OH210628   1.245   3.553   3.352
 3562TIP3    H110629   1.244   3.523   3.259
 3562TIP3    H210630   1.342   3.557   3.369
 3563TIP3   OH210631   2.917   3.906   3.462
 3563TIP3    H110632   2.984   3.834   3.451
 3563TIP3    H210633   2.934   3.960   3.383
 3564TIP3   OH210634   3.098   3.709   3.473
 3564TIP3    H110635   3.023   3.655   3.507
 3564TIP3    H210636   3.172   3.646   3.489
 3565TIP3   OH210637   2.565   2.932   2.034
 3565TIP3    H110638   2.634   2.904   2.096
 3565TIP3    H210639   2.487   2.880   2.060
 3566TIP3   OH210640   2.623   3.199   2.498
 3566TIP3    H110641   2.662   3.109   2.512
 3566TIP3    H210642   2.679   3.230   2.425
 3567TIP3   OH210643   2.781   3.364   2.991
 3567TIP3    H110644   2.866   3.390   2.949
 3567TIP3    H210645   2.794   3.402   3.080
 3568TIP3   OH210646   2.853   3.513   3.220
 3568TIP3    H110647   2.775   3.545   3.269
 3568TIP3    H210648   2.884   3.595   3.176
 3569TIP3   OH210649   1.466   3.235   4.020
 3569TIP3    H110650   1.564   3.231   4.023
 3569TIP3    H210651   1.443   3.150   4.061
 3570TIP3   OH210652   3.286   3.101   3.770
 3570TIP3    H110653   3.358   3.042   3.741
 3570TIP3    H210654   3.273   3.160   3.694
 3571TIP3   OH210655   2.732   2.946   2.530
 3571TIP3    H110656   2.777   2.929   2.616
 3571TIP3    H210657   2.668   2.871   2.529
 3572TIP3   OH210658   1.429   2.932   3.358
 3572TIP3    H110659   1.492   2.857   3.363
 3572TIP3    H210660   1.490   3.007   3.347
 3573TIP3   OH210661   1.230   3.204   3.426
 3573TIP3    H110662   1.281   3.199   3.342
 3573TIP3    H210663   1.255   3.292   3.457
 3574TIP3   OH210664   3.174   3.249   3.568
 3574TIP3    H110665   3.087   3.284   3.595
 3574TIP3    H210666   3.146   3.169   3.521
 3575TIP3   OH210667   2.808   2.877   2.168
 3575TIP3    H110668   2.848   2.808   2.113
 3575TIP3    H210669   2.874   2.949   2.163
 3576TIP3   OH210670   1.216   2.705   2.927
 3576TIP3    H110671   1.123   2.702   2.953
 3576TIP3    H210672   1.213   2.764   2.849
 3577TIP3   OH210673   2.375   4.411   2.432
 3577TIP3    H110674   2.429   4.400   2.351
 3577TIP3    H210675   2.425   4.478   2.481
 3578TIP3   OH210676   1.435   2.786   3.741
 3578TIP3    H110677   1.384   2.785   3.823
 3578TIP3    H210678   1.371   2.825   3.679
 3579TIP3   OH210679   1.481   4.212   3.819
 3579TIP3    H110680   1.387   4.195   3.800
 3579TIP3    H210681   1.484   4.195   3.914
 3580TIP3   OH210682   1.660   4.254   3.368
 3580TIP3    H110683   1.609   4.328   3.330
 3580TIP3    H210684   1.744   4.267   3.319
 3581TIP3   OH210685   2.095   4.490   3.504
 3581TIP3    H110686   2.138   4.494   3.592
 3581TIP3    H210687   2.159   4.542   3.450
 3582TIP3   OH210688   2.274   4.644   3.366
 3582TIP3    H110689   2.344   4.598   3.318
 3582TIP3    H210690   2.326   4.703   3.424
 3583TIP3   OH210691   3.073   3.004   3.461
 3583TIP3    H110692   2.981   2.992   3.432
 3583TIP3    H210693   3.107   2.912   3.453
 3584TIP3   OH210694   1.325   4.503   3.374
 3584TIP3    H110695   1.238   4.547   3.363
 3584TIP3    H210696   1.340   4.516   3.468
 3585TIP3   OH210697   1.567   4.485   3.246
 3585TIP3    H110698   1.479   4.497   3.288
 3585TIP3    H210699   1.550   4.518   3.156
 3586TIP3   OH210700   1.993   4.509   3.044
 3586TIP3    H110701   1.923   4.530   2.980
 3586TIP3    H210702   2.005   4.596   3.088
 3587TIP3   OH210703   2.262   4.452   3.100
 3587TIP3    H110704   2.167   4.467   3.080
 3587TIP3    H210705   2.303   4.527   3.055
 3588TIP3   OH210706   2.470   4.641   3.013
 3588TIP3    H110707   2.454   4.726   2.966
 3588TIP3    H210708   2.493   4.582   2.938
 3589TIP3   OH210709   1.232   4.295   3.132
 3589TIP3    H110710   1.270   4.292   3.221
 3589TIP3    H210711   1.305   4.253   3.081
 3590TIP3   OH210712   1.434   4.174   2.993
 3590TIP3    H110713   1.451   4.087   3.037
 3590TIP3    H210714   1.526   4.209   2.988
 3591TIP3   OH210715   1.703   4.262   2.997
 3591TIP3    H110716   1.732   4.169   2.987
 3591TIP3    H210717   1.750   4.285   3.079
 3592TIP3   OH210718   2.297   2.926   3.100
 3592TIP3    H110719   2.238   2.858   3.136
 3592TIP3    H210720   2.356   2.874   3.042
 3593TIP3   OH210721   2.800   2.799   2.983
 3593TIP3    H110722   2.834   2.854   2.908
 3593TIP3    H210723   2.704   2.819   2.979
 3594TIP3   OH210724   2.895   2.900   2.748
 3594TIP3    H110725   2.970   2.850   2.710
 3594TIP3    H210726   2.928   2.992   2.734
 3595TIP3   OH210727   1.526   2.629   3.097
 3595TIP3    H110728   1.433   2.596   3.098
 3595TIP3    H210729   1.574   2.544   3.093
 3596TIP3   OH210730   1.318   2.500   2.746
 3596TIP3    H110731   1.345   2.557   2.672
 3596TIP3    H210732   1.287   2.566   2.812
 3597TIP3   OH210733   1.972   2.659   2.980
 3597TIP3    H110734   2.019   2.714   2.915
 3597TIP3    H210735   1.995   2.705   3.062
 3598TIP3   OH210736   2.520   2.806   2.961
 3598TIP3    H110737   2.510   2.768   2.873
 3598TIP3    H210738   2.505   2.728   3.019
 3599TIP3   OH210739   2.547   2.734   2.524
 3599TIP3    H110740   2.463   2.781   2.542
 3599TIP3    H210741   2.529   2.649   2.570
 3600TIP3   OH210742   1.027   4.073   2.522
 3600TIP3    H110743   0.940   4.043   2.490
 3600TIP3    H210744   1.019   4.168   2.502
 3601TIP3   OH210745   1.431   2.655   2.512
 3601TIP3    H110746   1.478   2.596   2.450
 3601TIP3    H210747   1.504   2.711   2.545
 3602TIP3   OH210748   1.932   2.864   2.607
 3602TIP3    H110749   2.001   2.840   2.671
 3602TIP3    H210750   1.933   2.962   2.612
 3603TIP3   OH210751   1.802   4.255   2.106
 3603TIP3    H110752   1.890   4.278   2.070
 3603TIP3    H210753   1.780   4.180   2.047
 3604TIP3   OH210754   2.524   4.379   2.200
 3604TIP3    H110755   2.516   4.281   2.190
 3604TIP3    H210756   2.476   4.410   2.121
 3605TIP3   OH210757   1.732   2.908   3.989
 3605TIP3    H110758   1.700   2.837   4.047
 3605TIP3    H210759   1.827   2.910   4.015
 3606TIP3   OH210760   1.983   2.908   4.107
 3606TIP3    H110761   2.067   2.886   4.064
 3606TIP3    H210762   1.974   2.835   4.172
 3607TIP3   OH210763   1.104   4.092   2.162
 3607TIP3    H110764   1.110   4.118   2.255
 3607TIP3    H210765   1.192   4.050   2.146
 3608TIP3   OH210766   2.808   2.971   3.895
 3608TIP3    H110767   2.828   2.940   3.986
 3608TIP3    H210768   2.897   2.966   3.854
 3609TIP3   OH210769   2.742   4.513   3.399
 3609TIP3    H110770   2.666   4.487   3.342
 3609TIP3    H210771   2.730   4.610   3.397
 3610TIP3   OH210772   4.015   3.896   2.150
 3610TIP3    H110773   3.984   3.986   2.129
 3610TIP3    H210774   3.938   3.844   2.120
 3611TIP3   OH210775   4.014   3.894   2.539
 3611TIP3    H110776   4.048   3.869   2.626
 3611TIP3    H210777   3.971   3.812   2.510
 3612TIP3   OH210778   3.311   3.787   2.902
 3612TIP3    H110779   3.340   3.718   2.964
 3612TIP3    H210780   3.391   3.840   2.893
 3613TIP3   OH210781   4.258   4.197   2.218
 3613TIP3    H110782   4.241   4.128   2.284
 3613TIP3    H210783   4.287   4.272   2.274
 3614TIP3   OH210784   3.285   4.201   2.624
 3614TIP3    H110785   3.276   4.103   2.624
 3614TIP3    H210786   3.382   4.208   2.618
 3615TIP3   OH210787   2.991   3.403   2.406
 3615TIP3    H110788   2.940   3.484   2.424
 3615TIP3    H210789   2.921   3.348   2.366
 3616TIP3   OH210790   3.049   3.690   2.587
 3616TIP3    H110791   3.098   3.612   2.620
 3616TIP3    H210792   3.106   3.719   2.514
 3617TIP3   OH210793   3.910   4.660   2.234
 3617TIP3    H110794   3.952   4.588   2.183
 3617TIP3    H210795   3.896   4.618   2.320
 3618TIP3   OH210796   3.810   4.121   2.583
 3618TIP3    H110797   3.850   4.043   2.539
 3618TIP3    H210798   3.893   4.167   2.608
 3619TIP3   OH210799   4.827   3.440   2.582
 3619TIP3    H110800   4.855   3.523   2.626
 3619TIP3    H210801   4.846   3.461   2.489
 3620TIP3   OH210802   4.225   3.621   2.613
 3620TIP3    H110803   4.266   3.535   2.634
 3620TIP3    H210804   4.192   3.603   2.523
 3621TIP3   OH210805   3.565   3.281   2.578
 3621TIP3    H110806   3.543   3.353   2.516
 3621TIP3    H210807   3.515   3.207   2.536
 3622TIP3   OH210808   4.258   3.371   2.201
 3622TIP3    H110809   4.330   3.357   2.267
 3622TIP3    H210810   4.310   3.407   2.127
 3623TIP3   OH210811   3.196   3.482   2.688
 3623TIP3    H110812   3.278   3.461   2.736
 3623TIP3    H210813   3.208   3.426   2.608
 3624TIP3   OH210814   3.635   3.680   2.482
 3624TIP3    H110815   3.728   3.655   2.495
 3624TIP3    H210816   3.596   3.596   2.450
 3625TIP3   OH210817   4.899   3.649   2.749
 3625TIP3    H110818   4.814   3.695   2.733
 3625TIP3    H210819   4.913   3.672   2.842
 3626TIP3   OH210820   3.559   3.263   3.015
 3626TIP3    H110821   3.498   3.300   2.947
 3626TIP3    H210822   3.506   3.280   3.096
 3627TIP3   OH210823   3.904   4.116   2.020
 3627TIP3    H110824   3.861   4.097   1.936
 3627TIP3    H210825   3.858   4.198   2.047
 3628TIP3   OH210826   3.664   4.040   2.806
 3628TIP3    H110827   3.603   4.108   2.843
 3628TIP3    H210828   3.707   4.090   2.733
 3629TIP3   OH210829   4.464   3.376   2.379
 3629TIP3    H110830   4.443   3.336   2.464
 3629TIP3    H210831   4.516   3.454   2.406
 3630TIP3   OH210832   3.431   3.379   2.797
 3630TIP3    H110833   3.493   3.451   2.821
 3630TIP3    H210834   3.481   3.338   2.723
 3631TIP3   OH210835   3.494   4.236   2.907
 3631TIP3    H110836   3.468   4.323   2.869
 3631TIP3    H210837   3.415   4.219   2.962
 3632TIP3   OH210838   2.888   3.926   2.143
 3632TIP3    H110839   2.843   3.952   2.060
 3632TIP3    H210840   2.917   4.012   2.178
 3633TIP3   OH210841   4.326   4.442   2.383
 3633TIP3    H110842   4.237   4.432   2.423
 3633TIP3    H210843   4.316   4.527   2.338
 3634TIP3   OH210844   4.619   3.337   2.746
 3634TIP3    H110845   4.532   3.368   2.717
 3634TIP3    H210846   4.679   3.371   2.675
 3635TIP3   OH210847   3.912   2.982   2.730
 3635TIP3    H110848   3.897   2.887   2.749
 3635TIP3    H210849   3.835   3.021   2.777
 3636TIP3   OH210850   4.025   4.486   2.054
 3636TIP3    H110851   4.076   4.403   2.036
 3636TIP3    H210852   4.087   4.551   2.014
 3637TIP3   OH210853   4.170   4.270   1.967
 3637TIP3    H110854   4.127   4.191   1.933
 3637TIP3    H210855   4.209   4.237   2.051
 3638TIP3   OH210856   4.551   4.353   2.726
 3638TIP3    H110857   4.539   4.274   2.668
 3638TIP3    H210858   4.534   4.426   2.663
 3639TIP3   OH210859   3.844   3.745   1.986
 3639TIP3    H110860   3.763   3.797   1.965
 3639TIP3    H210861   3.889   3.744   1.900
 3640TIP3   OH210862   3.801   3.534   1.698
 3640TIP3    H110863   3.869   3.583   1.747
 3640TIP3    H210864   3.858   3.470   1.650
 3641TIP3   OH210865   4.747   3.991   2.573
 3641TIP3    H110866   4.663   4.042   2.578
 3641TIP3    H210867   4.776   4.014   2.482
 3642TIP3   OH210868   4.192   3.829   1.954
 3642TIP3    H110869   4.137   3.854   2.032
 3642TIP3    H210870   4.276   3.804   1.999
 3643TIP3   OH210871   4.426   3.866   2.871
 3643TIP3    H110872   4.423   3.949   2.924
 3643TIP3    H210873   4.340   3.871   2.826
 3644TIP3   OH210874   3.424   3.825   2.372
 3644TIP3    H110875   3.383   3.767   2.305
 3644TIP3    H210876   3.500   3.771   2.403
 3645TIP3   OH210877   3.554   4.240   2.519
 3645TIP3    H110878   3.533   4.200   2.433
 3645TIP3    H210879   3.643   4.203   2.537
 3646TIP3   OH210880   3.559   3.797   2.728
 3646TIP3    H110881   3.592   3.774   2.639
 3646TIP3    H210882   3.603   3.883   2.746
 3647TIP3   OH210883   4.086   4.435   2.505
 3647TIP3    H110884   4.072   4.514   2.561
 3647TIP3    H210885   4.070   4.361   2.567
 3648TIP3   OH210886   3.699   4.353   3.050
 3648TIP3    H110887   3.639   4.415   3.096
 3648TIP3    H210888   3.634   4.300   3.000
 3649TIP3   OH210889   4.031   3.686   1.783
 3649TIP3    H110890   4.090   3.746   1.833
 3649TIP3    H210891   4.057   3.709   1.690
 3650TIP3   OH210892   3.452   3.911   3.156
 3650TIP3    H110893   3.455   3.997   3.201
 3650TIP3    H210894   3.358   3.889   3.165
 3651TIP3   OH210895   3.777   4.363   2.057
 3651TIP3    H110896   3.858   4.417   2.068
 3651TIP3    H210897   3.716   4.425   2.016
 3652TIP3   OH210898   3.494   4.521   3.135
 3652TIP3    H110899   3.460   4.522   3.044
 3652TIP3    H210900   3.412   4.504   3.187
 3653TIP3   OH210901   4.547   2.925   1.832
 3653TIP3    H110902   4.465   2.946   1.882
 3653TIP3    H210903   4.561   3.008   1.782
 3654TIP3   OH210904   3.291   3.669   2.175
 3654TIP3    H110905   3.222   3.713   2.121
 3654TIP3    H210906   3.251   3.583   2.191
 3655TIP3   OH210907   4.347   4.293   1.380
 3655TIP3    H110908   4.354   4.390   1.365
 3655TIP3    H210909   4.440   4.265   1.367
 3656TIP3   OH210910   3.070   4.054   3.086
 3656TIP3    H110911   3.003   4.035   3.017
 3656TIP3    H210912   3.106   3.965   3.106
 3657TIP3   OH210913   2.924   4.247   2.716
 3657TIP3    H110914   3.021   4.242   2.709
 3657TIP3    H210915   2.912   4.326   2.769
 3658TIP3   OH210916   4.787   4.699   2.772
 3658TIP3    H110917   4.788   4.602   2.787
 3658TIP3    H210918   4.704   4.723   2.819
 3659TIP3   OH210919   3.895   4.483   2.908
 3659TIP3    H110920   3.892   4.575   2.941
 3659TIP3    H210921   3.824   4.442   2.962
 3660TIP3   OH210922   3.659   4.611   1.860
 3660TIP3    H110923   3.610   4.592   1.778
 3660TIP3    H210924   3.624   4.699   1.886
 3661TIP3   OH210925   3.095   4.459   2.245
 3661TIP3    H110926   3.140   4.450   2.331
 3661TIP3    H210927   3.042   4.378   2.243
 3662TIP3   OH210928   3.858   4.514   1.499
 3662TIP3    H110929   3.916   4.443   1.463
 3662TIP3    H210930   3.892   4.523   1.590
 3663TIP3   OH210931   3.910   4.562   1.768
 3663TIP3    H110932   3.821   4.571   1.809
 3663TIP3    H210933   3.960   4.521   1.841
 3664TIP3   OH210934   4.681   3.829   3.048
 3664TIP3    H110935   4.595   3.837   3.003
 3664TIP3    H210936   4.696   3.733   3.043
 3665TIP3   OH210937   3.276   4.235   3.073
 3665TIP3    H110938   3.325   4.216   3.156
 3665TIP3    H210939   3.203   4.170   3.078
 3666TIP3   OH210940   3.675   3.059   2.859
 3666TIP3    H110941   3.586   3.029   2.832
 3666TIP3    H210942   3.649   3.140   2.908
 3667TIP3   OH210943   4.210   3.172   3.053
 3667TIP3    H110944   4.279   3.148   3.118
 3667TIP3    H210945   4.127   3.154   3.102
 3668TIP3   OH210946   4.446   3.603   2.972
 3668TIP3    H110947   4.398   3.599   3.057
 3668TIP3    H210948   4.421   3.691   2.938
 3669TIP3   OH210949   4.109   3.729   1.527
 3669TIP3    H110950   4.073   3.706   1.438
 3669TIP3    H210951   4.191   3.776   1.502
 3670TIP3   OH210952   3.821   3.105   1.830
 3670TIP3    H110953   3.787   3.104   1.921
 3670TIP3    H210954   3.780   3.024   1.795
 3671TIP3   OH210955   3.608   3.574   2.877
 3671TIP3    H110956   3.557   3.594   2.959
 3671TIP3    H210957   3.591   3.656   2.825
 3672TIP3   OH210958   3.490   3.461   2.390
 3672TIP3    H110959   3.398   3.435   2.409
 3672TIP3    H210960   3.502   3.420   2.302
 3673TIP3   OH210961   3.981   3.546   2.120
 3673TIP3    H110962   3.929   3.618   2.077
 3673TIP3    H210963   4.035   3.514   2.046
 3674TIP3   OH210964   4.156   3.823   3.203
 3674TIP3    H110965   4.133   3.750   3.265
 3674TIP3    H210966   4.250   3.836   3.226
 3675TIP3   OH210967   4.138   3.573   2.356
 3675TIP3    H110968   4.075   3.601   2.286
 3675TIP3    H210969   4.172   3.492   2.312
 3676TIP3   OH210970   3.426   3.602   3.085
 3676TIP3    H110971   3.459   3.662   3.154
 3676TIP3    H210972   3.413   3.519   3.135
 3677TIP3   OH210973   3.478   3.082   1.795
 3677TIP3    H110974   3.467   3.080   1.892
 3677TIP3    H210975   3.399   3.134   1.769
 3678TIP3   OH210976   3.020   3.124   2.665
 3678TIP3    H110977   3.094   3.156   2.720
 3678TIP3    H210978   3.063   3.092   2.584
 3679TIP3   OH210979   2.986   3.105   2.184
 3679TIP3    H110980   3.031   3.144   2.106
 3679TIP3    H210981   2.925   3.178   2.206
 3680TIP3   OH210982   4.148   3.820   2.778
 3680TIP3    H110983   4.182   3.748   2.719
 3680TIP3    H210984   4.119   3.766   2.855
 3681TIP3   OH210985   3.821   3.280   2.451
 3681TIP3    H110986   3.739   3.280   2.504
 3681TIP3    H210987   3.890   3.277   2.520
 3682TIP3   OH210988   3.252   3.340   2.458
 3682TIP3    H110989   3.158   3.348   2.431
 3682TIP3    H210990   3.274   3.248   2.436
 3683TIP3   OH210991   3.519   3.333   2.150
 3683TIP3    H110992   3.612   3.350   2.127
 3683TIP3    H210993   3.471   3.356   2.067
 3684TIP3   OH210994   4.310   3.358   2.651
 3684TIP3    H110995   4.281   3.370   2.744
 3684TIP3    H210996   4.240   3.298   2.619
 3685TIP3   OH210997   3.366   3.369   1.926
 3685TIP3    H110998   3.294   3.324   1.878
 3685TIP3    H210999   3.418   3.405   1.851
 3686TIP3   OH211000   4.474   5.046   2.868
 3686TIP3    H111001   4.479   5.053   2.771
 3686TIP3    H211002   4.560   5.087   2.893
 3687TIP3   OH211003   3.429   4.162   3.302
 3687TIP3    H111004   3.514   4.187   3.344
 3687TIP3    H211005   3.372   4.158   3.380
 3688TIP3   OH211006   3.900   3.613   2.550
 3688TIP3    H111007   3.973   3.571   2.503
 3688TIP3    H211008   3.904   3.570   2.638
 3689TIP3   OH211009   3.421   3.097   2.432
 3689TIP3    H111010   3.384   3.020   2.481
 3689TIP3    H211011   3.466   3.055   2.358
 3690TIP3   OH211012   3.877   3.513   2.834
 3690TIP3    H111013   3.787   3.546   2.853
 3690TIP3    H211014   3.934   3.572   2.888
 3691TIP3   OH211015   3.614   3.897   1.933
 3691TIP3    H111016   3.541   3.832   1.921
 3691TIP3    H211017   3.594   3.931   2.024
 3692TIP3   OH211018   4.513   4.135   2.561
 3692TIP3    H111019   4.537   4.184   2.480
 3692TIP3    H211020   4.428   4.093   2.535
 3693TIP3   OH211021   4.071   3.209   1.799
 3693TIP3    H111022   3.975   3.190   1.808
 3693TIP3    H211023   4.078   3.303   1.824
 3694TIP3   OH211024   4.015   4.219   2.930
 3694TIP3    H111025   4.041   4.195   3.021
 3694TIP3    H211026   3.974   4.306   2.941
 3695TIP3   OH211027   4.139   3.458   1.902
 3695TIP3    H111028   4.236   3.465   1.917
 3695TIP3    H211029   4.120   3.538   1.850
 3696TIP3   OH211030   3.309   3.924   2.608
 3696TIP3    H111031   3.346   3.894   2.523
 3696TIP3    H211032   3.348   3.861   2.671
 3697TIP3   OH211033   3.759   4.048   1.757
 3697TIP3    H111034   3.711   4.134   1.761
 3697TIP3    H211035   3.704   3.992   1.816
 3698TIP3   OH211036   3.186   3.841   3.224
 3698TIP3    H111037   3.205   3.822   3.318
 3698TIP3    H211038   3.119   3.774   3.203
 3699TIP3   OH211039   3.915   3.959   3.240
 3699TIP3    H111040   3.855   3.896   3.197
 3699TIP3    H211041   4.002   3.922   3.214
 3700TIP3   OH211042   4.172   4.483   2.824
 3700TIP3    H111043   4.076   4.476   2.839
 3700TIP3    H211044   4.200   4.531   2.905
 3701TIP3   OH211045   4.582   3.550   1.734
 3701TIP3    H111046   4.520   3.505   1.672
 3701TIP3    H211047   4.578   3.640   1.695
 3702TIP3   OH211048   4.801   4.410   2.814
 3702TIP3    H111049   4.704   4.402   2.807
 3702TIP3    H211050   4.828   4.379   2.725
 3703TIP3   OH211051   4.286   4.368   1.646
 3703TIP3    H111052   4.257   4.299   1.707
 3703TIP3    H211053   4.297   4.320   1.561
 3704TIP3   OH211054   4.279   3.998   2.476
 3704TIP3    H111055   4.186   3.972   2.492
 3704TIP3    H211056   4.313   3.917   2.433
 3705TIP3   OH211057   3.408   4.226   2.235
 3705TIP3    H111058   3.405   4.307   2.181
 3705TIP3    H211059   3.314   4.208   2.247
 3706TIP3   OH211060   2.972   3.528   1.941
 3706TIP3    H111061   3.017   3.613   1.962
 3706TIP3    H211062   2.894   3.533   2.001
 3707TIP3   OH211063   3.542   3.990   2.177
 3707TIP3    H111064   3.508   4.079   2.196
 3707TIP3    H211065   3.506   3.939   2.252
 3708TIP3   OH211066   3.678   4.567   2.704
 3708TIP3    H111067   3.720   4.639   2.653
 3708TIP3    H211068   3.754   4.531   2.751
 3709TIP3   OH211069   3.326   4.463   2.087
 3709TIP3    H111070   3.240   4.471   2.133
 3709TIP3    H211071   3.357   4.556   2.090
 3710TIP3   OH211072   4.064   4.204   2.662
 3710TIP3    H111073   4.053   4.203   2.760
 3710TIP3    H211074   4.142   4.148   2.651
 3711TIP3   OH211075   4.041   4.098   1.545
 3711TIP3    H111076   4.094   4.072   1.624
 3711TIP3    H211077   3.953   4.069   1.573
 3712TIP3   OH211078   4.313   4.735   2.715
 3712TIP3    H111079   4.235   4.675   2.712
 3712TIP3    H211080   4.293   4.796   2.641
 3713TIP3   OH211081   4.378   4.569   1.364
 3713TIP3    H111082   4.413   4.641   1.309
 3713TIP3    H211083   4.298   4.613   1.399
 3714TIP3   OH211084   3.397   3.347   3.228
 3714TIP3    H111085   3.300   3.350   3.242
 3714TIP3    H211086   3.425   3.291   3.303
 3715TIP3   OH211087   4.202   4.028   1.759
 3715TIP3    H111088   4.191   3.963   1.831
 3715TIP3    H211089   4.299   4.026   1.748
 3716TIP3   OH211090   3.115   4.431   2.862
 3716TIP3    H111091   3.169   4.358   2.896
 3716TIP3    H211092   3.146   4.504   2.916
 3717TIP3   OH211093   3.405   4.075   1.545
 3717TIP3    H111094   3.417   3.982   1.518
 3717TIP3    H211095   3.385   4.065   1.640
 3718TIP3   OH211096   3.349   4.081   1.816
 3718TIP3    H111097   3.420   4.053   1.876
 3718TIP3    H211098   3.353   4.179   1.825
 3719TIP3   OH211099   3.084   3.773   2.022
 3719TIP3    H111100   3.017   3.818   2.078
 3719TIP3    H211101   3.097   3.842   1.954
 3720TIP3   OH211102   4.241   3.406   2.910
 3720TIP3    H111103   4.316   3.449   2.955
 3720TIP3    H211104   4.225   3.327   2.966
 3721TIP3   OH211105   4.120   3.158   2.080
 3721TIP3    H111106   4.104   3.182   1.987
 3721TIP3    H211107   4.158   3.241   2.116
 3722TIP3   OH211108   3.617   4.278   1.765
 3722TIP3    H111109   3.530   4.303   1.802
 3722TIP3    H211110   3.632   4.353   1.705
 3723TIP3   OH211111   3.803   3.342   2.181
 3723TIP3    H111112   3.867   3.415   2.164
 3723TIP3    H211113   3.808   3.333   2.278
 3724TIP3   OH211114   4.076   3.659   2.987
 3724TIP3    H111115   4.097   3.713   3.066
 3724TIP3    H211116   4.128   3.579   3.003
 3725TIP3   OH211117   3.947   3.064   2.282
 3725TIP3    H111118   3.938   3.142   2.340
 3725TIP3    H211119   4.010   3.099   2.214
 3726TIP3   OH211120   3.362   4.354   1.835
 3726TIP3    H111121   3.332   4.424   1.773
 3726TIP3    H211122   3.345   4.396   1.922
 3727TIP3   OH211123   3.461   3.067   2.071
 3727TIP3    H111124   3.457   3.157   2.109
 3727TIP3    H211125   3.557   3.050   2.079
 3728TIP3   OH211126   4.712   3.560   2.965
 3728TIP3    H111127   4.614   3.560   2.977
 3728TIP3    H211128   4.719   3.512   2.882
 3729TIP3   OH211129   4.365   3.754   2.356
 3729TIP3    H111130   4.288   3.695   2.369
 3729TIP3    H211131   4.435   3.706   2.405
 3730TIP3   OH211132   3.079   3.980   1.826
 3730TIP3    H111133   3.148   4.048   1.834
 3730TIP3    H211134   3.122   3.922   1.759
 3731TIP3   OH211135   3.021   3.258   1.958
 3731TIP3    H111136   3.021   3.356   1.957
 3731TIP3    H211137   2.935   3.238   1.919
 3732TIP3   OH211138   4.333   4.714   2.305
 3732TIP3    H111139   4.290   4.761   2.230
 3732TIP3    H211140   4.428   4.732   2.284
 3733TIP3   OH211141   3.411   2.979   2.830
 3733TIP3    H111142   3.379   2.944   2.744
 3733TIP3    H211143   3.400   2.901   2.889
 3734TIP3   OH211144   2.947   4.199   2.211
 3734TIP3    H111145   2.881   4.227   2.277
 3734TIP3    H211146   2.912   4.242   2.129
 3735TIP3   OH211147   3.110   4.744   3.284
 3735TIP3    H111148   3.196   4.748   3.331
 3735TIP3    H211149   3.097   4.648   3.278
 3736TIP3   OH211150   3.585   4.702   3.329
 3736TIP3    H111151   3.679   4.683   3.338
 3736TIP3    H211152   3.561   4.641   3.255
 3737TIP3   OH211153   3.567   4.278   1.455
 3737TIP3    H111154   3.512   4.207   1.495
 3737TIP3    H211155   3.643   4.226   1.423
 3738TIP3   OH211156   4.227   4.611   3.061
 3738TIP3    H111157   4.218   4.540   3.129
 3738TIP3    H211158   4.304   4.661   3.094
 3739TIP3   OH211159   4.003   4.318   1.370
 3739TIP3    H111160   4.044   4.252   1.429
 3739TIP3    H211161   4.061   4.315   1.292
 3740TIP3   OH211162   3.214   4.144   3.503
 3740TIP3    H111163   3.249   4.053   3.497
 3740TIP3    H211164   3.143   4.142   3.435
 3741TIP3   OH211165   3.215   3.794   1.680
 3741TIP3    H111166   3.270   3.762   1.753
 3741TIP3    H211167   3.282   3.799   1.608
 3742TIP3   OH211168   3.843   4.233   3.259
 3742TIP3    H111169   3.802   4.250   3.172
 3742TIP3    H211170   3.875   4.141   3.250
 3743TIP3   OH211171   3.730   3.995   1.487
 3743TIP3    H111172   3.729   4.008   1.584
 3743TIP3    H211173   3.728   3.897   1.481
 3744TIP3   OH211174   4.336   4.243   2.865
 3744TIP3    H111175   4.411   4.288   2.821
 3744TIP3    H211176   4.264   4.307   2.851
 3745TIP3   OH211177   3.357   3.890   3.467
 3745TIP3    H111178   3.428   3.830   3.440
 3745TIP3    H211179   3.385   3.914   3.557
 3746TIP3   OH211180   3.420   3.702   1.899
 3746TIP3    H111181   3.392   3.662   1.983
 3746TIP3    H211182   3.456   3.624   1.851
 3747TIP3   OH211183   3.689   3.764   3.128
 3747TIP3    H111184   3.612   3.825   3.130
 3747TIP3    H211185   3.740   3.798   3.051
 3748TIP3   OH211186   3.523   3.496   1.740
 3748TIP3    H111187   3.497   3.501   1.646
 3748TIP3    H211188   3.621   3.500   1.732
 3749TIP3   OH211189   4.208   4.166   3.261
 3749TIP3    H111190   4.287   4.135   3.215
 3749TIP3    H211191   4.202   4.103   3.335
 3750TIP3   OH211192   4.343   3.824   1.406
 3750TIP3    H111193   4.321   3.779   1.322
 3750TIP3    H211194   4.311   3.914   1.384
 3751TIP3   OH211195   3.813   3.554   3.255
 3751TIP3    H111196   3.814   3.475   3.199
 3751TIP3    H211197   3.769   3.620   3.197
 3752TIP3   OH211198   3.817   3.340   3.061
 3752TIP3    H111199   3.844   3.380   2.976
 3752TIP3    H211200   3.724   3.317   3.043
 3753TIP3   OH211201   3.841   3.874   2.934
 3753TIP3    H111202   3.926   3.885   2.891
 3753TIP3    H211203   3.785   3.940   2.888
 3754TIP3   OH211204   4.420   3.840   3.312
 3754TIP3    H111205   4.464   3.762   3.350
 3754TIP3    H211206   4.496   3.891   3.280
 3755TIP3   OH211207   4.466   4.095   3.051
 3755TIP3    H111208   4.408   4.150   2.993
 3755TIP3    H211209   4.554   4.115   3.011
 3756TIP3   OH211210   3.687   3.664   3.484
 3756TIP3    H111211   3.623   3.591   3.501
 3756TIP3    H211212   3.726   3.635   3.399
 3757TIP3   OH211213   3.948   3.101   3.129
 3757TIP3    H111214   3.899   3.184   3.108
 3757TIP3    H211215   3.877   3.034   3.120
 3758TIP3   OH211216   4.075   3.607   3.346
 3758TIP3    H111217   4.067   3.592   3.442
 3758TIP3    H211218   3.984   3.582   3.318
 3759TIP3   OH211219   4.311   3.551   3.198
 3759TIP3    H111220   4.238   3.555   3.263
 3759TIP3    H211221   4.386   3.523   3.255
 3760TIP3   OH211222   4.541   3.493   3.345
 3760TIP3    H111223   4.555   3.399   3.369
 3760TIP3    H211224   4.534   3.537   3.432
 3761TIP3   OH211225   3.533   3.441   3.540
 3761TIP3    H111226   3.537   3.349   3.508
 3761TIP3    H211227   3.572   3.430   3.630
 3762TIP3   OH211228   4.043   3.113   3.387
 3762TIP3    H111229   4.109   3.041   3.382
 3762TIP3    H211230   4.002   3.106   3.298
 3763TIP3   OH211231   4.109   3.328   3.545
 3763TIP3    H111232   4.086   3.256   3.483
 3763TIP3    H211233   4.030   3.386   3.541
 3764TIP3   OH211234   3.332   4.557   1.648
 3764TIP3    H111235   3.427   4.549   1.627
 3764TIP3    H211236   3.302   4.607   1.570
 3765TIP3   OH211237   2.809   3.939   1.859
 3765TIP3    H111238   2.905   3.959   1.847
 3765TIP3    H211239   2.803   3.850   1.819
 3766TIP3   OH211240   2.727   4.550   2.277
 3766TIP3    H111241   2.659   4.489   2.240
 3766TIP3    H211242   2.770   4.490   2.342
 3767TIP3   OH211243   2.861   4.397   2.464
 3767TIP3    H111244   2.846   4.327   2.529
 3767TIP3    H211245   2.912   4.460   2.518
 3768TIP3   OH211246   4.588   4.803   2.264
 3768TIP3    H111247   4.619   4.830   2.353
 3768TIP3    H211248   4.657   4.839   2.206
 3769TIP3   OH211249   4.621   4.820   2.548
 3769TIP3    H111250   4.572   4.735   2.542
 3769TIP3    H211251   4.693   4.792   2.607
 3770TIP3   OH211252   4.662   4.500   3.118
 3770TIP3    H111253   4.590   4.507   3.184
 3770TIP3    H211254   4.705   4.588   3.125
 3771TIP3   OH211255   4.481   4.010   1.737
 3771TIP3    H111256   4.548   4.075   1.709
 3771TIP3    H211257   4.524   3.971   1.817
 3772TIP3   OH211258   4.608   3.877   1.942
 3772TIP3    H111259   4.541   3.836   2.001
 3772TIP3    H211260   4.673   3.914   2.005
 3773TIP3   OH211261   4.664   4.272   2.373
 3773TIP3    H111262   4.717   4.205   2.327
 3773TIP3    H211263   4.656   4.343   2.307
 3774TIP3   OH211264   4.491   4.574   2.566
 3774TIP3    H111265   4.419   4.611   2.620
 3774TIP3    H211266   4.442   4.525   2.496
 3775TIP3   OH211267   4.545   3.786   1.588
 3775TIP3    H111268   4.472   3.789   1.521
 3775TIP3    H211269   4.518   3.862   1.643
 3776TIP3   OH211270   4.417   3.457   1.539
 3776TIP3    H111271   4.369   3.495   1.465
 3776TIP3    H211272   4.394   3.362   1.530
 3777TIP3   OH211273   4.420   3.736   2.087
 3777TIP3    H111274   4.427   3.639   2.081
 3777TIP3    H211275   4.405   3.750   2.183
 3778TIP3   OH211276   3.046   3.808   2.837
 3778TIP3    H111277   3.042   3.775   2.744
 3778TIP3    H211278   3.143   3.809   2.852
 3779TIP3   OH211279   4.711   4.161   2.945
 3779TIP3    H111280   4.782   4.093   2.935
 3779TIP3    H211281   4.739   4.229   2.881
 3780TIP3   OH211282   4.895   3.964   2.953
 3780TIP3    H111283   4.820   3.914   2.993
 3780TIP3    H211284   4.968   3.900   2.970
 3781TIP3   OH211285   4.360   3.190   1.522
 3781TIP3    H111286   4.431   3.160   1.582
 3781TIP3    H211287   4.283   3.136   1.547
 3782TIP3   OH211288   4.417   3.452   1.980
 3782TIP3    H111289   4.458   3.364   1.995
 3782TIP3    H211290   4.475   3.486   1.910
 3783TIP3   OH211291   4.577   3.621   2.477
 3783TIP3    H111292   4.663   3.647   2.436
 3783TIP3    H211293   4.590   3.660   2.566
 3784TIP3   OH211294   4.647   3.769   2.706
 3784TIP3    H111295   4.571   3.802   2.759
 3784TIP3    H211296   4.680   3.851   2.664
 3785TIP3   OH211297   3.270   3.503   3.515
 3785TIP3    H111298   3.367   3.491   3.516
 3785TIP3    H211299   3.242   3.415   3.546
 3786TIP3   OH211300   5.096   3.362   3.262
 3786TIP3    H111301   5.158   3.298   3.221
 3786TIP3    H211302   5.070   3.417   3.186
 3787TIP3   OH211303   4.527   3.202   2.019
 3787TIP3    H111304   4.574   3.186   2.103
 3787TIP3    H211305   4.465   3.126   2.017
 3788TIP3   OH211306   3.227   3.187   2.837
 3788TIP3    H111307   3.289   3.112   2.848
 3788TIP3    H211308   3.289   3.262   2.832
 3789TIP3   OH211309   3.026   3.460   2.912
 3789TIP3    H111310   3.075   3.455   2.827
 3789TIP3    H211311   3.057   3.545   2.946
 3790TIP3   OH211312   4.970   3.501   3.066
 3790TIP3    H111313   4.886   3.542   3.097
 3790TIP3    H211314   4.934   3.429   3.011
 3791TIP3   OH211315   4.604   3.134   1.655
 3791TIP3    H111316   4.644   3.064   1.599
 3791TIP3    H211317   4.671   3.205   1.650
 3792TIP3   OH211318   3.012   2.961   2.412
 3792TIP3    H111319   2.919   2.958   2.442
 3792TIP3    H211320   3.006   3.021   2.335
 3793TIP3   OH211321   4.172   4.669   1.921
 3793TIP3    H111322   4.222   4.655   1.838
 3793TIP3    H211323   4.227   4.736   1.965
 3794TIP3   OH211324   3.232   3.042   3.226
 3794TIP3    H111325   3.182   3.037   3.310
 3794TIP3    H211326   3.165   3.082   3.168
 3795TIP3   OH211327   3.274   4.479   3.298
 3795TIP3    H111328   3.182   4.447   3.292
 3795TIP3    H211329   3.306   4.442   3.380
 3796TIP3   OH211330   3.451   4.507   2.853
 3796TIP3    H111331   3.403   4.583   2.814
 3796TIP3    H211332   3.537   4.520   2.807
 3797TIP3   OH211333   3.893   4.749   2.989
 3797TIP3    H111334   3.934   4.747   3.078
 3797TIP3    H211335   3.959   4.801   2.939
 3798TIP3   OH211336   4.072   4.904   2.850
 3798TIP3    H111337   4.142   4.849   2.811
 3798TIP3    H211338   4.124   4.959   2.912
 3799TIP3   OH211339   4.869   3.262   2.947
 3799TIP3    H111340   4.778   3.254   2.917
 3799TIP3    H211341   4.901   3.170   2.938
 3800TIP3   OH211342   3.127   4.762   2.878
 3800TIP3    H111343   3.036   4.792   2.855
 3800TIP3    H211344   3.139   4.810   2.961
 3801TIP3   OH211345   3.362   4.741   2.735
 3801TIP3    H111346   3.275   4.753   2.780
 3801TIP3    H211347   3.342   4.773   2.645
 3802TIP3   OH211348   3.788   4.766   2.532
 3802TIP3    H111349   3.717   4.785   2.467
 3802TIP3    H211350   3.798   4.854   2.575
 3803TIP3   OH211351   4.057   4.709   2.585
 3803TIP3    H111352   3.962   4.723   2.565
 3803TIP3    H211353   4.097   4.783   2.538
 3804TIP3   OH211354   4.269   4.901   2.498
 3804TIP3    H111355   4.248   4.982   2.447
 3804TIP3    H211356   4.291   4.838   2.426
 3805TIP3   OH211357   3.039   4.556   2.619
 3805TIP3    H111358   3.063   4.527   2.710
 3805TIP3    H211359   3.111   4.512   2.569
 3806TIP3   OH211360   3.233   4.427   2.479
 3806TIP3    H111361   3.248   4.343   2.529
 3806TIP3    H211362   3.325   4.463   2.476
 3807TIP3   OH211363   3.501   4.520   2.483
 3807TIP3    H111364   3.529   4.427   2.473
 3807TIP3    H211365   3.547   4.542   2.567
 3808TIP3   OH211366   4.073   3.177   2.569
 3808TIP3    H111367   4.031   3.107   2.622
 3808TIP3    H211368   4.147   3.129   2.526
 3809TIP3   OH211369   4.594   3.055   2.470
 3809TIP3    H111370   4.630   3.109   2.397
 3809TIP3    H211371   4.500   3.078   2.467
 3810TIP3   OH211372   4.691   3.157   2.235
 3810TIP3    H111373   4.766   3.106   2.197
 3810TIP3    H211374   4.724   3.248   2.222
 3811TIP3   OH211375   3.322   2.885   2.583
 3811TIP3    H111376   3.230   2.851   2.586
 3811TIP3    H211377   3.371   2.800   2.579
 3812TIP3   OH211378   3.112   2.757   2.234
 3812TIP3    H111379   3.139   2.815   2.161
 3812TIP3    H211380   3.081   2.821   2.301
 3813TIP3   OH211381   3.769   2.916   2.465
 3813TIP3    H111382   3.825   2.966   2.405
 3813TIP3    H211383   3.790   2.955   2.550
 3814TIP3   OH211384   4.311   3.066   2.449
 3814TIP3    H111385   4.309   3.027   2.360
 3814TIP3    H211386   4.299   2.986   2.506
 3815TIP3   OH211387   4.343   2.990   2.012
 3815TIP3    H111388   4.258   3.034   2.028
 3815TIP3    H211389   4.328   2.904   2.056
 3816TIP3   OH211390   2.826   4.329   2.008
 3816TIP3    H111391   2.740   4.296   1.976
 3816TIP3    H211392   2.815   4.424   1.986
 3817TIP3   OH211393   3.228   2.915   1.994
 3817TIP3    H111394   3.276   2.852   1.937
 3817TIP3    H211395   3.301   2.969   2.031
 3818TIP3   OH211396   3.738   3.092   2.094
 3818TIP3    H111397   3.797   3.046   2.155
 3818TIP3    H211398   3.758   3.185   2.119
 3819TIP3   OH211399   3.598   4.512   1.594
 3819TIP3    H111400   3.686   4.536   1.557
 3819TIP3    H211401   3.576   4.437   1.534
 3820TIP3   OH211402   4.318   4.635   1.688
 3820TIP3    H111403   4.311   4.537   1.676
 3820TIP3    H211404   4.272   4.667   1.608
 3821TIP3   OH211405   3.529   3.165   3.475
 3821TIP3    H111406   3.494   3.095   3.532
 3821TIP3    H211407   3.623   3.166   3.503
 3822TIP3   OH211408   3.778   3.162   3.594
 3822TIP3    H111409   3.865   3.137   3.561
 3822TIP3    H211410   3.763   3.093   3.663
 3823TIP3   OH211411   2.901   4.351   1.649
 3823TIP3    H111412   2.902   4.371   1.744
 3823TIP3    H211413   2.989   4.308   1.636
 3824TIP3   OH211414   4.604   3.224   3.383
 3824TIP3    H111415   4.621   3.196   3.476
 3824TIP3    H211416   4.695   3.221   3.345
 3825TIP3   OH211417   4.541   4.778   2.874
 3825TIP3    H111418   4.463   4.744   2.826
 3825TIP3    H211419   4.515   4.872   2.884
 3826TIP3   OH211420   5.811   4.151   1.637
 3826TIP3    H111421   5.781   4.242   1.617
 3826TIP3    H211422   5.733   4.101   1.608
 3827TIP3   OH211423   5.808   4.150   2.025
 3827TIP3    H111424   5.844   4.127   2.113
 3827TIP3    H211425   5.767   4.067   1.998
 3828TIP3   OH211426   5.106   4.043   2.387
 3828TIP3    H111427   5.136   3.975   2.450
 3828TIP3    H211428   5.184   4.100   2.384
 3829TIP3   OH211429   6.054   4.454   1.706
 3829TIP3    H111430   6.039   4.386   1.773
 3829TIP3    H211431   6.084   4.530   1.760
 3830TIP3   OH211432   5.080   4.456   2.110
 3830TIP3    H111433   5.071   4.358   2.111
 3830TIP3    H211434   5.177   4.464   2.105
 3831TIP3   OH211435   4.787   3.658   1.892
 3831TIP3    H111436   4.738   3.740   1.911
 3831TIP3    H211437   4.716   3.605   1.852
 3832TIP3   OH211438   4.844   3.945   2.071
 3832TIP3    H111439   4.894   3.868   2.107
 3832TIP3    H211440   4.905   3.979   2.005
 3833TIP3   OH211441   5.707   4.918   1.721
 3833TIP3    H111442   5.747   4.846   1.669
 3833TIP3    H211443   5.697   4.877   1.808
 3834TIP3   OH211444   5.606   4.377   2.069
 3834TIP3    H111445   5.647   4.300   2.026
 3834TIP3    H211446   5.689   4.424   2.096
 3835TIP3   OH211447   6.623   3.696   2.068
 3835TIP3    H111448   6.651   3.779   2.111
 3835TIP3    H211449   6.645   3.714   1.975
 3836TIP3   OH211450   6.020   3.877   2.100
 3836TIP3    H111451   6.063   3.791   2.121
 3836TIP3    H211452   5.988   3.859   2.009
 3837TIP3   OH211453   5.361   3.537   2.065
 3837TIP3    H111454   5.339   3.610   2.003
 3837TIP3    H211455   5.311   3.464   2.023
 3838TIP3   OH211456   6.054   3.628   1.687
 3838TIP3    H111457   6.125   3.614   1.753
 3838TIP3    H211458   6.106   3.664   1.613
 3839TIP3   OH211459   4.992   3.739   2.175
 3839TIP3    H111460   5.075   3.719   2.223
 3839TIP3    H211461   5.005   3.683   2.095
 3840TIP3   OH211462   5.431   3.937   1.968
 3840TIP3    H111463   5.525   3.912   1.981
 3840TIP3    H211464   5.393   3.853   1.936
 3841TIP3   OH211465   6.695   3.904   2.238
 3841TIP3    H111466   6.611   3.951   2.220
 3841TIP3    H211467   6.715   3.938   2.327
 3842TIP3   OH211468   5.354   3.520   2.502
 3842TIP3    H111469   5.295   3.558   2.434
 3842TIP3    H211470   5.302   3.537   2.583
 3843TIP3   OH211471   5.697   4.371   1.508
 3843TIP3    H111472   5.657   4.355   1.422
 3843TIP3    H211473   5.653   4.454   1.535
 3844TIP3   OH211474   5.460   4.296   2.293
 3844TIP3    H111475   5.400   4.364   2.331
 3844TIP3    H211476   5.505   4.346   2.222
 3845TIP3   OH211477   6.259   3.634   1.865
 3845TIP3    H111478   6.244   3.590   1.950
 3845TIP3    H211479   6.312   3.711   1.891
 3846TIP3   OH211480   5.227   3.635   2.285
 3846TIP3    H111481   5.288   3.709   2.308
 3846TIP3    H211482   5.277   3.595   2.210
 3847TIP3   OH211483   5.289   4.492   2.393
 3847TIP3    H111484   5.264   4.579   2.357
 3847TIP3    H211485   5.211   4.475   2.450
 3848TIP3   OH211486   4.682   4.182   1.630
 3848TIP3    H111487   4.640   4.208   1.546
 3848TIP3    H211488   4.713   4.268   1.665
 3849TIP3   OH211489   6.120   4.697   1.869
 3849TIP3    H111490   6.031   4.688   1.909
 3849TIP3    H211491   6.112   4.784   1.825
 3850TIP3   OH211492   6.416   3.593   2.232
 3850TIP3    H111493   6.328   3.624   2.202
 3850TIP3    H211494   6.475   3.627   2.162
 3851TIP3   OH211495   5.708   3.237   2.217
 3851TIP3    H111496   5.693   3.142   2.236
 3851TIP3    H211497   5.631   3.276   2.264
 3852TIP3   OH211498   5.820   4.744   1.539
 3852TIP3    H111499   5.870   4.661   1.522
 3852TIP3    H211500   5.882   4.809   1.500
 3853TIP3   OH211501   5.964   4.528   1.455
 3853TIP3    H111502   5.930   4.447   1.416
 3853TIP3    H211503   6.003   4.494   1.539
 3854TIP3   OH211504   6.346   4.608   2.212
 3854TIP3    H111505   6.335   4.532   2.152
 3854TIP3    H211506   6.332   4.685   2.153
 3855TIP3   OH211507   5.639   4.001   1.472
 3855TIP3    H111508   5.559   4.054   1.452
 3855TIP3    H211509   5.686   4.002   1.387
 3856TIP3   OH211510   5.598   3.791   1.183
 3856TIP3    H111511   5.664   3.840   1.234
 3856TIP3    H211512   5.656   3.727   1.136
 3857TIP3   OH211513   6.543   4.245   2.059
 3857TIP3    H111514   6.460   4.297   2.065
 3857TIP3    H211515   6.573   4.270   1.969
 3858TIP3   OH211516   5.988   4.084   1.441
 3858TIP3    H111517   5.933   4.109   1.519
 3858TIP3    H211518   6.072   4.060   1.485
 3859TIP3   OH211519   6.222   4.122   2.358
 3859TIP3    H111520   6.221   4.205   2.409
 3859TIP3    H211521   6.136   4.129   2.312
 3860TIP3   OH211522   5.220   4.081   1.860
 3860TIP3    H111523   5.180   4.023   1.792
 3860TIP3    H211524   5.297   4.028   1.890
 3861TIP3   OH211525   5.350   4.497   2.006
 3861TIP3    H111526   5.331   4.456   1.920
 3861TIP3    H211527   5.439   4.460   2.025
 3862TIP3   OH211528   5.355   4.054   2.214
 3862TIP3    H111529   5.390   4.031   2.125
 3862TIP3    H211530   5.399   4.139   2.233
 3863TIP3   OH211531   5.880   4.690   1.991
 3863TIP3    H111532   5.867   4.771   2.044
 3863TIP3    H211533   5.866   4.618   2.055
 3864TIP3   OH211534   5.495   4.611   2.537
 3864TIP3    H111535   5.436   4.671   2.586
 3864TIP3    H211536   5.429   4.557   2.489
 3865TIP3   OH211537   5.827   3.943   1.268
 3865TIP3    H111538   5.887   4.003   1.319
 3865TIP3    H211539   5.853   3.966   1.176
 3866TIP3   OH211540   5.249   4.165   2.640
 3866TIP3    H111541   5.254   4.252   2.684
 3866TIP3    H211542   5.154   4.145   2.655
 3867TIP3   OH211543   5.573   4.620   1.544
 3867TIP3    H111544   5.655   4.672   1.554
 3867TIP3    H211545   5.512   4.683   1.503
 3868TIP3   OH211546   5.287   4.776   2.625
 3868TIP3    H111547   5.253   4.775   2.534
 3868TIP3    H211548   5.207   4.756   2.678
 3869TIP3   OH211549   6.343   3.182   1.318
 3869TIP3    H111550   6.262   3.204   1.369
 3869TIP3    H211551   6.357   3.265   1.268
 3870TIP3   OH211552   5.088   3.925   1.660
 3870TIP3    H111553   5.018   3.969   1.607
 3870TIP3    H211554   5.048   3.840   1.678
 3871TIP3   OH211555   6.143   4.547   0.869
 3871TIP3    H111556   6.150   4.644   0.853
 3871TIP3    H211557   6.236   4.519   0.858
 3872TIP3   OH211558   4.867   4.310   2.572
 3872TIP3    H111559   4.800   4.287   2.504
 3872TIP3    H211560   4.905   4.222   2.595
 3873TIP3   OH211561   4.722   4.503   2.201
 3873TIP3    H111562   4.818   4.494   2.193
 3873TIP3    H211563   4.714   4.579   2.260
 3874TIP3   OH211564   6.582   4.963   2.253
 3874TIP3    H111565   6.583   4.866   2.244
 3874TIP3    H211566   6.549   4.964   2.347
 3875TIP3   OH211567   5.689   4.742   2.393
 3875TIP3    H111568   5.687   4.834   2.428
 3875TIP3    H211569   5.621   4.699   2.449
 3876TIP3   OH211570   5.454   4.867   1.348
 3876TIP3    H111571   5.408   4.847   1.264
 3876TIP3    H211572   5.420   4.955   1.372
 3877TIP3   OH211573   4.891   4.716   1.732
 3877TIP3    H111574   4.937   4.706   1.818
 3877TIP3    H211575   4.838   4.634   1.730
 3878TIP3   OH211576   5.654   4.770   0.988
 3878TIP3    H111577   5.711   4.699   0.951
 3878TIP3    H211578   5.690   4.780   1.079
 3879TIP3   OH211579   5.706   4.819   1.257
 3879TIP3    H111580   5.617   4.828   1.298
 3879TIP3    H211581   5.756   4.777   1.329
 3880TIP3   OH211582   6.476   4.083   2.537
 3880TIP3    H111583   6.393   4.097   2.488
 3880TIP3    H211584   6.490   3.987   2.526
 3881TIP3   OH211585   5.072   4.493   2.559
 3881TIP3    H111586   5.122   4.475   2.641
 3881TIP3    H211587   4.998   4.429   2.566
 3882TIP3   OH211588   5.471   3.316   2.346
 3882TIP3    H111589   5.382   3.285   2.319
 3882TIP3    H211590   5.445   3.397   2.395
 3883TIP3   OH211591   6.006   3.429   2.540
 3883TIP3    H111592   6.074   3.403   2.605
 3883TIP3    H211593   5.922   3.410   2.588
 3884TIP3   OH211594   6.242   3.859   2.456
 3884TIP3    H111595   6.193   3.857   2.542
 3884TIP3    H211596   6.220   3.948   2.421
 3885TIP3   OH211597   5.899   3.983   1.009
 3885TIP3    H111598   5.870   3.961   0.919
 3885TIP3    H211599   5.983   4.030   0.990
 3886TIP3   OH211600   5.615   3.364   1.316
 3886TIP3    H111601   5.583   3.362   1.408
 3886TIP3    H211602   5.577   3.280   1.283
 3887TIP3   OH211603   5.403   3.831   2.363
 3887TIP3    H111604   5.353   3.851   2.445
 3887TIP3    H211605   5.386   3.913   2.311
 3888TIP3   OH211606   5.286   3.718   1.877
 3888TIP3    H111607   5.194   3.691   1.896
 3888TIP3    H211608   5.298   3.676   1.789
 3889TIP3   OH211609   5.777   3.802   1.606
 3889TIP3    H111610   5.725   3.874   1.563
 3889TIP3    H211611   5.832   3.770   1.533
 3890TIP3   OH211612   5.951   4.079   2.689
 3890TIP3    H111613   5.929   4.006   2.751
 3890TIP3    H211614   6.045   4.093   2.710
 3891TIP3   OH211615   5.934   3.829   1.843
 3891TIP3    H111616   5.872   3.858   1.773
 3891TIP3    H211617   5.968   3.748   1.799
 3892TIP3   OH211618   5.222   3.859   2.572
 3892TIP3    H111619   5.249   3.922   2.640
 3892TIP3    H211620   5.209   3.777   2.623
 3893TIP3   OH211621   5.271   3.337   1.282
 3893TIP3    H111622   5.263   3.335   1.379
 3893TIP3    H211623   5.193   3.391   1.258
 3894TIP3   OH211624   4.816   3.380   2.152
 3894TIP3    H111625   4.889   3.413   2.207
 3894TIP3    H211626   4.860   3.349   2.072
 3895TIP3   OH211627   4.782   3.362   1.670
 3895TIP3    H111628   4.828   3.400   1.593
 3895TIP3    H211629   4.721   3.435   1.692
 3896TIP3   OH211630   5.942   4.076   2.263
 3896TIP3    H111631   5.977   4.004   2.205
 3896TIP3    H211632   5.913   4.023   2.341
 3897TIP3   OH211633   5.617   3.537   1.937
 3897TIP3    H111634   5.536   3.537   1.992
 3897TIP3    H211635   5.687   3.534   2.005
 3898TIP3   OH211636   5.049   3.597   1.945
 3898TIP3    H111637   4.954   3.604   1.918
 3898TIP3    H211638   5.071   3.504   1.923
 3899TIP3   OH211639   5.315   3.589   1.637
 3899TIP3    H111640   5.408   3.606   1.616
 3899TIP3    H211641   5.268   3.613   1.553
 3900TIP3   OH211642   6.107   3.614   2.140
 3900TIP3    H111643   6.075   3.627   2.232
 3900TIP3    H211644   6.038   3.555   2.106
 3901TIP3   OH211645   5.162   3.625   1.413
 3901TIP3    H111646   5.090   3.581   1.365
 3901TIP3    H211647   5.214   3.662   1.338
 3902TIP3   OH211648   6.261   5.340   2.366
 3902TIP3    H111649   6.274   5.314   2.274
 3902TIP3    H211650   6.351   5.339   2.401
 3903TIP3   OH211651   5.233   4.416   2.779
 3903TIP3    H111652   5.314   4.444   2.828
 3903TIP3    H211653   5.169   4.411   2.853
 3904TIP3   OH211654   5.696   3.869   2.036
 3904TIP3    H111655   5.770   3.829   1.988
 3904TIP3    H211656   5.702   3.826   2.124
 3905TIP3   OH211657   5.216   3.354   1.919
 3905TIP3    H111658   5.180   3.276   1.967
 3905TIP3    H211659   5.265   3.312   1.847
 3906TIP3   OH211660   5.673   3.768   2.324
 3906TIP3    H111661   5.583   3.803   2.340
 3906TIP3    H211662   5.730   3.828   2.375
 3907TIP3   OH211663   5.410   4.154   1.419
 3907TIP3    H111664   5.337   4.089   1.408
 3907TIP3    H211665   5.391   4.188   1.510
 3908TIP3   OH211666   6.310   4.390   2.046
 3908TIP3    H111667   6.334   4.440   1.966
 3908TIP3    H211668   6.224   4.349   2.021
 3909TIP3   OH211669   5.866   3.467   1.281
 3909TIP3    H111670   5.771   3.449   1.294
 3909TIP3    H211671   5.876   3.561   1.310
 3910TIP3   OH211672   5.804   4.471   2.420
 3910TIP3    H111673   5.841   4.456   2.508
 3910TIP3    H211674   5.771   4.562   2.426
 3911TIP3   OH211675   5.936   3.714   1.387
 3911TIP3    H111676   6.032   3.720   1.404
 3911TIP3    H211677   5.918   3.795   1.336
 3912TIP3   OH211678   5.103   4.178   2.095
 3912TIP3    H111679   5.142   4.149   2.010
 3912TIP3    H211680   5.145   4.119   2.158
 3913TIP3   OH211681   5.555   4.304   1.241
 3913TIP3    H111682   5.507   4.390   1.247
 3913TIP3    H211683   5.501   4.249   1.302
 3914TIP3   OH211684   4.985   4.097   2.709
 3914TIP3    H111685   5.002   4.083   2.804
 3914TIP3    H211686   4.915   4.031   2.693
 3915TIP3   OH211687   5.709   4.212   2.732
 3915TIP3    H111688   5.649   4.152   2.685
 3915TIP3    H211689   5.797   4.179   2.702
 3916TIP3   OH211690   5.967   4.732   2.318
 3916TIP3    H111691   5.871   4.735   2.333
 3916TIP3    H211692   5.999   4.785   2.393
 3917TIP3   OH211693   6.377   3.808   1.223
 3917TIP3    H111694   6.315   3.763   1.160
 3917TIP3    H211695   6.374   3.897   1.181
 3918TIP3   OH211696   6.605   4.641   2.301
 3918TIP3    H111697   6.510   4.664   2.307
 3918TIP3    H211698   6.616   4.620   2.206
 3919TIP3   OH211699   6.081   4.625   1.132
 3919TIP3    H111700   6.056   4.552   1.191
 3919TIP3    H211701   6.095   4.581   1.046
 3920TIP3   OH211702   6.074   4.255   1.962
 3920TIP3    H111703   5.981   4.230   1.978
 3920TIP3    H211704   6.108   4.174   1.920
 3921TIP3   OH211705   5.204   4.482   1.721
 3921TIP3    H111706   5.202   4.563   1.667
 3921TIP3    H211707   5.110   4.465   1.733
 3922TIP3   OH211708   4.768   3.785   1.427
 3922TIP3    H111709   4.813   3.869   1.448
 3922TIP3    H211710   4.690   3.790   1.487
 3923TIP3   OH211711   5.337   4.246   1.663
 3923TIP3    H111712   5.304   4.336   1.683
 3923TIP3    H211713   5.302   4.196   1.739
 3924TIP3   OH211714   5.475   4.824   2.190
 3924TIP3    H111715   5.518   4.896   2.140
 3924TIP3    H211716   5.550   4.787   2.239
 3925TIP3   OH211717   5.122   4.720   1.573
 3925TIP3    H111718   5.036   4.729   1.619
 3925TIP3    H211719   5.154   4.813   1.576
 3926TIP3   OH211720   5.859   4.460   2.151
 3926TIP3    H111721   5.848   4.458   2.249
 3926TIP3    H211722   5.941   4.410   2.141
 3927TIP3   OH211723   5.837   4.351   1.034
 3927TIP3    H111724   5.891   4.327   1.113
 3927TIP3    H211725   5.749   4.326   1.065
 3928TIP3   OH211726   6.096   4.995   2.197
 3928TIP3    H111727   6.020   4.937   2.185
 3928TIP3    H211728   6.086   5.058   2.123
 3929TIP3   OH211729   6.172   4.820   0.853
 3929TIP3    H111730   6.197   4.874   0.776
 3929TIP3    H211731   6.098   4.874   0.887
 3930TIP3   OH211732   5.193   3.603   2.715
 3930TIP3    H111733   5.097   3.608   2.729
 3930TIP3    H211734   5.221   3.547   2.790
 3931TIP3   OH211735   5.998   4.285   1.249
 3931TIP3    H111736   5.988   4.219   1.320
 3931TIP3    H211737   6.095   4.283   1.236
 3932TIP3   OH211738   4.911   4.687   2.349
 3932TIP3    H111739   4.963   4.610   2.380
 3932TIP3    H211740   4.941   4.755   2.411
 3933TIP3   OH211741   5.202   4.332   1.032
 3933TIP3    H111742   5.214   4.239   1.006
 3933TIP3    H211743   5.181   4.322   1.127
 3934TIP3   OH211744   5.146   4.338   1.304
 3934TIP3    H111745   5.218   4.311   1.362
 3934TIP3    H211746   5.149   4.436   1.312
 3935TIP3   OH211747   4.879   4.029   1.509
 3935TIP3    H111748   4.813   4.074   1.565
 3935TIP3    H211749   4.893   4.098   1.441
 3936TIP3   OH211750   6.035   3.665   2.399
 3936TIP3    H111751   6.113   3.706   2.439
 3936TIP3    H211752   6.021   3.585   2.454
 3937TIP3   OH211753   5.915   3.416   1.567
 3937TIP3    H111754   5.901   3.441   1.473
 3937TIP3    H211755   5.955   3.497   1.604
 3938TIP3   OH211756   5.413   4.534   1.252
 3938TIP3    H111757   5.326   4.560   1.288
 3938TIP3    H211758   5.428   4.608   1.192
 3939TIP3   OH211759   5.598   3.599   1.667
 3939TIP3    H111760   5.662   3.671   1.651
 3939TIP3    H211761   5.604   3.590   1.765
 3940TIP3   OH211762   5.871   3.915   2.473
 3940TIP3    H111763   5.893   3.969   2.551
 3940TIP3    H211764   5.925   3.835   2.486
 3941TIP3   OH211765   5.743   3.321   1.768
 3941TIP3    H111766   5.736   3.397   1.828
 3941TIP3    H211767   5.806   3.356   1.700
 3942TIP3   OH211768   5.158   4.610   1.322
 3942TIP3    H111769   5.128   4.680   1.259
 3942TIP3    H211770   5.141   4.653   1.408
 3943TIP3   OH211771   5.258   3.323   1.557
 3943TIP3    H111772   5.253   3.413   1.596
 3943TIP3    H211773   5.354   3.307   1.566
 3944TIP3   OH211774   6.509   3.816   2.457
 3944TIP3    H111775   6.410   3.815   2.463
 3944TIP3    H211776   6.520   3.776   2.370
 3945TIP3   OH211777   6.161   4.010   1.843
 3945TIP3    H111778   6.085   3.951   1.856
 3945TIP3    H211779   6.232   3.963   1.892
 3946TIP3   OH211780   4.875   4.236   1.313
 3946TIP3    H111781   4.943   4.306   1.321
 3946TIP3    H211782   4.919   4.180   1.246
 3947TIP3   OH211783   4.817   3.514   1.444
 3947TIP3    H111784   4.817   3.612   1.443
 3947TIP3    H211785   4.731   3.494   1.405
 3948TIP3   OH211786   6.129   4.970   1.790
 3948TIP3    H111787   6.088   5.018   1.715
 3948TIP3    H211788   6.224   4.989   1.771
 3949TIP3   OH211789   5.207   3.235   2.318
 3949TIP3    H111790   5.175   3.201   2.231
 3949TIP3    H211791   5.196   3.157   2.376
 3950TIP3   OH211792   4.743   4.455   1.698
 3950TIP3    H111793   4.677   4.484   1.763
 3950TIP3    H211794   4.709   4.498   1.616
 3951TIP3   OH211795   4.910   4.998   2.772
 3951TIP3    H111796   4.995   4.998   2.821
 3951TIP3    H211797   4.891   4.903   2.770
 3952TIP3   OH211798   5.379   4.962   2.811
 3952TIP3    H111799   5.473   4.941   2.826
 3952TIP3    H211800   5.358   4.898   2.741
 3953TIP3   OH211801   5.364   4.535   0.942
 3953TIP3    H111802   5.309   4.463   0.982
 3953TIP3    H211803   5.440   4.484   0.910
 3954TIP3   OH211804   6.033   4.861   2.558
 3954TIP3    H111805   6.011   4.791   2.623
 3954TIP3    H211806   6.128   4.870   2.573
 3955TIP3   OH211807   5.797   4.574   0.861
 3955TIP3    H111808   5.843   4.510   0.918
 3955TIP3    H211809   5.851   4.573   0.780
 3956TIP3   OH211810   5.032   4.404   2.971
 3956TIP3    H111811   5.049   4.308   2.978
 3956TIP3    H211812   4.944   4.405   2.927
 3957TIP3   OH211813   5.011   4.050   1.167
 3957TIP3    H111814   5.067   4.020   1.241
 3957TIP3    H211815   5.078   4.056   1.096
 3958TIP3   OH211816   5.638   4.487   2.746
 3958TIP3    H111817   5.601   4.507   2.659
 3958TIP3    H211818   5.671   4.396   2.736
 3959TIP3   OH211819   5.523   4.250   0.972
 3959TIP3    H111820   5.525   4.264   1.069
 3959TIP3    H211821   5.521   4.152   0.968
 3960TIP3   OH211822   6.131   4.500   2.350
 3960TIP3    H111823   6.209   4.543   2.309
 3960TIP3    H211824   6.064   4.570   2.338
 3961TIP3   OH211825   5.153   4.141   2.954
 3961TIP3    H111826   5.225   4.081   2.933
 3961TIP3    H211827   5.179   4.172   3.043
 3962TIP3   OH211828   5.214   3.958   1.385
 3962TIP3    H111829   5.188   3.920   1.471
 3962TIP3    H211830   5.252   3.881   1.339
 3963TIP3   OH211831   5.487   4.020   2.615
 3963TIP3    H111832   5.409   4.080   2.618
 3963TIP3    H211833   5.536   4.055   2.537
 3964TIP3   OH211834   5.320   3.752   1.227
 3964TIP3    H111835   5.294   3.760   1.133
 3964TIP3    H211836   5.417   3.757   1.220
 3965TIP3   OH211837   6.002   4.420   2.747
 3965TIP3    H111838   6.086   4.400   2.703
 3965TIP3    H211839   6.002   4.356   2.820
 3966TIP3   OH211840   6.135   4.078   0.895
 3966TIP3    H111841   6.118   4.035   0.809
 3966TIP3    H211842   6.105   4.170   0.873
 3967TIP3   OH211843   5.612   3.810   2.738
 3967TIP3    H111844   5.611   3.731   2.680
 3967TIP3    H211845   5.568   3.877   2.681
 3968TIP3   OH211846   5.614   3.596   2.548
 3968TIP3    H111847   5.640   3.638   2.464
 3968TIP3    H211848   5.520   3.573   2.530
 3969TIP3   OH211849   5.637   4.130   2.420
 3969TIP3    H111850   5.723   4.144   2.379
 3969TIP3    H211851   5.581   4.197   2.376
 3970TIP3   OH211852   6.220   4.097   2.797
 3970TIP3    H111853   6.272   4.016   2.804
 3970TIP3    H211854   6.286   4.161   2.768
 3971TIP3   OH211855   6.259   4.348   2.532
 3971TIP3    H111856   6.203   4.406   2.476
 3971TIP3    H211857   6.348   4.371   2.497
 3972TIP3   OH211858   5.487   3.918   2.967
 3972TIP3    H111859   5.419   3.849   2.985
 3972TIP3    H211860   5.520   3.890   2.880
 3973TIP3   OH211861   5.744   3.359   2.619
 3973TIP3    H111862   5.696   3.441   2.595
 3973TIP3    H211863   5.675   3.291   2.608
 3974TIP3   OH211864   5.871   3.861   2.830
 3974TIP3    H111865   5.852   3.851   2.925
 3974TIP3    H211866   5.782   3.838   2.795
 3975TIP3   OH211867   6.109   3.812   2.686
 3975TIP3    H111868   6.034   3.815   2.748
 3975TIP3    H211869   6.183   3.782   2.743
 3976TIP3   OH211870   6.339   3.750   2.832
 3976TIP3    H111871   6.353   3.655   2.850
 3976TIP3    H211872   6.336   3.789   2.922
 3977TIP3   OH211873   5.326   3.698   3.023
 3977TIP3    H111874   5.330   3.606   2.991
 3977TIP3    H211875   5.360   3.687   3.114
 3978TIP3   OH211876   5.841   3.370   2.875
 3978TIP3    H111877   5.906   3.297   2.868
 3978TIP3    H211878   5.800   3.365   2.787
 3979TIP3   OH211879   5.903   3.584   3.033
 3979TIP3    H111880   5.883   3.512   2.969
 3979TIP3    H211881   5.824   3.642   3.024
 3980TIP3   OH211882   5.128   4.813   1.134
 3980TIP3    H111883   5.223   4.806   1.114
 3980TIP3    H211884   5.098   4.863   1.056
 3981TIP3   OH211885   4.606   4.195   1.347
 3981TIP3    H111886   4.701   4.216   1.334
 3981TIP3    H211887   4.600   4.107   1.306
 3982TIP3   OH211888   4.522   4.806   1.765
 3982TIP3    H111889   4.455   4.745   1.727
 3982TIP3    H211890   4.566   4.746   1.830
 3983TIP3   OH211891   4.657   4.653   1.951
 3983TIP3    H111892   4.644   4.582   2.016
 3983TIP3    H211893   4.708   4.716   2.004
 3984TIP3   OH211894   6.383   5.067   1.752
 3984TIP3    H111895   6.414   5.083   1.843
 3984TIP3    H211896   6.458   5.095   1.698
 3985TIP3   OH211897   6.421   5.073   2.035
 3985TIP3    H111898   6.369   4.989   2.032
 3985TIP3    H211899   6.484   5.048   2.105
 3986TIP3   OH211900   6.276   4.267   1.224
 3986TIP3    H111901   6.343   4.332   1.194
 3986TIP3    H211902   6.321   4.229   1.303
 3987TIP3   OH211903   6.404   4.135   1.428
 3987TIP3    H111904   6.338   4.093   1.488
 3987TIP3    H211905   6.469   4.171   1.491
 3988TIP3   OH211906   6.458   4.527   1.858
 3988TIP3    H111907   6.513   4.461   1.812
 3988TIP3    H211908   6.451   4.599   1.792
 3989TIP3   OH211909   6.285   4.832   2.057
 3989TIP3    H111910   6.219   4.870   2.118
 3989TIP3    H211911   6.230   4.784   1.992
 3990TIP3   OH211912   6.340   4.043   1.074
 3990TIP3    H111913   6.268   4.046   1.007
 3990TIP3    H211914   6.314   4.119   1.129
 3991TIP3   OH211915   6.210   3.714   1.030
 3991TIP3    H111916   6.169   3.753   0.952
 3991TIP3    H211917   6.187   3.620   1.018
 3992TIP3   OH211918   6.215   3.993   1.574
 3992TIP3    H111919   6.225   3.896   1.568
 3992TIP3    H211920   6.201   4.007   1.670
 3993TIP3   OH211921   4.842   4.066   2.322
 3993TIP3    H111922   4.839   4.032   2.230
 3993TIP3    H211923   4.939   4.066   2.338
 3994TIP3   OH211924   6.505   4.418   2.437
 3994TIP3    H111925   6.578   4.353   2.428
 3994TIP3    H211926   6.534   4.489   2.376
 3995TIP3   OH211927   6.689   4.219   2.441
 3995TIP3    H111928   6.615   4.171   2.483
 3995TIP3    H211929   6.762   4.156   2.458
 3996TIP3   OH211930   6.157   3.447   1.009
 3996TIP3    H111931   6.232   3.419   1.066
 3996TIP3    H211932   6.084   3.390   1.037
 3997TIP3   OH211933   6.213   3.708   1.466
 3997TIP3    H111934   6.255   3.620   1.481
 3997TIP3    H211935   6.271   3.743   1.396
 3998TIP3   OH211936   6.373   3.879   1.964
 3998TIP3    H111937   6.459   3.904   1.923
 3998TIP3    H211938   6.387   3.917   2.053
 3999TIP3   OH211939   6.444   4.026   2.195
 3999TIP3    H111940   6.367   4.060   2.245
 3999TIP3    H211941   6.477   4.107   2.151
 4000TIP3   OH211942   5.061   3.753   2.994
 4000TIP3    H111943   5.159   3.746   3.000
 4000TIP3    H211944   5.036   3.667   3.034
 4001TIP3   OH211945   6.895   3.618   2.751
 4001TIP3    H111946   6.955   3.554   2.708
 4001TIP3    H211947   6.865   3.672   2.674
 4002TIP3   OH211948   6.322   3.459   1.506
 4002TIP3    H111949   6.370   3.442   1.590
 4002TIP3    H211950   6.261   3.382   1.505
 4003TIP3   OH211951   5.023   3.444   2.324
 4003TIP3    H111952   5.085   3.369   2.335
 4003TIP3    H211953   5.085   3.519   2.319
 4004TIP3   OH211954   4.822   3.716   2.398
 4004TIP3    H111955   4.873   3.713   2.314
 4004TIP3    H211956   4.851   3.799   2.436
 4005TIP3   OH211957   6.764   3.754   2.556
 4005TIP3    H111958   6.678   3.797   2.574
 4005TIP3    H211959   6.734   3.681   2.498
 4006TIP3   OH211960   6.399   3.391   1.140
 4006TIP3    H111961   6.441   3.320   1.087
 4006TIP3    H211962   6.467   3.462   1.137
 4007TIP3   OH211963   4.808   3.217   1.898
 4007TIP3    H111964   4.716   3.215   1.929
 4007TIP3    H211965   4.803   3.278   1.821
 4008TIP3   OH211966   5.967   4.929   1.408
 4008TIP3    H111967   6.015   4.911   1.324
 4008TIP3    H211968   6.029   4.986   1.454
 4009TIP3   OH211969   5.028   3.297   2.712
 4009TIP3    H111970   4.979   3.295   2.796
 4009TIP3    H211971   4.961   3.339   2.654
 4010TIP3   OH211972   5.066   4.735   2.790
 4010TIP3    H111973   4.974   4.704   2.777
 4010TIP3    H211974   5.083   4.708   2.881
 4011TIP3   OH211975   5.247   4.763   2.339
 4011TIP3    H111976   5.201   4.840   2.300
 4011TIP3    H211977   5.334   4.775   2.295
 4012TIP3   OH211978   5.689   5.009   2.475
 4012TIP3    H111979   5.731   5.004   2.564
 4012TIP3    H211980   5.759   5.057   2.425
 4013TIP3   OH211981   5.875   5.157   2.334
 4013TIP3    H111982   5.948   5.103   2.299
 4013TIP3    H211983   5.923   5.214   2.398
 4014TIP3   OH211984   6.665   3.517   2.435
 4014TIP3    H111985   6.574   3.509   2.401
 4014TIP3    H211986   6.698   3.425   2.425
 4015TIP3   OH211987   4.922   5.023   2.360
 4015TIP3    H111988   4.832   5.057   2.340
 4015TIP3    H211989   4.931   5.050   2.451
 4016TIP3   OH211990   5.160   4.999   2.222
 4016TIP3    H111991   5.072   5.011   2.265
 4016TIP3    H211992   5.140   5.029   2.131
 4017TIP3   OH211993   5.583   5.026   2.019
 4017TIP3    H111994   5.512   5.045   1.955
 4017TIP3    H211995   5.594   5.113   2.062
 4018TIP3   OH211996   5.850   4.961   2.065
 4018TIP3    H111997   5.755   4.979   2.048
 4018TIP3    H211998   5.893   5.039   2.027
 4019TIP3   OH211999   6.061   5.160   1.980
 4019TIP3    H112000   6.047   5.242   1.930
 4019TIP3    H212001   6.085   5.096   1.910
 4020TIP3   OH212002   4.833   4.811   2.109
 4020TIP3    H112003   4.861   4.783   2.199
 4020TIP3    H212004   4.905   4.769   2.056
 4021TIP3   OH212005   5.029   4.685   1.967
 4021TIP3    H112006   5.043   4.600   2.015
 4021TIP3    H212007   5.120   4.720   1.963
 4022TIP3   OH212008   5.297   4.777   1.971
 4022TIP3    H112009   5.325   4.684   1.960
 4022TIP3    H212010   5.345   4.798   2.054
 4023TIP3   OH212011   5.869   3.433   2.055
 4023TIP3    H112012   5.827   3.362   2.107
 4023TIP3    H212013   5.943   3.387   2.012
 4024TIP3   OH212014   6.390   3.314   1.959
 4024TIP3    H112015   6.427   3.366   1.884
 4024TIP3    H212016   6.295   3.336   1.954
 4025TIP3   OH212017   6.486   3.413   1.723
 4025TIP3    H112018   6.560   3.361   1.685
 4025TIP3    H212019   6.521   3.504   1.709
 4026TIP3   OH212020   5.118   3.141   2.070
 4026TIP3    H112021   5.026   3.108   2.073
 4026TIP3    H212022   5.167   3.056   2.067
 4027TIP3   OH212023   4.907   3.013   1.721
 4027TIP3    H112024   4.935   3.071   1.648
 4027TIP3    H212025   4.877   3.078   1.788
 4028TIP3   OH212026   5.563   3.174   1.952
 4028TIP3    H112027   5.621   3.223   1.891
 4028TIP3    H212028   5.588   3.212   2.037
 4029TIP3   OH212029   6.106   3.322   1.936
 4029TIP3    H112030   6.108   3.282   1.848
 4029TIP3    H212031   6.095   3.242   1.993
 4030TIP3   OH212032   6.139   3.246   1.498
 4030TIP3    H112033   6.053   3.290   1.515
 4030TIP3    H212034   6.125   3.160   1.543
 4031TIP3   OH212035   4.621   4.587   1.496
 4031TIP3    H112036   4.535   4.554   1.463
 4031TIP3    H212037   4.612   4.681   1.471
 4032TIP3   OH212038   5.024   3.172   1.481
 4032TIP3    H112039   5.073   3.109   1.425
 4032TIP3    H212040   5.097   3.226   1.518
 4033TIP3   OH212041   5.535   3.348   1.580
 4033TIP3    H112042   5.594   3.303   1.642
 4033TIP3    H212043   5.554   3.441   1.606
 4034TIP3   OH212044   5.395   4.769   1.082
 4034TIP3    H112045   5.483   4.792   1.045
 4034TIP3    H212046   5.372   4.695   1.021
 4035TIP3   OH212047   6.113   4.892   1.177
 4035TIP3    H112048   6.107   4.794   1.163
 4035TIP3    H212049   6.070   4.923   1.095
 4036TIP3   OH212050   5.326   3.423   2.961
 4036TIP3    H112051   5.291   3.353   3.019
 4036TIP3    H212052   5.420   3.423   2.990
 4037TIP3   OH212053   5.576   3.418   3.082
 4037TIP3    H112054   5.660   3.389   3.043
 4037TIP3    H212055   5.560   3.349   3.150
 4038TIP3   OH212056   4.697   4.605   1.135
 4038TIP3    H112057   4.699   4.631   1.229
 4038TIP3    H212058   4.785   4.564   1.122
 4039TIP3   OH212059   6.402   3.482   2.869
 4039TIP3    H112060   6.421   3.452   2.960
 4039TIP3    H212061   6.491   3.478   2.827
 4040TIP3   OH212062   7.605   4.410   1.126
 4040TIP3    H112063   7.572   4.500   1.103
 4040TIP3    H212064   7.528   4.357   1.100
 4041TIP3   OH212065   7.601   4.408   1.511
 4041TIP3    H112066   7.631   4.389   1.601
 4041TIP3    H212067   7.562   4.323   1.485
 4042TIP3   OH212068   6.902   4.300   1.873
 4042TIP3    H112069   6.932   4.232   1.937
 4042TIP3    H212070   6.981   4.355   1.867
 4043TIP3   OH212071   7.852   4.705   1.191
 4043TIP3    H112072   7.829   4.641   1.260
 4043TIP3    H212073   7.879   4.783   1.242
 4044TIP3   OH212074   6.876   4.713   1.595
 4044TIP3    H112075   6.867   4.615   1.597
 4044TIP3    H212076   6.973   4.721   1.592
 4045TIP3   OH212077   6.582   3.914   1.380
 4045TIP3    H112078   6.534   3.997   1.397
 4045TIP3    H212079   6.511   3.862   1.338
 4046TIP3   OH212080   6.640   4.201   1.558
 4046TIP3    H112081   6.690   4.124   1.593
 4046TIP3    H212082   6.701   4.235   1.491
 4047TIP3   OH212083   7.501   5.175   1.212
 4047TIP3    H112084   7.541   5.103   1.158
 4047TIP3    H212085   7.492   5.131   1.298
 4048TIP3   OH212086   7.403   4.634   1.556
 4048TIP3    H112087   7.442   4.556   1.514
 4048TIP3    H212088   7.486   4.680   1.581
 4049TIP3   OH212089   7.809   4.155   1.584
 4049TIP3    H112090   7.821   4.062   1.613
 4049TIP3    H212091   7.764   4.139   1.499
 4050TIP3   OH212092   7.152   3.793   1.556
 4050TIP3    H112093   7.138   3.865   1.491
 4050TIP3    H212094   7.105   3.720   1.510
 4051TIP3   OH212095   7.845   3.887   1.189
 4051TIP3    H112096   7.908   3.827   1.231
 4051TIP3    H212097   7.901   3.925   1.120
 4052TIP3   OH212098   6.788   3.995   1.662
 4052TIP3    H112099   6.871   3.976   1.709
 4052TIP3    H212100   6.801   3.940   1.582
 4053TIP3   OH212101   7.228   4.193   1.456
 4053TIP3    H112102   7.322   4.168   1.469
 4053TIP3    H212103   7.190   4.108   1.424
 4054TIP3   OH212104   7.150   3.777   1.989
 4054TIP3    H112105   7.091   3.814   1.920
 4054TIP3    H212106   7.097   3.796   2.069
 4055TIP3   OH212107   7.488   4.623   0.998
 4055TIP3    H112108   7.457   4.612   0.907
 4055TIP3    H212109   7.445   4.708   1.023
 4056TIP3   OH212110   7.257   4.553   1.780
 4056TIP3    H112111   7.196   4.620   1.817
 4056TIP3    H212112   7.301   4.602   1.707
 4057TIP3   OH212113   7.022   3.892   1.773
 4057TIP3    H112114   7.084   3.965   1.795
 4057TIP3    H212115   7.070   3.852   1.697
 4058TIP3   OH212116   7.087   4.749   1.880
 4058TIP3    H112117   7.061   4.836   1.845
 4058TIP3    H212118   7.008   4.731   1.937
 4059TIP3   OH212119   6.476   4.437   1.117
 4059TIP3    H112120   6.438   4.459   1.030
 4059TIP3    H212121   6.508   4.524   1.148
 4060TIP3   OH212122   7.918   4.953   1.356
 4060TIP3    H112123   7.830   4.940   1.398
 4060TIP3    H212124   7.906   5.039   1.314
 4061TIP3   OH212125   7.496   3.487   1.705
 4061TIP3    H112126   7.477   3.393   1.723
 4061TIP3    H212127   7.418   3.529   1.749
 4062TIP3   OH212128   7.615   5.003   1.030
 4062TIP3    H112129   7.660   4.918   1.010
 4062TIP3    H212130   7.679   5.064   0.988
 4063TIP3   OH212131   7.747   4.784   0.944
 4063TIP3    H112132   7.721   4.702   0.899
 4063TIP3    H212133   7.795   4.749   1.021
 4064TIP3   OH212134   8.140   4.858   1.702
 4064TIP3    H112135   8.142   4.782   1.640
 4064TIP3    H212136   8.137   4.935   1.644
 4065TIP3   OH212137   7.434   4.257   0.957
 4065TIP3    H112138   7.353   4.309   0.942
 4065TIP3    H212139   7.478   4.263   0.871
 4066TIP3   OH212140   7.388   4.056   0.678
 4066TIP3    H112141   7.461   4.095   0.728
 4066TIP3    H212142   7.436   3.979   0.638
 4067TIP3   OH212143   7.778   4.338   0.931
 4067TIP3    H112144   7.723   4.369   1.006
 4067TIP3    H212145   7.851   4.294   0.980
 4068TIP3   OH212146   8.004   4.358   1.841
 4068TIP3    H112147   8.034   4.441   1.879
 4068TIP3    H212148   7.916   4.382   1.807
 4069TIP3   OH212149   7.017   4.338   1.347
 4069TIP3    H112150   6.976   4.279   1.280
 4069TIP3    H212151   7.093   4.284   1.377
 4070TIP3   OH212152   7.147   4.755   1.492
 4070TIP3    H112153   7.126   4.713   1.407
 4070TIP3    H212154   7.236   4.718   1.511
 4071TIP3   OH212155   7.150   4.311   1.700
 4071TIP3    H112156   7.185   4.286   1.612
 4071TIP3    H212157   7.195   4.396   1.719
 4072TIP3   OH212158   7.679   4.947   1.479
 4072TIP3    H112159   7.665   5.027   1.533
 4072TIP3    H212160   7.663   4.874   1.542
 4073TIP3   OH212161   7.290   4.868   2.026
 4073TIP3    H112162   7.228   4.929   2.073
 4073TIP3    H212163   7.226   4.814   1.976
 4074TIP3   OH212164   7.626   4.201   0.750
 4074TIP3    H112165   7.680   4.260   0.809
 4074TIP3    H212166   7.671   4.212   0.665
 4075TIP3   OH212167   7.046   4.421   2.128
 4075TIP3    H112168   7.050   4.509   2.171
 4075TIP3    H212169   6.950   4.401   2.140
 4076TIP3   OH212170   7.369   4.876   1.036
 4076TIP3    H112171   7.452   4.927   1.042
 4076TIP3    H212172   7.311   4.935   0.987
 4077TIP3   OH212173   7.082   5.033   2.115
 4077TIP3    H112174   7.047   5.032   2.024
 4077TIP3    H212175   7.002   5.011   2.168
 4078TIP3   OH212176   6.884   4.183   1.149
 4078TIP3    H112177   6.814   4.226   1.095
 4078TIP3    H212178   6.846   4.095   1.162
 4079TIP3   OH212179   6.665   4.565   2.049
 4079TIP3    H112180   6.596   4.540   1.986
 4079TIP3    H212181   6.702   4.479   2.077
 4080TIP3   OH212182   6.519   4.761   1.686
 4080TIP3    H112183   6.614   4.750   1.680
 4080TIP3    H212184   6.511   4.833   1.750
 4081TIP3   OH212185   7.486   4.997   1.882
 4081TIP3    H112186   7.484   5.089   1.915
 4081TIP3    H212187   7.415   4.956   1.936
 4082TIP3   OH212188   7.250   5.131   0.834
 4082TIP3    H112189   7.188   5.106   0.764
 4082TIP3    H212190   7.220   5.220   0.859
 4083TIP3   OH212191   6.688   4.974   1.218
 4083TIP3    H112192   6.732   4.962   1.305
 4083TIP3    H212193   6.636   4.892   1.212
 4084TIP3   OH212194   7.484   5.015   0.744
 4084TIP3    H112195   7.404   5.058   0.780
 4084TIP3    H212196   7.548   5.028   0.814
 4085TIP3   OH212197   6.868   4.751   2.045
 4085TIP3    H112198   6.916   4.734   2.128
 4085TIP3    H212199   6.794   4.686   2.051
 4086TIP3   OH212200   7.265   3.571   1.835
 4086TIP3    H112201   7.176   3.542   1.806
 4086TIP3    H212202   7.240   3.654   1.880
 4087TIP3   OH212203   7.769   3.706   2.012
 4087TIP3    H112204   7.834   3.665   2.073
 4087TIP3    H212205   7.684   3.684   2.055
 4088TIP3   OH212206   8.074   4.111   1.953
 4088TIP3    H112207   8.013   4.117   2.030
 4088TIP3    H212208   8.052   4.194   1.906
 4089TIP3   OH212209   7.420   3.617   0.804
 4089TIP3    H112210   7.384   3.616   0.895
 4089TIP3    H212211   7.378   3.536   0.768
 4090TIP3   OH212212   7.198   4.089   1.850
 4090TIP3    H112213   7.147   4.109   1.931
 4090TIP3    H212214   7.182   4.170   1.797
 4091TIP3   OH212215   7.082   3.975   1.365
 4091TIP3    H112216   6.990   3.947   1.384
 4091TIP3    H212217   7.096   3.933   1.277
 4092TIP3   OH212218   7.575   4.060   1.091
 4092TIP3    H112219   7.521   4.129   1.047
 4092TIP3    H212220   7.634   4.031   1.019
 4093TIP3   OH212221   7.746   4.337   2.179
 4093TIP3    H112222   7.724   4.264   2.241
 4093TIP3    H212223   7.841   4.346   2.195
 4094TIP3   OH212224   7.718   4.094   1.330
 4094TIP3    H112225   7.658   4.108   1.254
 4094TIP3    H212226   7.758   4.009   1.301
 4095TIP3   OH212227   7.019   4.116   2.059
 4095TIP3    H112228   7.043   4.181   2.127
 4095TIP3    H212229   7.006   4.035   2.111
 4096TIP3   OH212230   7.066   3.593   0.770
 4096TIP3    H112231   7.059   3.591   0.867
 4096TIP3    H212232   6.988   3.646   0.747
 4097TIP3   OH212233   6.612   3.636   1.640
 4097TIP3    H112234   6.686   3.670   1.695
 4097TIP3    H212235   6.655   3.607   1.559
 4098TIP3   OH212236   6.577   3.617   1.158
 4098TIP3    H112237   6.623   3.655   1.080
 4098TIP3    H212238   6.517   3.692   1.179
 4099TIP3   OH212239   7.719   4.343   1.756
 4099TIP3    H112240   7.761   4.277   1.696
 4099TIP3    H212241   7.698   4.286   1.832
 4100TIP3   OH212242   7.405   3.819   1.425
 4100TIP3    H112243   7.332   3.802   1.488
 4100TIP3    H212244   7.481   3.776   1.469
 4101TIP3   OH212245   6.844   3.853   1.433
 4101TIP3    H112246   6.750   3.859   1.404
 4101TIP3    H212247   6.869   3.761   1.409
 4102TIP3   OH212248   7.109   3.846   1.125
 4102TIP3    H112249   7.204   3.861   1.107
 4102TIP3    H212250   7.065   3.869   1.040
 4103TIP3   OH212251   7.825   3.889   1.623
 4103TIP3    H112252   7.814   3.895   1.720
 4103TIP3    H212253   7.903   3.832   1.615
 4104TIP3   OH212254   6.956   3.882   0.900
 4104TIP3    H112255   6.885   3.837   0.850
 4104TIP3    H212256   7.009   3.918   0.826
 4105TIP3   OH212257   8.064   5.568   1.847
 4105TIP3    H112258   8.062   5.576   1.749
 4105TIP3    H212259   8.140   5.624   1.868
 4106TIP3   OH212260   7.031   4.671   2.265
 4106TIP3    H112261   7.108   4.701   2.316
 4106TIP3    H212262   6.963   4.670   2.336
 4107TIP3   OH212263   7.495   4.129   1.527
 4107TIP3    H112264   7.556   4.080   1.470
 4107TIP3    H212265   7.499   4.077   1.609
 4108TIP3   OH212266   7.011   3.611   1.404
 4108TIP3    H112267   6.978   3.532   1.451
 4108TIP3    H212268   7.062   3.571   1.332
 4109TIP3   OH212269   7.468   4.020   1.818
 4109TIP3    H112270   7.378   4.058   1.828
 4109TIP3    H212271   7.525   4.085   1.865
 4110TIP3   OH212272   7.203   4.408   0.910
 4110TIP3    H112273   7.130   4.343   0.898
 4110TIP3    H212274   7.184   4.442   1.001
 4111TIP3   OH212275   8.106   4.646   1.522
 4111TIP3    H112276   8.119   4.659   1.428
 4111TIP3    H212277   8.018   4.605   1.523
 4112TIP3   OH212278   7.675   3.711   0.781
 4112TIP3    H112279   7.580   3.685   0.783
 4112TIP3    H212280   7.668   3.807   0.766
 4113TIP3   OH212281   7.601   4.730   1.903
 4113TIP3    H112282   7.633   4.710   1.992
 4113TIP3    H212283   7.565   4.820   1.912
 4114TIP3   OH212284   7.759   3.985   0.862
 4114TIP3    H112285   7.848   4.022   0.857
 4114TIP3    H212286   7.708   4.050   0.810
 4115TIP3   OH212287   6.899   4.435   1.581
 4115TIP3    H112288   6.939   4.406   1.496
 4115TIP3    H212289   6.942   4.376   1.644
 4116TIP3   OH212290   7.352   4.571   0.753
 4116TIP3    H112291   7.300   4.655   0.752
 4116TIP3    H212292   7.296   4.514   0.810
 4117TIP3   OH212293   6.782   4.352   2.193
 4117TIP3    H112294   6.798   4.342   2.289
 4117TIP3    H212295   6.709   4.289   2.180
 4118TIP3   OH212296   7.505   4.470   2.216
 4118TIP3    H112297   7.444   4.412   2.169
 4118TIP3    H212298   7.591   4.434   2.187
 4119TIP3   OH212299   7.763   4.994   1.799
 4119TIP3    H112300   7.667   4.990   1.813
 4119TIP3    H212301   7.791   5.044   1.879
 4120TIP3   OH212302   7.865   4.511   1.459
 4120TIP3    H112303   7.770   4.490   1.468
 4120TIP3    H212304   7.899   4.426   1.426
 4121TIP3   OH212305   7.000   4.739   1.209
 4121TIP3    H112306   6.998   4.820   1.155
 4121TIP3    H212307   6.906   4.719   1.219
 4122TIP3   OH212308   6.566   4.042   0.915
 4122TIP3    H112309   6.610   4.127   0.934
 4122TIP3    H212310   6.488   4.048   0.974
 4123TIP3   OH212311   7.132   4.503   1.151
 4123TIP3    H112312   7.100   4.592   1.172
 4123TIP3    H212313   7.098   4.452   1.227
 4124TIP3   OH212314   7.271   5.081   1.676
 4124TIP3    H112315   7.314   5.153   1.626
 4124TIP3    H212316   7.347   5.043   1.724
 4125TIP3   OH212317   6.916   4.978   1.058
 4125TIP3    H112318   6.830   4.983   1.106
 4125TIP3    H212319   6.946   5.071   1.065
 4126TIP3   OH212320   7.656   4.717   1.636
 4126TIP3    H112321   7.644   4.715   1.734
 4126TIP3    H212322   7.737   4.664   1.627
 4127TIP3   OH212323   7.908   5.247   1.685
 4127TIP3    H112324   7.830   5.188   1.683
 4127TIP3    H212325   7.886   5.310   1.614
 4128TIP3   OH212326   6.989   3.860   2.202
 4128TIP3    H112327   6.892   3.863   2.215
 4128TIP3    H212328   7.016   3.802   2.276
 4129TIP3   OH212329   7.765   4.550   0.752
 4129TIP3    H112330   7.771   4.475   0.813
 4129TIP3    H212331   7.858   4.572   0.736
 4130TIP3   OH212332   6.707   4.943   1.835
 4130TIP3    H112333   6.762   4.869   1.866
 4130TIP3    H212334   6.727   5.009   1.903
 4131TIP3   OH212335   7.017   4.576   0.539
 4131TIP3    H112336   7.010   4.483   0.507
 4131TIP3    H212337   6.996   4.567   0.633
 4132TIP3   OH212338   6.941   4.596   0.804
 4132TIP3    H112339   7.010   4.565   0.865
 4132TIP3    H212340   6.949   4.693   0.812
 4133TIP3   OH212341   6.676   4.286   0.996
 4133TIP3    H112342   6.609   4.331   1.052
 4133TIP3    H212343   6.688   4.354   0.927
 4134TIP3   OH212344   7.825   3.948   1.896
 4134TIP3    H112345   7.916   3.966   1.925
 4134TIP3    H212346   7.805   3.863   1.940
 4135TIP3   OH212347   7.684   3.688   1.064
 4135TIP3    H112348   7.686   3.698   0.967
 4135TIP3    H212349   7.733   3.767   1.094
 4136TIP3   OH212350   7.208   4.797   0.728
 4136TIP3    H112351   7.120   4.827   0.759
 4136TIP3    H212352   7.218   4.844   0.644
 4137TIP3   OH212353   7.389   3.859   1.154
 4137TIP3    H112354   7.459   3.926   1.138
 4137TIP3    H212355   7.397   3.847   1.251
 4138TIP3   OH212356   7.664   4.171   1.959
 4138TIP3    H112357   7.694   4.218   2.039
 4138TIP3    H212358   7.724   4.093   1.955
 4139TIP3   OH212359   7.532   3.567   1.254
 4139TIP3    H112360   7.562   3.618   1.333
 4139TIP3    H212361   7.588   3.611   1.185
 4140TIP3   OH212362   6.955   4.867   0.808
 4140TIP3    H112363   6.933   4.941   0.746
 4140TIP3    H212364   6.937   4.909   0.895
 4141TIP3   OH212365   7.053   3.580   1.046
 4141TIP3    H112366   7.050   3.670   1.084
 4141TIP3    H212367   7.149   3.563   1.053
 4142TIP3   OH212368   7.952   4.253   1.363
 4142TIP3    H112369   7.867   4.213   1.336
 4142TIP3    H212370   7.965   4.207   1.448
 4143TIP3   OH212371   6.669   4.495   0.805
 4143TIP3    H112372   6.739   4.561   0.815
 4143TIP3    H212373   6.712   4.437   0.738
 4144TIP3   OH212374   6.613   3.771   0.935
 4144TIP3    H112375   6.617   3.869   0.933
 4144TIP3    H212376   6.535   3.753   0.883
 4145TIP3   OH212377   7.934   5.228   1.279
 4145TIP3    H112378   7.891   5.276   1.205
 4145TIP3    H212379   8.027   5.236   1.255
 4146TIP3   OH212380   7.002   3.492   1.805
 4146TIP3    H112381   6.971   3.458   1.718
 4146TIP3    H212382   6.990   3.413   1.862
 4147TIP3   OH212383   6.543   4.717   1.184
 4147TIP3    H112384   6.475   4.741   1.249
 4147TIP3    H212385   6.506   4.758   1.102
 4148TIP3   OH212386   6.697   5.257   2.253
 4148TIP3    H112387   6.782   5.252   2.302
 4148TIP3    H212388   6.669   5.164   2.257
 4149TIP3   OH212389   7.182   5.214   2.302
 4149TIP3    H112390   7.276   5.189   2.305
 4149TIP3    H212391   7.150   5.154   2.231
 4150TIP3   OH212392   7.812   5.125   2.038
 4150TIP3    H112393   7.808   5.054   2.105
 4150TIP3    H212394   7.891   5.175   2.065
 4151TIP3   OH212395   6.833   4.662   2.453
 4151TIP3    H112396   6.840   4.565   2.461
 4151TIP3    H212397   6.741   4.671   2.418
 4152TIP3   OH212398   6.818   4.315   0.665
 4152TIP3    H112399   6.879   4.282   0.734
 4152TIP3    H212400   6.877   4.318   0.587
 4153TIP3   OH212401   7.438   4.746   2.231
 4153TIP3    H112402   7.394   4.764   2.145
 4153TIP3    H212403   7.467   4.653   2.221
 4154TIP3   OH212404   7.328   4.509   0.489
 4154TIP3    H112405   7.327   4.526   0.586
 4154TIP3    H212406   7.272   4.429   0.484
 4155TIP3   OH212407   7.930   4.753   1.842
 4155TIP3    H112408   8.008   4.793   1.799
 4155TIP3    H212409   7.863   4.821   1.825
 4156TIP3   OH212410   6.949   4.392   2.442
 4156TIP3    H112411   7.028   4.342   2.419
 4156TIP3    H212412   6.974   4.428   2.530
 4157TIP3   OH212413   7.010   4.214   0.872
 4157TIP3    H112414   6.983   4.175   0.957
 4157TIP3    H212415   7.048   4.137   0.825
 4158TIP3   OH212416   7.284   4.279   2.104
 4158TIP3    H112417   7.205   4.337   2.105
 4158TIP3    H212418   7.333   4.312   2.025
 4159TIP3   OH212419   7.115   4.009   0.719
 4159TIP3    H112420   7.090   4.016   0.625
 4159TIP3    H212421   7.213   4.012   0.712
 4160TIP3   OH212422   7.803   4.681   2.235
 4160TIP3    H112423   7.877   4.652   2.181
 4160TIP3    H212424   7.796   4.611   2.302
 4161TIP3   OH212425   7.407   4.067   2.227
 4161TIP3    H112426   7.407   3.988   2.169
 4161TIP3    H212427   7.364   4.135   2.170
 4162TIP3   OH212428   7.408   3.853   2.037
 4162TIP3    H112429   7.437   3.896   1.954
 4162TIP3    H212430   7.315   3.831   2.017
 4163TIP3   OH212431   7.435   4.389   1.910
 4163TIP3    H112432   7.520   4.396   1.864
 4163TIP3    H212433   7.380   4.454   1.863
 4164TIP3   OH212434   8.021   4.359   2.294
 4164TIP3    H112435   8.061   4.272   2.279
 4164TIP3    H212436   8.083   4.418   2.249
 4165TIP3   OH212437   8.064   4.607   2.030
 4165TIP3    H112438   8.013   4.662   1.967
 4165TIP3    H212439   8.147   4.593   1.978
 4166TIP3   OH212440   7.287   4.173   2.461
 4166TIP3    H112441   7.217   4.106   2.476
 4166TIP3    H212442   7.319   4.150   2.372
 4167TIP3   OH212443   7.530   3.616   2.109
 4167TIP3    H112444   7.480   3.697   2.086
 4167TIP3    H212445   7.462   3.546   2.096
 4168TIP3   OH212446   7.667   4.117   2.318
 4168TIP3    H112447   7.649   4.103   2.413
 4168TIP3    H212448   7.578   4.095   2.283
 4169TIP3   OH212449   7.911   4.080   2.176
 4169TIP3    H112450   7.829   4.077   2.229
 4169TIP3    H212451   7.974   4.033   2.234
 4170TIP3   OH212452   8.105   3.975   2.337
 4170TIP3    H112453   8.162   3.900   2.360
 4170TIP3    H212454   8.118   4.035   2.413
 4171TIP3   OH212455   7.123   3.955   2.515
 4171TIP3    H112456   7.128   3.863   2.481
 4171TIP3    H212457   7.160   3.943   2.605
 4172TIP3   OH212458   7.633   3.626   2.363
 4172TIP3    H112459   7.691   3.547   2.359
 4172TIP3    H212460   7.592   3.623   2.274
 4173TIP3   OH212461   7.703   3.842   2.520
 4173TIP3    H112462   7.680   3.771   2.456
 4173TIP3    H212463   7.625   3.902   2.514
 4174TIP3   OH212464   6.941   5.065   0.620
 4174TIP3    H112465   7.023   5.058   0.566
 4174TIP3    H212466   6.880   5.103   0.555
 4175TIP3   OH212467   6.401   4.449   0.844
 4175TIP3    H112468   6.493   4.474   0.822
 4175TIP3    H212469   6.394   4.364   0.795
 4176TIP3   OH212470   6.315   5.067   1.255
 4176TIP3    H112471   6.252   5.003   1.214
 4176TIP3    H212472   6.361   5.007   1.317
 4177TIP3   OH212473   6.451   4.913   1.439
 4177TIP3    H112474   6.441   4.839   1.502
 4177TIP3    H212475   6.503   4.975   1.494
 4178TIP3   OH212476   8.248   5.311   1.515
 4178TIP3    H112477   8.196   5.228   1.506
 4178TIP3    H212478   8.233   5.330   1.608
 4179TIP3   OH212479   8.224   5.032   2.093
 4179TIP3    H112480   8.157   5.030   2.165
 4179TIP3    H212481   8.265   5.120   2.106
 4180TIP3   OH212482   8.089   5.084   1.537
 4180TIP3    H112483   8.022   5.122   1.597
 4180TIP3    H212484   8.033   5.033   1.475
 4181TIP3   OH212485   7.989   4.216   1.060
 4181TIP3    H112486   8.075   4.171   1.070
 4181TIP3    H212487   7.987   4.264   1.145
 4182TIP3   OH212488   6.638   4.322   1.809
 4182TIP3    H112489   6.636   4.288   1.717
 4182TIP3    H212490   6.735   4.323   1.825
 4183TIP3   OH212491   6.856   4.006   2.481
 4183TIP3    H112492   6.954   4.001   2.486
 4183TIP3    H212493   6.832   3.921   2.523
 4184TIP3   OH212494   6.818   3.701   1.814
 4184TIP3    H112495   6.881   3.626   1.823
 4184TIP3    H212496   6.880   3.775   1.806
 4185TIP3   OH212497   6.619   3.973   1.885
 4185TIP3    H112498   6.669   3.969   1.802
 4185TIP3    H212499   6.647   4.058   1.921
 4186TIP3   OH212500   6.604   3.475   1.386
 4186TIP3    H112501   6.512   3.473   1.415
 4186TIP3    H212502   6.600   3.535   1.308
 4187TIP3   OH212503   7.757   5.184   0.880
 4187TIP3    H112504   7.782   5.176   0.787
 4187TIP3    H212505   7.825   5.242   0.916
 4188TIP3   OH212506   6.825   3.556   2.201
 4188TIP3    H112507   6.774   3.552   2.284
 4188TIP3    H212508   6.759   3.595   2.141
 4189TIP3   OH212509   6.860   4.987   2.279
 4189TIP3    H112510   6.768   4.963   2.260
 4189TIP3    H212511   6.864   4.969   2.374
 4190TIP3   OH212512   7.044   5.020   1.827
 4190TIP3    H112513   6.996   5.095   1.788
 4190TIP3    H212514   7.130   5.033   1.782
 4191TIP3   OH212515   7.485   5.263   1.964
 4191TIP3    H112516   7.528   5.262   2.052
 4191TIP3    H212517   7.552   5.313   1.912
 4192TIP3   OH212518   7.664   5.416   1.823
 4192TIP3    H112519   7.735   5.365   1.782
 4192TIP3    H212520   7.716   5.473   1.884
 4193TIP3   OH212521   6.718   5.280   1.846
 4193TIP3    H112522   6.628   5.315   1.828
 4193TIP3    H212523   6.729   5.306   1.938
 4194TIP3   OH212524   6.956   5.256   1.709
 4194TIP3    H112525   6.869   5.268   1.754
 4194TIP3    H212526   6.935   5.284   1.618
 4195TIP3   OH212527   7.380   5.282   1.506
 4195TIP3    H112528   7.310   5.302   1.442
 4195TIP3    H212529   7.393   5.369   1.550
 4196TIP3   OH212530   7.648   5.217   1.559
 4196TIP3    H112531   7.555   5.238   1.537
 4196TIP3    H212532   7.695   5.292   1.519
 4197TIP3   OH212533   7.835   5.403   1.469
 4197TIP3    H112534   7.833   5.492   1.426
 4197TIP3    H212535   7.870   5.347   1.397
 4198TIP3   OH212536   6.630   5.069   1.597
 4198TIP3    H112537   6.660   5.040   1.686
 4198TIP3    H212538   6.701   5.026   1.544
 4199TIP3   OH212539   6.824   4.942   1.454
 4199TIP3    H112540   6.838   4.857   1.502
 4199TIP3    H212541   6.916   4.976   1.451
 4200TIP3   OH212542   7.094   5.035   1.457
 4200TIP3    H112543   7.122   4.942   1.445
 4200TIP3    H212544   7.141   5.055   1.540
 4201TIP3   OH212545   7.618   3.659   1.502
 4201TIP3    H112546   7.605   3.605   1.582
 4201TIP3    H212547   7.715   3.653   1.489
 4202TIP3   OH212548   6.914   3.398   1.558
 4202TIP3    H112549   6.821   3.365   1.560
 4202TIP3    H212550   6.963   3.313   1.554
 4203TIP3   OH212551   6.700   3.270   1.207
 4203TIP3    H112552   6.732   3.326   1.134
 4203TIP3    H212553   6.674   3.336   1.274
 4204TIP3   OH212554   7.359   3.431   1.439
 4204TIP3    H112555   7.412   3.476   1.372
 4204TIP3    H212556   7.392   3.472   1.521
 4205TIP3   OH212557   7.870   3.562   1.420
 4205TIP3    H112558   7.897   3.541   1.331
 4205TIP3    H212559   7.868   3.474   1.463
 4206TIP3   OH212560   6.415   4.846   0.987
 4206TIP3    H112561   6.332   4.811   0.951
 4206TIP3    H212562   6.410   4.937   0.950
 4207TIP3   OH212563   6.821   3.428   0.969
 4207TIP3    H112564   6.869   3.365   0.911
 4207TIP3    H212565   6.895   3.481   1.004
 4208TIP3   OH212566   7.329   3.607   1.067
 4208TIP3    H112567   7.390   3.561   1.128
 4208TIP3    H212568   7.349   3.700   1.091
 4209TIP3   OH212569   7.121   3.679   2.449
 4209TIP3    H112570   7.087   3.608   2.507
 4209TIP3    H212571   7.216   3.680   2.477
 4210TIP3   OH212572   7.371   3.677   2.568
 4210TIP3    H112573   7.456   3.652   2.530
 4210TIP3    H212574   7.358   3.607   2.635
 4211TIP3   OH212575   6.470   4.835   0.645
 4211TIP3    H112576   6.477   4.899   0.717
 4211TIP3    H212577   6.563   4.811   0.627
 4212TIP3   OH212578   8.128   5.301   1.851
 4212TIP3    H112579   8.053   5.263   1.801
 4212TIP3    H212580   8.104   5.395   1.854
 4213TIP3   OH212581   0.056   5.198   2.818
 4213TIP3    H112582   0.020   5.288   2.821
 4213TIP3    H212583  -0.013   5.153   2.766
 4214TIP3   OH212584   0.073   5.183   3.188
 4214TIP3    H112585   0.098   5.155   3.278
 4214TIP3    H212586   0.026   5.105   3.155
 4215TIP3   OH212587   0.299   5.501   2.881
 4215TIP3    H112588   0.294   5.429   2.946
 4215TIP3    H212589   0.331   5.575   2.935
 4216TIP3   OH212590   0.003   5.984   2.884
 4216TIP3    H112591   0.047   5.902   2.858
 4216TIP3    H212592  -0.065   5.951   2.946
 4217TIP3   OH212593  -0.117   5.388   3.263
 4217TIP3    H112594  -0.084   5.317   3.206
 4217TIP3    H212595  -0.035   5.441   3.274
 4218TIP3   OH212596   0.868   4.739   3.243
 4218TIP3    H112597   0.899   4.822   3.285
 4218TIP3    H212598   0.900   4.751   3.152
 4219TIP3   OH212599   0.262   4.920   3.281
 4219TIP3    H112600   0.310   4.836   3.299
 4219TIP3    H212601   0.237   4.907   3.187
 4220TIP3   OH212602   0.303   4.677   2.863
 4220TIP3    H112603   0.376   4.664   2.928
 4220TIP3    H212604   0.355   4.710   2.787
 4221TIP3   OH212605   0.942   4.946   3.418
 4221TIP3    H112606   0.859   4.994   3.398
 4221TIP3    H212607   0.969   4.986   3.502
 4222TIP3   OH212608  -0.079   5.432   2.696
 4222TIP3    H112609  -0.087   5.380   2.615
 4222TIP3    H212610   0.002   5.483   2.678
 4223TIP3   OH212611   0.504   4.680   3.043
 4223TIP3    H112612   0.511   4.627   3.123
 4223TIP3    H212613   0.563   4.755   3.063
 4224TIP3   OH212614   0.368   5.742   3.046
 4224TIP3    H112615   0.277   5.734   3.083
 4224TIP3    H212616   0.363   5.830   3.004
 4225TIP3   OH212617   0.663   4.640   3.411
 4225TIP3    H112618   0.577   4.668   3.376
 4225TIP3    H212619   0.725   4.670   3.341
 4226TIP3   OH212620  -0.034   4.270   3.385
 4226TIP3    H112621  -0.047   4.175   3.406
 4226TIP3    H212622  -0.087   4.313   3.453
 4227TIP3   OH212623   0.068   5.770   2.708
 4227TIP3    H112624   0.113   5.685   2.687
 4227TIP3    H212625   0.133   5.834   2.674
 4228TIP3   OH212626   0.181   5.533   2.634
 4228TIP3    H112627   0.218   5.472   2.568
 4228TIP3    H212628   0.237   5.516   2.713
 4229TIP3   OH212629   0.597   5.652   3.392
 4229TIP3    H112630   0.586   5.576   3.331
 4229TIP3    H212631   0.579   5.727   3.332
 4230TIP3   OH212632  -0.111   5.069   2.649
 4230TIP3    H112633  -0.192   5.015   2.667
 4230TIP3    H212634  -0.084   5.041   2.560
 4231TIP3   OH212635  -0.134   4.833   2.369
 4231TIP3    H112636  -0.061   4.886   2.406
 4231TIP3    H212637  -0.083   4.767   2.318
 4232TIP3   OH212638   0.791   5.292   3.237
 4232TIP3    H112639   0.708   5.344   3.239
 4232TIP3    H212640   0.822   5.312   3.146
 4233TIP3   OH212641   0.234   5.132   2.618
 4233TIP3    H112642   0.185   5.153   2.700
 4233TIP3    H212643   0.320   5.101   2.657
 4234TIP3   OH212644   0.471   5.168   3.536
 4234TIP3    H112645   0.469   5.251   3.586
 4234TIP3    H212646   0.387   5.173   3.487
 4235TIP3   OH212647   0.124   5.738   3.161
 4235TIP3    H112648   0.109   5.820   3.212
 4235TIP3    H212649   0.114   5.667   3.228
 4236TIP3   OH212650   0.075   4.988   2.449
 4236TIP3    H112651   0.133   5.046   2.503
 4236TIP3    H212652   0.104   5.014   2.357
 4237TIP3   OH212653   0.592   4.226   2.498
 4237TIP3    H112654   0.511   4.251   2.548
 4237TIP3    H212655   0.607   4.308   2.446
 4238TIP3   OH212656   0.393   5.595   2.042
 4238TIP3    H112657   0.403   5.691   2.027
 4238TIP3    H212658   0.486   5.564   2.030
 4239TIP3   OH212659   0.833   6.001   3.438
 4239TIP3    H112660   0.832   5.904   3.449
 4239TIP3    H212661   0.749   6.024   3.483
 4240TIP3   OH212662  -0.057   5.837   2.163
 4240TIP3    H112663  -0.012   5.758   2.130
 4240TIP3    H212664  -0.058   5.823   2.259
 4241TIP3   OH212665  -0.051   5.866   2.448
 4241TIP3    H112666  -0.116   5.868   2.521
 4241TIP3    H212667   0.030   5.844   2.498
 4242TIP3   OH212668   0.720   5.127   3.715
 4242TIP3    H112669   0.643   5.138   3.657
 4242TIP3    H212670   0.739   5.032   3.704
 4243TIP3   OH212671   0.264   4.474   3.714
 4243TIP3    H112672   0.334   4.447   3.778
 4243TIP3    H212673   0.181   4.455   3.763
 4244TIP3   OH212674   0.487   4.901   3.630
 4244TIP3    H112675   0.442   4.899   3.717
 4244TIP3    H212676   0.469   4.991   3.597
 4245TIP3   OH212677   0.152   5.044   2.198
 4245TIP3    H112678   0.119   5.012   2.112
 4245TIP3    H212679   0.240   5.077   2.172
 4246TIP3   OH212680  -0.147   4.416   2.468
 4246TIP3    H112681  -0.158   4.414   2.566
 4246TIP3    H212682  -0.175   4.324   2.448
 4247TIP3   OH212683   0.030   4.854   2.784
 4247TIP3    H112684  -0.021   4.927   2.742
 4247TIP3    H212685   0.083   4.821   2.708
 4248TIP3   OH212686   0.225   5.116   3.860
 4248TIP3    H112687   0.198   5.043   3.920
 4248TIP3    H212688   0.319   5.125   3.884
 4249TIP3   OH212689   0.180   4.874   3.021
 4249TIP3    H112690   0.122   4.902   2.947
 4249TIP3    H212691   0.219   4.795   2.977
 4250TIP3   OH212692   0.188   5.120   3.445
 4250TIP3    H112693   0.224   5.052   3.384
 4250TIP3    H212694   0.163   5.062   3.520
 4251TIP3   OH212695  -0.130   4.575   3.106
 4251TIP3    H112696  -0.220   4.605   3.128
 4251TIP3    H212697  -0.079   4.597   3.185
 4252TIP3   OH212698   0.353   4.660   3.326
 4252TIP3    H112699   0.315   4.673   3.415
 4252TIP3    H212700   0.288   4.597   3.288
 4253TIP3   OH212701   0.530   6.344   3.537
 4253TIP3    H112702   0.525   6.369   3.443
 4253TIP3    H212703   0.604   6.400   3.569
 4254TIP3   OH212704  -0.042   4.898   3.209
 4254TIP3    H112705   0.032   4.872   3.152
 4254TIP3    H212706  -0.017   4.861   3.295
 4255TIP3   OH212707  -0.053   4.793   3.504
 4255TIP3    H112708  -0.118   4.866   3.496
 4255TIP3    H212709   0.019   4.839   3.550
 4256TIP3   OH212710   0.557   5.438   3.225
 4256TIP3    H112711   0.584   5.486   3.144
 4256TIP3    H212712   0.474   5.394   3.196
 4257TIP3   OH212713   0.113   4.508   2.467
 4257TIP3    H112714   0.016   4.498   2.467
 4257TIP3    H212715   0.126   4.603   2.489
 4258TIP3   OH212716   0.048   5.519   3.591
 4258TIP3    H112717   0.082   5.517   3.681
 4258TIP3    H212718  -0.004   5.603   3.591
 4259TIP3   OH212719   0.188   4.759   2.565
 4259TIP3    H112720   0.285   4.761   2.579
 4259TIP3    H212721   0.174   4.837   2.509
 4260TIP3   OH212722  -0.202   5.345   2.431
 4260TIP3    H112723  -0.261   5.421   2.420
 4260TIP3    H212724  -0.259   5.283   2.479
 4261TIP3   OH212725   0.009   5.245   3.963
 4261TIP3    H112726  -0.050   5.181   3.921
 4261TIP3    H212727   0.094   5.219   3.922
 4262TIP3   OH212728   0.221   5.772   3.485
 4262TIP3    H112729   0.125   5.779   3.497
 4262TIP3    H212730   0.253   5.825   3.562
 4263TIP3   OH212731   0.606   4.828   2.415
 4263TIP3    H112732   0.546   4.803   2.342
 4263TIP3    H212733   0.651   4.904   2.374
 4264TIP3   OH212734   0.848   5.713   3.477
 4264TIP3    H112735   0.750   5.704   3.470
 4264TIP3    H212736   0.874   5.681   3.388
 4265TIP3   OH212737   0.329   5.665   2.307
 4265TIP3    H112738   0.311   5.586   2.359
 4265TIP3    H212739   0.344   5.628   2.218
 4266TIP3   OH212740   0.328   5.299   3.141
 4266TIP3    H112741   0.235   5.271   3.152
 4266TIP3    H212742   0.364   5.219   3.096
 4267TIP3   OH212743   0.123   5.504   3.326
 4267TIP3    H112744   0.112   5.509   3.423
 4267TIP3    H212745   0.208   5.457   3.318
 4268TIP3   OH212746   0.094   5.404   2.210
 4268TIP3    H112747   0.142   5.379   2.292
 4268TIP3    H212748   0.008   5.361   2.224
 4269TIP3   OH212749   0.361   6.032   3.374
 4269TIP3    H112750   0.280   5.978   3.368
 4269TIP3    H212751   0.342   6.100   3.304
 4270TIP3   OH212752   0.420   5.869   2.027
 4270TIP3    H112753   0.459   5.941   1.976
 4270TIP3    H212754   0.343   5.916   2.066
 4271TIP3   OH212755   0.249   5.342   2.439
 4271TIP3    H112756   0.238   5.265   2.498
 4271TIP3    H212757   0.345   5.332   2.416
 4272TIP3   OH212758   0.274   4.718   3.586
 4272TIP3    H112759   0.362   4.753   3.608
 4272TIP3    H212760   0.271   4.633   3.635
 4273TIP3   OH212761   0.170   4.457   2.746
 4273TIP3    H112762   0.146   4.479   2.654
 4273TIP3    H212763   0.206   4.542   2.778
 4274TIP3   OH212764  -0.154   4.653   2.841
 4274TIP3    H112765  -0.085   4.722   2.828
 4274TIP3    H212766  -0.149   4.639   2.938
 4275TIP3   OH212767   0.128   4.953   3.650
 4275TIP3    H112768   0.159   5.007   3.727
 4275TIP3    H212769   0.185   4.874   3.656
 4276TIP3   OH212770   0.005   4.367   2.962
 4276TIP3    H112771  -0.025   4.450   3.004
 4276TIP3    H212772   0.054   4.402   2.884
 4277TIP3   OH212773   0.757   4.863   3.637
 4277TIP3    H112774   0.659   4.856   3.637
 4277TIP3    H212775   0.777   4.827   3.550
 4278TIP3   OH212776   0.409   5.057   3.023
 4278TIP3    H112777   0.336   4.994   3.029
 4278TIP3    H212778   0.482   5.008   3.068
 4279TIP3   OH212779   0.381   6.010   2.971
 4279TIP3    H112780   0.339   6.058   2.896
 4279TIP3    H212781   0.475   6.030   2.950
 4280TIP3   OH212782   0.285   5.904   3.713
 4280TIP3    H112783   0.264   5.850   3.792
 4280TIP3    H212784   0.346   5.970   3.750
 4281TIP3   OH212785   0.077   5.621   2.035
 4281TIP3    H112786   0.098   5.551   2.101
 4281TIP3    H212787   0.147   5.608   1.970
 4282TIP3   OH212788  -0.204   5.283   2.161
 4282TIP3    H112789  -0.208   5.290   2.258
 4282TIP3    H212790  -0.208   5.186   2.149
 4283TIP3   OH212791   0.380   5.544   3.530
 4283TIP3    H112792   0.457   5.584   3.485
 4283TIP3    H212793   0.313   5.614   3.513
 4284TIP3   OH212794  -0.396   4.813   2.460
 4284TIP3    H112795  -0.425   4.801   2.367
 4284TIP3    H212796  -0.300   4.813   2.448
 4285TIP3   OH212797   0.247   5.470   3.934
 4285TIP3    H112798   0.317   5.440   3.875
 4285TIP3    H212799   0.249   5.402   4.003
 4286TIP3   OH212800   0.382   5.125   2.070
 4286TIP3    H112801   0.366   5.078   1.986
 4286TIP3    H212802   0.350   5.214   2.045
 4287TIP3   OH212803  -0.177   4.590   3.647
 4287TIP3    H112804  -0.124   4.655   3.594
 4287TIP3    H212805  -0.215   4.648   3.714
 4288TIP3   OH212806  -0.059   5.235   3.548
 4288TIP3    H112807   0.032   5.215   3.523
 4288TIP3    H212808  -0.072   5.319   3.501
 4289TIP3   OH212809   0.479   5.138   3.977
 4289TIP3    H112810   0.526   5.054   3.989
 4289TIP3    H212811   0.547   5.192   3.935
 4290TIP3   OH212812   0.509   5.399   3.718
 4290TIP3    H112813   0.453   5.454   3.657
 4290TIP3    H212814   0.598   5.417   3.679
 4291TIP3   OH212815   0.003   4.405   3.782
 4291TIP3    H112816  -0.057   4.476   3.751
 4291TIP3    H212817  -0.055   4.327   3.770
 4292TIP3   OH212818   0.125   4.913   4.017
 4292TIP3    H112819   0.158   4.908   4.109
 4292TIP3    H212820   0.042   4.865   4.024
 4293TIP3   OH212821   0.363   4.855   3.866
 4293TIP3    H112822   0.289   4.850   3.929
 4293TIP3    H212823   0.439   4.825   3.921
 4294TIP3   OH212824   0.588   4.800   4.017
 4294TIP3    H112825   0.602   4.704   4.031
 4294TIP3    H212826   0.584   4.835   4.109
 4295TIP3   OH212827   0.095   4.418   4.042
 4295TIP3    H112828   0.159   4.344   4.041
 4295TIP3    H212829   0.055   4.410   3.954
 4296TIP3   OH212830   0.169   4.626   4.199
 4296TIP3    H112831   0.149   4.549   4.141
 4296TIP3    H212832   0.081   4.670   4.202
 4297TIP3   OH212833   0.634   6.103   2.929
 4297TIP3    H112834   0.662   6.136   3.016
 4297TIP3    H212835   0.700   6.141   2.869
 4298TIP3   OH212836   0.664   6.123   3.212
 4298TIP3    H112837   0.616   6.038   3.205
 4298TIP3    H212838   0.738   6.096   3.267
 4299TIP3   OH212839   0.713   5.800   3.782
 4299TIP3    H112840   0.639   5.809   3.845
 4299TIP3    H212841   0.752   5.889   3.785
 4300TIP3   OH212842   0.518   5.319   2.398
 4300TIP3    H112843   0.591   5.376   2.365
 4300TIP3    H212844   0.561   5.283   2.479
 4301TIP3   OH212845   0.638   5.208   2.613
 4301TIP3    H112846   0.586   5.143   2.663
 4301TIP3    H212847   0.716   5.223   2.670
 4302TIP3   OH212848   0.707   5.571   3.036
 4302TIP3    H112849   0.761   5.504   2.990
 4302TIP3    H212850   0.703   5.643   2.970
 4303TIP3   OH212851   0.538   5.871   3.231
 4303TIP3    H112852   0.466   5.915   3.282
 4303TIP3    H212853   0.488   5.825   3.161
 4304TIP3   OH212854   0.584   5.085   2.252
 4304TIP3    H112855   0.512   5.090   2.186
 4304TIP3    H212856   0.561   5.160   2.310
 4305TIP3   OH212857   0.438   4.760   2.212
 4305TIP3    H112858   0.432   4.798   2.124
 4305TIP3    H212859   0.423   4.665   2.193
 4306TIP3   OH212860   0.459   5.037   2.747
 4306TIP3    H112861   0.485   4.944   2.735
 4306TIP3    H212862   0.453   5.046   2.844
 4307TIP3   OH212863   0.755   5.461   3.610
 4307TIP3    H112864   0.826   5.394   3.600
 4307TIP3    H212865   0.778   5.526   3.542
 4308TIP3   OH212866   0.937   5.264   3.628
 4308TIP3    H112867   0.862   5.213   3.664
 4308TIP3    H212868   1.010   5.200   3.641
 4309TIP3   OH212869   0.401   4.489   2.180
 4309TIP3    H112870   0.476   4.463   2.239
 4309TIP3    H212871   0.328   4.433   2.211
 4310TIP3   OH212872   0.463   4.754   2.641
 4310TIP3    H112873   0.509   4.668   2.654
 4310TIP3    H212874   0.520   4.790   2.569
 4311TIP3   OH212875   0.622   4.926   3.141
 4311TIP3    H112876   0.707   4.951   3.098
 4311TIP3    H212877   0.640   4.961   3.230
 4312TIP3   OH212878   0.695   5.072   3.374
 4312TIP3    H112879   0.616   5.107   3.419
 4312TIP3    H212880   0.728   5.151   3.326
 4313TIP3   OH212881   1.145   4.662   3.929
 4313TIP3    H112882   1.204   4.597   3.885
 4313TIP3    H212883   1.116   4.716   3.852
 4314TIP3   OH212884   0.572   4.504   2.685
 4314TIP3    H112885   0.621   4.487   2.768
 4314TIP3    H212886   0.512   4.427   2.683
 4315TIP3   OH212887   1.010   4.798   3.734
 4315TIP3    H112888   0.921   4.837   3.741
 4315TIP3    H212889   0.990   4.723   3.674
 4316TIP3   OH212890   0.637   4.428   2.311
 4316TIP3    H112891   0.682   4.358   2.261
 4316TIP3    H212892   0.702   4.500   2.310
 4317TIP3   OH212893   0.219   5.955   2.587
 4317TIP3    H112894   0.273   5.951   2.505
 4317TIP3    H212895   0.261   6.028   2.635
 4318TIP3   OH212896   0.111   6.193   3.523
 4318TIP3    H112897   0.175   6.135   3.481
 4318TIP3    H212898   0.171   6.251   3.575
 4319TIP3   OH212899   0.916   4.558   3.614
 4319TIP3    H112900   0.827   4.548   3.577
 4319TIP3    H212901   0.952   4.466   3.603
 4320TIP3   OH212902   0.098   6.012   3.254
 4320TIP3    H112903   0.010   6.040   3.282
 4320TIP3    H212904   0.128   6.090   3.205
 4321TIP3   OH212905   0.319   6.205   3.161
 4321TIP3    H112906   0.297   6.285   3.111
 4321TIP3    H212907   0.337   6.140   3.090
 4322TIP3   OH212908   0.132   4.482   3.250
 4322TIP3    H112909   0.078   4.407   3.278
 4322TIP3    H212910   0.193   4.441   3.186
 4323TIP3   OH212911   0.630   4.373   3.144
 4323TIP3    H112912   0.672   4.404   3.060
 4323TIP3    H212913   0.536   4.383   3.125
 4324TIP3   OH212914   0.734   4.454   2.903
 4324TIP3    H112915   0.805   4.398   2.866
 4324TIP3    H212916   0.775   4.542   2.887
 4325TIP3   OH212917  -0.170   4.211   3.132
 4325TIP3    H112918  -0.124   4.264   3.064
 4325TIP3    H212919  -0.132   4.249   3.213
 4326TIP3   OH212920   0.346   4.356   3.112
 4326TIP3    H112921   0.336   4.338   3.018
 4326TIP3    H212922   0.340   4.267   3.152
 4327TIP3   OH212923   0.386   4.290   2.676
 4327TIP3    H112924   0.304   4.340   2.693
 4327TIP3    H212925   0.367   4.205   2.721
 4328TIP3   OH212926  -0.170   4.399   2.735
 4328TIP3    H112927  -0.178   4.349   2.817
 4328TIP3    H212928  -0.181   4.491   2.767
 4329TIP3   OH212929   0.363   5.932   2.355
 4329TIP3    H112930   0.355   5.835   2.341
 4329TIP3    H212931   0.317   5.965   2.275
 4330TIP3   OH212932   0.650   4.531   4.045
 4330TIP3    H112933   0.670   4.498   4.135
 4330TIP3    H212934   0.738   4.524   4.001
 4331TIP3   OH212935   0.585   6.076   3.541
 4331TIP3    H112936   0.508   6.045   3.490
 4331TIP3    H212937   0.567   6.172   3.544
 4332TIP3   OH212938   1.857   5.455   2.300
 4332TIP3    H112939   1.825   5.545   2.279
 4332TIP3    H212940   1.780   5.402   2.271
 4333TIP3   OH212941   1.856   5.452   2.695
 4333TIP3    H112942   1.889   5.426   2.783
 4333TIP3    H212943   1.814   5.370   2.665
 4334TIP3   OH212944   1.150   5.347   3.056
 4334TIP3    H112945   1.181   5.279   3.119
 4334TIP3    H212946   1.234   5.386   3.029
 4335TIP3   OH212947   2.099   5.756   2.368
 4335TIP3    H112948   2.082   5.685   2.432
 4335TIP3    H212949   2.129   5.829   2.426
 4336TIP3   OH212950   1.126   5.759   2.776
 4336TIP3    H112951   1.117   5.661   2.774
 4336TIP3    H212952   1.223   5.766   2.768
 4337TIP3   OH212953   0.784   4.957   2.614
 4337TIP3    H112954   0.768   5.045   2.577
 4337TIP3    H212955   0.807   4.910   2.532
 4338TIP3   OH212956   0.889   5.246   2.734
 4338TIP3    H112957   0.933   5.165   2.768
 4338TIP3    H212958   0.941   5.265   2.655
 4339TIP3   OH212959   1.751   6.216   2.386
 4339TIP3    H112960   1.792   6.145   2.333
 4339TIP3    H212961   1.741   6.173   2.472
 4340TIP3   OH212962   1.652   5.682   2.731
 4340TIP3    H112963   1.688   5.601   2.691
 4340TIP3    H212964   1.736   5.726   2.755
 4341TIP3   OH212965   2.670   4.998   2.732
 4341TIP3    H112966   2.697   5.082   2.775
 4341TIP3    H212967   2.687   5.019   2.638
 4342TIP3   OH212968   2.061   5.178   2.770
 4342TIP3    H112969   2.105   5.093   2.789
 4342TIP3    H212970   2.031   5.164   2.678
 4343TIP3   OH212971   1.405   4.841   2.728
 4343TIP3    H112972   1.380   4.912   2.666
 4343TIP3    H212973   1.359   4.765   2.686
 4344TIP3   OH212974   2.099   4.929   2.351
 4344TIP3    H112975   2.171   4.913   2.417
 4344TIP3    H212976   2.152   4.965   2.278
 4345TIP3   OH212977   1.032   5.036   2.841
 4345TIP3    H112978   1.119   5.016   2.880
 4345TIP3    H212979   1.035   4.978   2.761
 4346TIP3   OH212980   1.472   5.237   2.637
 4346TIP3    H112981   1.566   5.212   2.647
 4346TIP3    H212982   1.433   5.154   2.602
 4347TIP3   OH212983   2.741   5.209   2.898
 4347TIP3    H112984   2.655   5.253   2.881
 4347TIP3    H212985   2.751   5.228   2.993
 4348TIP3   OH212986   1.399   4.823   3.165
 4348TIP3    H112987   1.339   4.858   3.096
 4348TIP3    H212988   1.348   4.842   3.245
 4349TIP3   OH212989   1.746   5.675   2.170
 4349TIP3    H112990   1.700   5.652   2.088
 4349TIP3    H212991   1.699   5.756   2.197
 4350TIP3   OH212992   1.502   5.603   2.951
 4350TIP3    H112993   1.441   5.670   2.988
 4350TIP3    H212994   1.545   5.651   2.878
 4351TIP3   OH212995   2.305   4.933   2.530
 4351TIP3    H112996   2.277   4.897   2.616
 4351TIP3    H212997   2.356   5.011   2.557
 4352TIP3   OH212998   1.270   4.936   2.947
 4352TIP3    H112999   1.333   5.008   2.970
 4352TIP3    H213000   1.318   4.896   2.871
 4353TIP3   OH213001   1.334   5.798   3.059
 4353TIP3    H113002   1.306   5.884   3.022
 4353TIP3    H213003   1.255   5.778   3.114
 4354TIP3   OH213004   0.722   5.483   2.293
 4354TIP3    H113005   0.688   5.506   2.204
 4354TIP3    H213006   0.758   5.567   2.325
 4355TIP3   OH213007   2.166   6.000   2.533
 4355TIP3    H113008   2.076   5.990   2.572
 4355TIP3    H213009   2.157   6.086   2.488
 4356TIP3   OH213010   2.464   4.895   2.899
 4356TIP3    H113011   2.375   4.924   2.873
 4356TIP3    H213012   2.519   4.928   2.825
 4357TIP3   OH213013   1.753   4.538   2.881
 4357TIP3    H113014   1.739   4.443   2.898
 4357TIP3    H213015   1.676   4.577   2.927
 4358TIP3   OH213016   1.865   6.044   2.204
 4358TIP3    H113017   1.916   5.962   2.186
 4358TIP3    H213018   1.927   6.109   2.163
 4359TIP3   OH213019   2.011   5.829   2.117
 4359TIP3    H113020   1.967   5.750   2.084
 4359TIP3    H213021   2.050   5.796   2.201
 4360TIP3   OH213022   2.391   5.910   2.876
 4360TIP3    H113023   2.380   5.831   2.818
 4360TIP3    H213024   2.376   5.983   2.813
 4361TIP3   OH213025   1.685   5.305   2.136
 4361TIP3    H113026   1.603   5.354   2.115
 4361TIP3    H213027   1.729   5.301   2.049
 4362TIP3   OH213028   1.643   5.094   1.845
 4362TIP3    H113029   1.711   5.141   1.897
 4362TIP3    H213030   1.699   5.028   1.799
 4363TIP3   OH213031   2.589   5.550   2.724
 4363TIP3    H113032   2.504   5.599   2.729
 4363TIP3    H213033   2.616   5.573   2.632
 4364TIP3   OH213034   2.034   5.388   2.104
 4364TIP3    H113035   1.978   5.412   2.182
 4364TIP3    H213036   2.117   5.361   2.149
 4365TIP3   OH213037   2.268   5.436   3.009
 4365TIP3    H113038   2.257   5.511   3.070
 4365TIP3    H213039   2.178   5.432   2.971
 4366TIP3   OH213040   1.262   5.381   2.519
 4366TIP3    H113041   1.219   5.319   2.455
 4366TIP3    H213042   1.337   5.327   2.551
 4367TIP3   OH213043   1.395   5.799   2.669
 4367TIP3    H113044   1.373   5.757   2.584
 4367TIP3    H213045   1.484   5.762   2.686
 4368TIP3   OH213046   1.391   5.357   2.880
 4368TIP3    H113047   1.427   5.329   2.793
 4368TIP3    H213048   1.441   5.440   2.898
 4369TIP3   OH213049   1.925   5.995   2.654
 4369TIP3    H113050   1.914   6.071   2.713
 4369TIP3    H213051   1.912   5.918   2.715
 4370TIP3   OH213052   1.539   5.913   3.204
 4370TIP3    H113053   1.476   5.974   3.247
 4370TIP3    H213054   1.476   5.858   3.152
 4371TIP3   OH213055   1.872   5.244   1.933
 4371TIP3    H113056   1.931   5.304   1.984
 4371TIP3    H213057   1.898   5.267   1.840
 4372TIP3   OH213058   1.293   5.474   3.305
 4372TIP3    H113059   1.292   5.561   3.349
 4372TIP3    H213060   1.199   5.449   3.308
 4373TIP3   OH213061   1.618   5.922   2.208
 4373TIP3    H113062   1.699   5.974   2.218
 4373TIP3    H213063   1.557   5.984   2.167
 4374TIP3   OH213064   1.332   6.081   3.289
 4374TIP3    H113065   1.300   6.081   3.197
 4374TIP3    H213066   1.251   6.058   3.340
 4375TIP3   OH213067   2.388   4.483   1.982
 4375TIP3    H113068   2.306   4.503   2.033
 4375TIP3    H213069   2.401   4.566   1.932
 4376TIP3   OH213070   1.132   5.214   2.329
 4376TIP3    H113071   1.062   5.260   2.279
 4376TIP3    H213072   1.090   5.126   2.340
 4377TIP3   OH213073   2.188   5.851   1.530
 4377TIP3    H113074   2.197   5.948   1.516
 4377TIP3    H213075   2.281   5.821   1.517
 4378TIP3   OH213076   0.911   5.613   3.234
 4378TIP3    H113077   0.846   5.589   3.165
 4378TIP3    H213078   0.949   5.526   3.259
 4379TIP3   OH213079   0.766   5.802   2.867
 4379TIP3    H113080   0.862   5.792   2.855
 4379TIP3    H213081   0.762   5.880   2.924
 4380TIP3   OH213082   2.628   6.256   2.924
 4380TIP3    H113083   2.630   6.159   2.940
 4380TIP3    H213084   2.545   6.279   2.971
 4381TIP3   OH213085   1.735   6.042   3.060
 4381TIP3    H113086   1.732   6.135   3.092
 4381TIP3    H213087   1.663   6.001   3.113
 4382TIP3   OH213088   1.499   6.169   2.010
 4382TIP3    H113089   1.449   6.149   1.929
 4382TIP3    H213090   1.464   6.256   2.035
 4383TIP3   OH213091   0.936   6.018   2.395
 4383TIP3    H113092   0.981   6.007   2.482
 4383TIP3    H213093   0.887   5.934   2.390
 4384TIP3   OH213094   1.699   6.071   1.649
 4384TIP3    H113095   1.757   6.000   1.614
 4384TIP3    H213096   1.733   6.081   1.740
 4385TIP3   OH213097   1.751   6.120   1.918
 4385TIP3    H113098   1.662   6.128   1.960
 4385TIP3    H213099   1.801   6.078   1.990
 4386TIP3   OH213100   2.518   5.387   3.196
 4386TIP3    H113101   2.434   5.391   3.148
 4386TIP3    H213102   2.534   5.291   3.195
 4387TIP3   OH213103   1.114   5.797   3.223
 4387TIP3    H113104   1.165   5.776   3.304
 4387TIP3    H213105   1.041   5.732   3.228
 4388TIP3   OH213106   1.515   4.617   3.009
 4388TIP3    H113107   1.425   4.588   2.981
 4388TIP3    H213108   1.491   4.699   3.057
 4389TIP3   OH213109   2.047   4.725   3.202
 4389TIP3    H113110   2.116   4.708   3.269
 4389TIP3    H213111   1.964   4.710   3.252
 4390TIP3   OH213112   2.306   5.181   3.126
 4390TIP3    H113113   2.251   5.145   3.198
 4390TIP3    H213114   2.250   5.253   3.091
 4391TIP3   OH213115   1.949   5.289   1.677
 4391TIP3    H113116   1.914   5.264   1.589
 4391TIP3    H213117   2.033   5.333   1.652
 4392TIP3   OH213118   1.662   4.664   1.980
 4392TIP3    H113119   1.627   4.663   2.071
 4392TIP3    H213120   1.621   4.582   1.947
 4393TIP3   OH213121   1.447   5.132   3.026
 4393TIP3    H113122   1.399   5.153   3.108
 4393TIP3    H213123   1.432   5.214   2.974
 4394TIP3   OH213124   1.326   5.020   2.541
 4394TIP3    H113125   1.230   5.007   2.549
 4394TIP3    H213126   1.341   4.978   2.453
 4395TIP3   OH213127   1.824   5.107   2.272
 4395TIP3    H113128   1.771   5.177   2.228
 4395TIP3    H213129   1.877   5.073   2.197
 4396TIP3   OH213130   1.981   5.132   2.507
 4396TIP3    H113131   1.917   5.158   2.437
 4396TIP3    H213132   2.015   5.050   2.465
 4397TIP3   OH213133   1.271   5.164   3.239
 4397TIP3    H113134   1.323   5.216   3.302
 4397TIP3    H213135   1.259   5.080   3.288
 4398TIP3   OH213136   1.312   4.639   1.945
 4398TIP3    H113137   1.308   4.637   2.043
 4398TIP3    H213138   1.241   4.702   1.926
 4399TIP3   OH213139   0.872   4.670   2.823
 4399TIP3    H113140   0.934   4.714   2.885
 4399TIP3    H213141   0.906   4.699   2.738
 4400TIP3   OH213142   1.988   5.381   2.938
 4400TIP3    H113143   2.014   5.297   2.894
 4400TIP3    H213144   1.977   5.353   3.032
 4401TIP3   OH213145   1.662   4.839   2.600
 4401TIP3    H113146   1.579   4.839   2.653
 4401TIP3    H213147   1.729   4.835   2.670
 4402TIP3   OH213148   1.087   4.881   2.622
 4402TIP3    H113149   1.033   4.906   2.544
 4402TIP3    H213150   1.134   4.803   2.588
 4403TIP3   OH213151   1.368   4.890   2.307
 4403TIP3    H113152   1.459   4.907   2.278
 4403TIP3    H213153   1.316   4.907   2.224
 4404TIP3   OH213154   2.156   4.914   2.792
 4404TIP3    H113155   2.134   4.925   2.888
 4404TIP3    H213156   2.083   4.856   2.764
 4405TIP3   OH213157   1.234   4.906   2.075
 4405TIP3    H113158   1.138   4.902   2.065
 4405TIP3    H213159   1.263   4.950   1.993
 4406TIP3   OH213160   2.321   6.607   3.025
 4406TIP3    H113161   2.320   6.629   2.930
 4406TIP3    H213162   2.404   6.652   3.053
 4407TIP3   OH213163   1.275   5.720   3.444
 4407TIP3    H113164   1.356   5.746   3.491
 4407TIP3    H213165   1.211   5.715   3.519
 4408TIP3   OH213166   1.739   5.171   2.700
 4408TIP3    H113167   1.813   5.129   2.654
 4408TIP3    H213168   1.746   5.131   2.789
 4409TIP3   OH213169   1.267   4.655   2.581
 4409TIP3    H113170   1.231   4.577   2.626
 4409TIP3    H213171   1.306   4.617   2.501
 4410TIP3   OH213172   1.718   5.071   2.989
 4410TIP3    H113173   1.627   5.104   3.002
 4410TIP3    H213174   1.770   5.129   3.047
 4411TIP3   OH213175   1.453   5.456   2.083
 4411TIP3    H113176   1.383   5.388   2.073
 4411TIP3    H213177   1.435   5.489   2.174
 4412TIP3   OH213178   2.353   5.693   2.711
 4412TIP3    H113179   2.377   5.742   2.629
 4412TIP3    H213180   2.269   5.650   2.686
 4413TIP3   OH213181   1.911   4.769   1.945
 4413TIP3    H113182   1.815   4.748   1.958
 4413TIP3    H213183   1.918   4.862   1.974
 4414TIP3   OH213184   1.857   5.777   3.077
 4414TIP3    H113185   1.879   5.743   3.165
 4414TIP3    H213186   1.815   5.862   3.094
 4415TIP3   OH213187   1.980   5.015   2.052
 4415TIP3    H113188   2.076   5.022   2.068
 4415TIP3    H213189   1.961   5.096   2.000
 4416TIP3   OH213190   1.151   5.485   2.755
 4416TIP3    H113191   1.183   5.453   2.668
 4416TIP3    H213192   1.192   5.421   2.815
 4417TIP3   OH213193   1.599   5.605   1.906
 4417TIP3    H113194   1.551   5.691   1.912
 4417TIP3    H213195   1.544   5.549   1.966
 4418TIP3   OH213196   1.025   5.404   3.376
 4418TIP3    H113197   1.049   5.385   3.468
 4418TIP3    H213198   0.962   5.333   3.355
 4419TIP3   OH213199   1.754   5.502   3.389
 4419TIP3    H113200   1.680   5.445   3.360
 4419TIP3    H213201   1.828   5.452   3.347
 4420TIP3   OH213202   2.013   6.045   2.974
 4420TIP3    H113203   1.917   6.033   2.988
 4420TIP3    H213204   2.037   6.093   3.056
 4421TIP3   OH213205   2.423   5.108   1.885
 4421TIP3    H113206   2.361   5.063   1.823
 4421TIP3    H213207   2.419   5.197   1.845
 4422TIP3   OH213208   2.641   5.967   2.964
 4422TIP3    H113209   2.544   5.959   2.957
 4422TIP3    H213210   2.668   5.936   2.875
 4423TIP3   OH213211   2.125   5.926   1.796
 4423TIP3    H113212   2.098   5.857   1.858
 4423TIP3    H213213   2.137   5.877   1.712
 4424TIP3   OH213214   2.119   5.556   2.625
 4424TIP3    H113215   2.027   5.528   2.644
 4424TIP3    H213216   2.154   5.475   2.585
 4425TIP3   OH213217   1.249   5.785   2.389
 4425TIP3    H113218   1.245   5.864   2.332
 4425TIP3    H213219   1.155   5.760   2.394
 4426TIP3   OH213220   0.784   5.112   2.063
 4426TIP3    H113221   0.860   5.152   2.109
 4426TIP3    H213222   0.731   5.084   2.140
 4427TIP3   OH213223   1.384   5.548   2.328
 4427TIP3    H113224   1.349   5.637   2.350
 4427TIP3    H213225   1.346   5.494   2.400
 4428TIP3   OH213226   1.519   6.126   2.854
 4428TIP3    H113227   1.561   6.197   2.802
 4428TIP3    H213228   1.596   6.087   2.898
 4429TIP3   OH213229   1.166   6.023   2.236
 4429TIP3    H113230   1.080   6.030   2.283
 4429TIP3    H213231   1.196   6.116   2.240
 4430TIP3   OH213232   1.907   5.763   2.810
 4430TIP3    H113233   1.895   5.760   2.908
 4430TIP3    H213234   1.980   5.701   2.797
 4431TIP3   OH213235   1.882   5.657   1.696
 4431TIP3    H113236   1.936   5.631   1.774
 4431TIP3    H213237   1.794   5.625   1.724
 4432TIP3   OH213238   2.153   6.295   2.867
 4432TIP3    H113239   2.076   6.234   2.861
 4432TIP3    H213240   2.135   6.355   2.791
 4433TIP3   OH213241   2.220   6.127   1.514
 4433TIP3    H113242   2.259   6.202   1.466
 4433TIP3    H213243   2.139   6.171   1.548
 4434TIP3   OH213244   1.238   4.906   3.380
 4434TIP3    H113245   1.142   4.900   3.389
 4434TIP3    H213246   1.268   4.844   3.449
 4435TIP3   OH213247   2.043   5.586   1.908
 4435TIP3    H113248   2.031   5.521   1.980
 4435TIP3    H213249   2.140   5.584   1.898
 4436TIP3   OH213250   0.955   5.988   3.012
 4436TIP3    H113251   1.007   5.912   3.042
 4436TIP3    H213252   0.987   6.058   3.070
 4437TIP3   OH213253   1.245   5.634   1.696
 4437TIP3    H113254   1.257   5.541   1.668
 4437TIP3    H213255   1.224   5.622   1.791
 4438TIP3   OH213256   1.187   5.640   1.967
 4438TIP3    H113257   1.258   5.607   2.024
 4438TIP3    H213258   1.195   5.737   1.978
 4439TIP3   OH213259   0.938   5.341   2.178
 4439TIP3    H113260   0.863   5.373   2.232
 4439TIP3    H213261   0.941   5.409   2.108
 4440TIP3   OH213262   2.091   4.953   3.052
 4440TIP3    H113263   2.106   5.019   3.121
 4440TIP3    H213264   2.067   4.875   3.106
 4441TIP3   OH213265   1.961   4.716   2.230
 4441TIP3    H113266   1.945   4.741   2.137
 4441TIP3    H213267   2.000   4.798   2.267
 4442TIP3   OH213268   1.459   5.837   1.916
 4442TIP3    H113269   1.371   5.861   1.953
 4442TIP3    H213270   1.472   5.910   1.854
 4443TIP3   OH213271   1.652   4.898   2.330
 4443TIP3    H113272   1.714   4.973   2.316
 4443TIP3    H213273   1.652   4.890   2.428
 4444TIP3   OH213274   1.787   4.622   2.432
 4444TIP3    H113275   1.777   4.700   2.490
 4444TIP3    H213276   1.850   4.657   2.364
 4445TIP3   OH213277   1.205   5.913   1.986
 4445TIP3    H113278   1.173   5.983   1.924
 4445TIP3    H213279   1.186   5.954   2.073
 4446TIP3   OH213280   1.300   4.622   2.223
 4446TIP3    H113281   1.288   4.713   2.256
 4446TIP3    H213282   1.397   4.613   2.232
 4447TIP3   OH213283   2.562   5.113   3.116
 4447TIP3    H113284   2.465   5.125   3.128
 4447TIP3    H213285   2.560   5.066   3.031
 4448TIP3   OH213286   2.206   5.312   2.506
 4448TIP3    H113287   2.128   5.253   2.519
 4448TIP3    H213288   2.276   5.264   2.556
 4449TIP3   OH213289   0.919   5.542   1.973
 4449TIP3    H113290   0.995   5.603   1.982
 4449TIP3    H213291   0.960   5.480   1.908
 4450TIP3   OH213292   2.174   6.271   2.455
 4450TIP3    H113293   2.132   6.318   2.379
 4450TIP3    H213294   2.269   6.289   2.435
 4451TIP3   OH213295   1.248   4.538   2.981
 4451TIP3    H113296   1.219   4.506   2.893
 4451TIP3    H213297   1.236   4.459   3.037
 4452TIP3   OH213298   0.794   5.765   2.363
 4452TIP3    H113299   0.724   5.787   2.426
 4452TIP3    H213300   0.758   5.802   2.279
 4453TIP3   OH213301   0.948   6.299   3.435
 4453TIP3    H113302   1.035   6.298   3.480
 4453TIP3    H213303   0.927   6.204   3.432
 4454TIP3   OH213304   1.425   6.255   3.485
 4454TIP3    H113305   1.521   6.245   3.483
 4454TIP3    H213306   1.398   6.197   3.410
 4455TIP3   OH213307   1.409   5.835   1.607
 4455TIP3    H113308   1.352   5.765   1.647
 4455TIP3    H213309   1.485   5.780   1.579
 4456TIP3   OH213310   2.059   6.171   3.219
 4456TIP3    H113311   2.058   6.097   3.284
 4456TIP3    H213312   2.144   6.215   3.240
 4457TIP3   OH213313   1.844   5.875   1.521
 4457TIP3    H113314   1.882   5.809   1.582
 4457TIP3    H213315   1.905   5.871   1.445
 4458TIP3   OH213316   1.075   5.703   3.637
 4458TIP3    H113317   1.093   5.607   3.639
 4458TIP3    H213318   0.989   5.706   3.590
 4459TIP3   OH213319   1.054   5.354   1.829
 4459TIP3    H113320   1.105   5.317   1.904
 4459TIP3    H213321   1.124   5.357   1.761
 4460TIP3   OH213322   1.684   5.786   3.409
 4460TIP3    H113323   1.643   5.803   3.322
 4460TIP3    H213324   1.718   5.694   3.399
 4461TIP3   OH213325   1.570   5.554   1.636
 4461TIP3    H113326   1.570   5.565   1.733
 4461TIP3    H213327   1.569   5.456   1.630
 4462TIP3   OH213328   2.178   5.802   3.021
 4462TIP3    H113329   2.253   5.844   2.974
 4462TIP3    H213330   2.106   5.863   2.999
 4463TIP3   OH213331   1.196   5.442   3.617
 4463TIP3    H113332   1.273   5.393   3.583
 4463TIP3    H213333   1.227   5.470   3.705
 4464TIP3   OH213334   1.263   5.258   2.054
 4464TIP3    H113335   1.230   5.218   2.137
 4464TIP3    H213336   1.298   5.181   2.005
 4465TIP3   OH213337   1.530   5.333   3.283
 4465TIP3    H113338   1.452   5.392   3.276
 4465TIP3    H213339   1.578   5.354   3.198
 4466TIP3   OH213340   1.363   5.060   1.883
 4466TIP3    H113341   1.338   5.066   1.789
 4466TIP3    H213342   1.461   5.064   1.878
 4467TIP3   OH213343   2.057   5.725   3.414
 4467TIP3    H113344   2.123   5.685   3.355
 4467TIP3    H213345   2.046   5.655   3.481
 4468TIP3   OH213346   2.183   5.382   1.556
 4468TIP3    H113347   2.162   5.336   1.472
 4468TIP3    H213348   2.150   5.472   1.534
 4469TIP3   OH213349   1.613   5.101   3.415
 4469TIP3    H113350   1.655   5.031   3.363
 4469TIP3    H213351   1.609   5.175   3.352
 4470TIP3   OH213352   1.662   4.889   3.205
 4470TIP3    H113353   1.688   4.935   3.123
 4470TIP3    H213354   1.567   4.873   3.191
 4471TIP3   OH213355   1.665   5.410   3.064
 4471TIP3    H113356   1.761   5.426   3.064
 4471TIP3    H213357   1.628   5.490   3.021
 4472TIP3   OH213358   2.296   5.405   3.499
 4472TIP3    H113359   2.313   5.315   3.470
 4472TIP3    H213360   2.342   5.456   3.430
 4473TIP3   OH213361   2.307   5.659   3.210
 4473TIP3    H113362   2.250   5.710   3.148
 4473TIP3    H213363   2.394   5.672   3.168
 4474TIP3   OH213364   1.527   5.226   3.643
 4474TIP3    H113365   1.463   5.154   3.660
 4474TIP3    H213366   1.560   5.197   3.555
 4475TIP3   OH213367   1.789   4.658   3.286
 4475TIP3    H113368   1.742   4.740   3.257
 4475TIP3    H213369   1.719   4.590   3.272
 4476TIP3   OH213370   2.161   5.083   3.329
 4476TIP3    H113371   2.087   5.148   3.338
 4476TIP3    H213372   2.201   5.080   3.416
 4477TIP3   OH213373   2.411   5.061   3.514
 4477TIP3    H113374   2.405   4.964   3.524
 4477TIP3    H213375   2.395   5.094   3.605
 4478TIP3   OH213376   1.368   5.004   3.698
 4478TIP3    H113377   1.379   4.918   3.653
 4478TIP3    H213378   1.410   4.984   3.784
 4479TIP3   OH213379   1.880   4.667   3.543
 4479TIP3    H113380   1.947   4.597   3.534
 4479TIP3    H213381   1.841   4.665   3.453
 4480TIP3   OH213382   1.951   4.883   3.699
 4480TIP3    H113383   1.928   4.815   3.633
 4480TIP3    H213384   1.874   4.945   3.692
 4481TIP3   OH213385   1.175   6.120   1.801
 4481TIP3    H113386   1.269   6.109   1.777
 4481TIP3    H213387   1.141   6.164   1.722
 4482TIP3   OH213388   0.652   5.500   2.015
 4482TIP3    H113389   0.747   5.521   1.999
 4482TIP3    H213390   0.645   5.413   1.971
 4483TIP3   OH213391   0.563   6.111   2.428
 4483TIP3    H113392   0.499   6.046   2.390
 4483TIP3    H213393   0.610   6.053   2.493
 4484TIP3   OH213394   0.698   5.959   2.615
 4484TIP3    H113395   0.688   5.885   2.677
 4484TIP3    H213396   0.752   6.020   2.669
 4485TIP3   OH213397   2.429   6.360   2.415
 4485TIP3    H113398   2.456   6.390   2.503
 4485TIP3    H213399   2.496   6.401   2.358
 4486TIP3   OH213400   2.459   6.378   2.698
 4486TIP3    H113401   2.413   6.291   2.693
 4486TIP3    H213402   2.533   6.354   2.756
 4487TIP3   OH213403   2.504   6.060   3.268
 4487TIP3    H113404   2.435   6.069   3.336
 4487TIP3    H213405   2.550   6.146   3.276
 4488TIP3   OH213406   2.322   5.568   1.888
 4488TIP3    H113407   2.390   5.633   1.860
 4488TIP3    H213408   2.365   5.529   1.967
 4489TIP3   OH213409   2.448   5.436   2.092
 4489TIP3    H113410   2.382   5.393   2.151
 4489TIP3    H213411   2.513   5.472   2.157
 4490TIP3   OH213412   2.504   5.830   2.523
 4490TIP3    H113413   2.558   5.763   2.477
 4490TIP3    H213414   2.498   5.901   2.456
 4491TIP3   OH213415   2.332   6.130   2.716
 4491TIP3    H113416   2.260   6.168   2.770
 4491TIP3    H213417   2.283   6.081   2.647
 4492TIP3   OH213418   2.385   5.345   1.738
 4492TIP3    H113419   2.313   5.347   1.671
 4492TIP3    H213420   2.358   5.420   1.794
 4493TIP3   OH213421   2.257   5.016   1.690
 4493TIP3    H113422   2.211   5.051   1.613
 4493TIP3    H213423   2.234   4.921   1.683
 4494TIP3   OH213424   2.261   5.293   2.237
 4494TIP3    H113425   2.268   5.197   2.231
 4494TIP3    H213426   2.246   5.307   2.333
 4495TIP3   OH213427   0.886   5.366   2.986
 4495TIP3    H113428   0.884   5.332   2.894
 4495TIP3    H213429   0.983   5.368   3.002
 4496TIP3   OH213430   2.552   5.719   3.097
 4496TIP3    H113431   2.621   5.650   3.086
 4496TIP3    H213432   2.579   5.786   3.032
 4497TIP3   OH213433   2.734   5.520   3.104
 4497TIP3    H113434   2.659   5.471   3.142
 4497TIP3    H213435   2.807   5.456   3.122
 4498TIP3   OH213436   2.200   4.750   1.674
 4498TIP3    H113437   2.273   4.718   1.732
 4498TIP3    H213438   2.125   4.693   1.698
 4499TIP3   OH213439   2.258   5.010   2.130
 4499TIP3    H113440   2.299   4.921   2.146
 4499TIP3    H213441   2.316   5.043   2.059
 4500TIP3   OH213442   2.418   5.179   2.627
 4500TIP3    H113443   2.504   5.205   2.587
 4500TIP3    H213444   2.430   5.217   2.717
 4501TIP3   OH213445   2.489   5.326   2.857
 4501TIP3    H113446   2.412   5.357   2.909
 4501TIP3    H213447   2.520   5.410   2.815
 4502TIP3   OH213448   1.101   5.050   3.660
 4502TIP3    H113449   1.199   5.045   3.661
 4502TIP3    H213450   1.079   4.964   3.700
 4503TIP3   OH213451   2.940   4.917   3.415
 4503TIP3    H113452   3.000   4.855   3.369
 4503TIP3    H213453   2.909   4.973   3.340
 4504TIP3   OH213454   2.367   4.760   2.169
 4504TIP3    H113455   2.414   4.743   2.254
 4504TIP3    H213456   2.306   4.684   2.168
 4505TIP3   OH213457   1.065   4.750   3.007
 4505TIP3    H113458   1.126   4.673   3.006
 4505TIP3    H213459   1.127   4.822   2.987
 4506TIP3   OH213460   0.866   5.020   3.063
 4506TIP3    H113461   0.913   5.009   2.977
 4506TIP3    H213462   0.903   5.103   3.093
 4507TIP3   OH213463   2.812   5.056   3.221
 4507TIP3    H113464   2.727   5.100   3.243
 4507TIP3    H213465   2.778   4.986   3.162
 4508TIP3   OH213466   2.445   4.692   1.804
 4508TIP3    H113467   2.485   4.621   1.750
 4508TIP3    H213468   2.512   4.763   1.800
 4509TIP3   OH213469   0.837   4.526   2.521
 4509TIP3    H113470   0.759   4.524   2.579
 4509TIP3    H213471   0.845   4.620   2.500
 4510TIP3   OH213472   2.010   6.229   2.069
 4510TIP3    H113473   2.063   6.215   1.988
 4510TIP3    H213474   2.065   6.291   2.119
 4511TIP3   OH213475   1.076   4.613   3.384
 4511TIP3    H113476   1.021   4.598   3.462
 4511TIP3    H213477   1.008   4.642   3.319
 4512TIP3   OH213478   1.111   6.035   3.453
 4512TIP3    H113479   1.020   6.006   3.433
 4512TIP3    H213480   1.121   6.009   3.545
 4513TIP3   OH213481   1.292   6.069   3.005
 4513TIP3    H113482   1.245   6.144   2.965
 4513TIP3    H213483   1.378   6.079   2.959
 4514TIP3   OH213484   1.734   6.308   3.145
 4514TIP3    H113485   1.779   6.311   3.232
 4514TIP3    H213486   1.799   6.358   3.090
 4515TIP3   OH213487   1.912   6.460   3.001
 4515TIP3    H113488   1.980   6.409   2.956
 4515TIP3    H213489   1.967   6.517   3.060
 4516TIP3   OH213490   2.709   4.821   3.098
 4516TIP3    H113491   2.618   4.817   3.064
 4516TIP3    H213492   2.738   4.728   3.087
 4517TIP3   OH213493   0.967   6.322   3.026
 4517TIP3    H113494   0.877   6.353   3.003
 4517TIP3    H213495   0.978   6.361   3.113
 4518TIP3   OH213496   1.204   6.301   2.886
 4518TIP3    H113497   1.116   6.312   2.929
 4518TIP3    H213498   1.184   6.331   2.795
 4519TIP3   OH213499   1.628   6.325   2.683
 4519TIP3    H113500   1.559   6.344   2.618
 4519TIP3    H213501   1.641   6.413   2.725
 4520TIP3   OH213502   1.898   6.268   2.738
 4520TIP3    H113503   1.804   6.282   2.715
 4520TIP3    H213504   1.942   6.339   2.690
 4521TIP3   OH213505   2.104   6.456   2.648
 4521TIP3    H113506   2.091   6.540   2.600
 4521TIP3    H213507   2.131   6.396   2.576
 4522TIP3   OH213508   0.878   6.113   2.772
 4522TIP3    H113509   0.905   6.084   2.862
 4522TIP3    H213510   0.950   6.070   2.720
 4523TIP3   OH213511   1.073   5.986   2.631
 4523TIP3    H113512   1.088   5.901   2.679
 4523TIP3    H213513   1.165   6.020   2.626
 4524TIP3   OH213514   1.342   6.079   2.633
 4524TIP3    H113515   1.370   5.986   2.621
 4524TIP3    H213516   1.389   6.098   2.716
 4525TIP3   OH213517   1.914   4.734   2.719
 4525TIP3    H113518   1.872   4.664   2.772
 4525TIP3    H213519   1.988   4.687   2.675
 4526TIP3   OH213520   2.436   4.614   2.621
 4526TIP3    H113521   2.471   4.668   2.547
 4526TIP3    H213522   2.341   4.636   2.618
 4527TIP3   OH213523   2.532   4.715   2.386
 4527TIP3    H113524   2.607   4.664   2.347
 4527TIP3    H213525   2.565   4.807   2.372
 4528TIP3   OH213526   1.164   4.441   2.734
 4528TIP3    H113527   1.071   4.410   2.739
 4528TIP3    H213528   1.211   4.355   2.730
 4529TIP3   OH213529   0.950   4.312   2.382
 4529TIP3    H113530   0.984   4.366   2.309
 4529TIP3    H213531   0.914   4.382   2.442
 4530TIP3   OH213532   1.610   4.474   2.616
 4530TIP3    H113533   1.666   4.524   2.554
 4530TIP3    H213534   1.634   4.513   2.701
 4531TIP3   OH213535   2.152   4.623   2.598
 4531TIP3    H113536   2.151   4.582   2.510
 4531TIP3    H213537   2.141   4.544   2.656
 4532TIP3   OH213538   2.184   4.548   2.162
 4532TIP3    H113539   2.099   4.592   2.179
 4532TIP3    H213540   2.169   4.462   2.207
 4533TIP3   OH213541   0.665   5.881   2.161
 4533TIP3    H113542   0.579   5.850   2.128
 4533TIP3    H213543   0.659   5.975   2.132
 4534TIP3   OH213544   1.066   4.470   2.149
 4534TIP3    H113545   1.118   4.411   2.091
 4534TIP3    H213546   1.136   4.528   2.185
 4535TIP3   OH213547   1.578   4.650   2.243
 4535TIP3    H113548   1.636   4.604   2.305
 4535TIP3    H213549   1.598   4.743   2.269
 4536TIP3   OH213550   1.439   6.071   1.741
 4536TIP3    H113551   1.528   6.092   1.707
 4536TIP3    H213552   1.417   5.994   1.683
 4537TIP3   OH213553   2.159   6.193   1.838
 4537TIP3    H113554   2.151   6.095   1.827
 4537TIP3    H213555   2.114   6.224   1.757
 4538TIP3   OH213556   1.367   4.729   3.629
 4538TIP3    H113557   1.336   4.652   3.680
 4538TIP3    H213558   1.462   4.728   3.653
 4539TIP3   OH213559   1.618   4.724   3.745
 4539TIP3    H113560   1.702   4.706   3.701
 4539TIP3    H213561   1.611   4.649   3.807
 4540TIP3   OH213562   0.734   5.896   1.812
 4540TIP3    H113563   0.735   5.925   1.904
 4540TIP3    H213564   0.823   5.856   1.801
 4541TIP3   OH213565   2.446   4.782   3.531
 4541TIP3    H113566   2.465   4.756   3.624
 4541TIP3    H213567   2.535   4.780   3.491
 4542TIP3   OH213568   2.381   6.337   3.026
 4542TIP3    H113569   2.303   6.306   2.974
 4542TIP3    H213570   2.363   6.433   3.029
 4543TIP3   OH213571   3.651   5.709   1.789
 4543TIP3    H113572   3.620   5.799   1.767
 4543TIP3    H213573   3.576   5.657   1.756
 4544TIP3   OH213574   3.652   5.710   2.174
 4544TIP3    H113575   3.684   5.682   2.262
 4544TIP3    H213576   3.608   5.629   2.142
 4545TIP3   OH213577   2.947   5.601   2.536
 4545TIP3    H113578   2.976   5.532   2.599
 4545TIP3    H213579   3.024   5.659   2.536
 4546TIP3   OH213580   3.897   6.009   1.856
 4546TIP3    H113581   3.877   5.942   1.922
 4546TIP3    H213582   3.924   6.085   1.911
 4547TIP3   OH213583   2.921   6.014   2.259
 4547TIP3    H113584   2.912   5.917   2.260
 4547TIP3    H213585   3.018   6.023   2.256
 4548TIP3   OH213586   2.628   5.217   2.043
 4548TIP3    H113587   2.578   5.299   2.061
 4548TIP3    H213588   2.558   5.162   2.003
 4549TIP3   OH213589   2.685   5.503   2.222
 4549TIP3    H113590   2.735   5.426   2.257
 4549TIP3    H213591   2.745   5.534   2.152
 4550TIP3   OH213592   3.547   6.475   1.874
 4550TIP3    H113593   3.589   6.405   1.820
 4550TIP3    H213594   3.532   6.429   1.957
 4551TIP3   OH213595   3.447   5.936   2.220
 4551TIP3    H113596   3.485   5.859   2.174
 4551TIP3    H213597   3.530   5.981   2.245
 4552TIP3   OH213598   4.461   5.249   2.217
 4552TIP3    H113599   4.489   5.332   2.261
 4552TIP3    H213600   4.485   5.267   2.125
 4553TIP3   OH213601   3.864   5.434   2.251
 4553TIP3    H113602   3.904   5.347   2.269
 4553TIP3    H213603   3.829   5.420   2.160
 4554TIP3   OH213604   3.203   5.095   2.215
 4554TIP3    H113605   3.180   5.167   2.153
 4554TIP3    H213606   3.153   5.021   2.173
 4555TIP3   OH213607   3.894   5.188   1.837
 4555TIP3    H113608   3.966   5.173   1.902
 4555TIP3    H213609   3.945   5.222   1.762
 4556TIP3   OH213610   2.833   5.297   2.325
 4556TIP3    H113611   2.915   5.276   2.373
 4556TIP3    H213612   2.845   5.241   2.245
 4557TIP3   OH213613   3.272   5.495   2.118
 4557TIP3    H113614   3.366   5.470   2.132
 4557TIP3    H213615   3.233   5.411   2.087
 4558TIP3   OH213616   4.537   5.452   2.401
 4558TIP3    H113617   4.454   5.502   2.384
 4558TIP3    H213618   4.582   5.507   2.466
 4559TIP3   OH213619   3.195   5.078   2.652
 4559TIP3    H113620   3.136   5.115   2.584
 4559TIP3    H213621   3.142   5.095   2.733
 4560TIP3   OH213622   3.534   5.925   1.663
 4560TIP3    H113623   3.500   5.912   1.573
 4560TIP3    H213624   3.491   6.010   1.686
 4561TIP3   OH213625   3.302   5.855   2.444
 4561TIP3    H113626   3.240   5.921   2.481
 4561TIP3    H213627   3.344   5.904   2.371
 4562TIP3   OH213628   4.101   5.191   2.013
 4562TIP3    H113629   4.088   5.142   2.095
 4562TIP3    H213630   4.155   5.267   2.042
 4563TIP3   OH213631   3.068   5.193   2.435
 4563TIP3    H113632   3.130   5.266   2.458
 4563TIP3    H213633   3.118   5.153   2.360
 4564TIP3   OH213634   3.130   6.049   2.543
 4564TIP3    H113635   3.104   6.137   2.508
 4564TIP3    H213636   3.053   6.031   2.600
 4565TIP3   OH213637   2.523   5.740   1.780
 4565TIP3    H113638   2.482   5.766   1.696
 4565TIP3    H213639   2.554   5.826   1.815
 4566TIP3   OH213640   3.962   6.253   2.019
 4566TIP3    H113641   3.873   6.245   2.060
 4566TIP3    H213642   3.953   6.340   1.974
 4567TIP3   OH213643   4.249   5.154   2.385
 4567TIP3    H113644   4.162   5.174   2.347
 4567TIP3    H213645   4.311   5.185   2.316
 4568TIP3   OH213646   3.550   4.795   2.368
 4568TIP3    H113647   3.535   4.700   2.386
 4568TIP3    H213648   3.472   4.834   2.414
 4569TIP3   OH213649   3.661   6.304   1.691
 4569TIP3    H113650   3.710   6.220   1.673
 4569TIP3    H213651   3.725   6.368   1.653
 4570TIP3   OH213652   3.802   6.086   1.607
 4570TIP3    H113653   3.784   6.006   1.555
 4570TIP3    H213654   3.840   6.049   1.689
 4571TIP3   OH213655   4.190   6.162   2.368
 4571TIP3    H113656   4.177   6.085   2.308
 4571TIP3    H213657   4.169   6.237   2.307
 4572TIP3   OH213658   3.482   5.560   1.623
 4572TIP3    H113659   3.401   5.613   1.602
 4572TIP3    H213660   3.527   5.558   1.537
 4573TIP3   OH213661   3.439   5.347   1.335
 4573TIP3    H113662   3.507   5.398   1.383
 4573TIP3    H213663   3.496   5.284   1.288
 4574TIP3   OH213664   4.386   5.805   2.215
 4574TIP3    H113665   4.301   5.854   2.217
 4574TIP3    H213666   4.415   5.826   2.123
 4575TIP3   OH213667   3.828   5.643   1.591
 4575TIP3    H113668   3.774   5.668   1.670
 4575TIP3    H213669   3.912   5.618   1.635
 4576TIP3   OH213670   4.058   5.675   2.497
 4576TIP3    H113671   4.059   5.755   2.553
 4576TIP3    H213672   3.969   5.683   2.457
 4577TIP3   OH213673   3.060   5.639   2.010
 4577TIP3    H113674   3.019   5.581   1.943
 4577TIP3    H213675   3.137   5.586   2.040
 4578TIP3   OH213676   3.192   6.056   2.155
 4578TIP3    H113677   3.170   6.015   2.070
 4578TIP3    H213678   3.280   6.019   2.174
 4579TIP3   OH213679   3.199   5.610   2.365
 4579TIP3    H113680   3.230   5.588   2.275
 4579TIP3    H213681   3.240   5.697   2.382
 4580TIP3   OH213682   3.723   6.249   2.143
 4580TIP3    H113683   3.711   6.326   2.201
 4580TIP3    H213684   3.707   6.174   2.204
 4581TIP3   OH213685   3.336   6.167   2.687
 4581TIP3    H113686   3.277   6.228   2.736
 4581TIP3    H213687   3.269   6.114   2.639
 4582TIP3   OH213688   3.667   5.501   1.419
 4582TIP3    H113689   3.727   5.561   1.469
 4582TIP3    H213690   3.693   5.523   1.326
 4583TIP3   OH213691   3.090   5.724   2.791
 4583TIP3    H113692   3.096   5.811   2.835
 4583TIP3    H213693   2.995   5.703   2.806
 4584TIP3   OH213694   3.414   6.179   1.695
 4584TIP3    H113695   3.496   6.232   1.704
 4584TIP3    H213696   3.354   6.240   1.651
 4585TIP3   OH213697   3.129   6.333   2.776
 4585TIP3    H113698   3.092   6.332   2.686
 4585TIP3    H213699   3.050   6.313   2.831
 4586TIP3   OH213700   4.185   4.740   1.469
 4586TIP3    H113701   4.103   4.761   1.519
 4586TIP3    H213702   4.198   4.822   1.418
 4587TIP3   OH213703   2.928   5.483   1.814
 4587TIP3    H113704   2.859   5.527   1.759
 4587TIP3    H213705   2.889   5.396   1.827
 4588TIP3   OH213706   3.981   6.109   1.015
 4588TIP3    H113707   3.986   6.205   0.995
 4588TIP3    H213708   4.067   6.079   0.978
 4589TIP3   OH213709   2.708   5.867   2.722
 4589TIP3    H113710   2.641   5.844   2.655
 4589TIP3    H213711   2.745   5.779   2.746
 4590TIP3   OH213712   2.563   6.062   2.350
 4590TIP3    H113713   2.659   6.053   2.345
 4590TIP3    H213714   2.554   6.137   2.410
 4591TIP3   OH213715   3.530   6.297   2.544
 4591TIP3    H113716   3.529   6.390   2.578
 4591TIP3    H213717   3.460   6.256   2.599
 4592TIP3   OH213718   3.295   6.424   1.498
 4592TIP3    H113719   3.249   6.404   1.414
 4592TIP3    H213720   3.260   6.512   1.521
 4593TIP3   OH213721   2.732   6.274   1.882
 4593TIP3    H113722   2.778   6.265   1.969
 4593TIP3    H213723   2.680   6.191   1.880
 4594TIP3   OH213724   3.494   6.330   1.138
 4594TIP3    H113725   3.550   6.257   1.100
 4594TIP3    H213726   3.532   6.338   1.228
 4595TIP3   OH213727   3.548   6.378   1.408
 4595TIP3    H113728   3.459   6.386   1.448
 4595TIP3    H213729   3.595   6.329   1.477
 4596TIP3   OH213730   2.914   6.049   2.708
 4596TIP3    H113731   2.963   6.034   2.792
 4596TIP3    H213732   2.839   5.986   2.717
 4597TIP3   OH213733   3.312   4.874   2.497
 4597TIP3    H113734   3.223   4.842   2.468
 4597TIP3    H213735   3.285   4.954   2.545
 4598TIP3   OH213736   3.843   4.986   2.690
 4598TIP3    H113737   3.912   4.959   2.754
 4598TIP3    H213738   3.760   4.965   2.738
 4599TIP3   OH213739   4.145   5.453   2.651
 4599TIP3    H113740   4.066   5.433   2.707
 4599TIP3    H213741   4.107   5.522   2.593
 4600TIP3   OH213742   3.744   5.543   1.163
 4600TIP3    H113743   3.709   5.522   1.075
 4600TIP3    H213744   3.827   5.588   1.138
 4601TIP3   OH213745   3.457   4.920   1.466
 4601TIP3    H113746   3.423   4.918   1.558
 4601TIP3    H213747   3.417   4.838   1.432
 4602TIP3   OH213748   3.246   5.388   2.514
 4602TIP3    H113749   3.194   5.408   2.595
 4602TIP3    H213750   3.229   5.470   2.462
 4603TIP3   OH213751   3.127   5.276   2.027
 4603TIP3    H113752   3.035   5.249   2.046
 4603TIP3    H213753   3.139   5.235   1.939
 4604TIP3   OH213754   3.618   5.361   1.758
 4604TIP3    H113755   3.566   5.432   1.714
 4604TIP3    H213756   3.673   5.328   1.684
 4605TIP3   OH213757   3.794   5.635   2.837
 4605TIP3    H113758   3.770   5.565   2.902
 4605TIP3    H213759   3.887   5.651   2.861
 4606TIP3   OH213760   3.776   5.388   1.993
 4606TIP3    H113761   3.713   5.417   1.924
 4606TIP3    H213762   3.810   5.308   1.949
 4607TIP3   OH213763   3.064   5.416   2.722
 4607TIP3    H113764   3.086   5.480   2.791
 4607TIP3    H213765   3.050   5.335   2.773
 4608TIP3   OH213766   3.114   4.896   1.432
 4608TIP3    H113767   3.104   4.894   1.529
 4608TIP3    H213768   3.035   4.948   1.407
 4609TIP3   OH213769   2.656   4.940   2.302
 4609TIP3    H113770   2.731   4.971   2.356
 4609TIP3    H213771   2.698   4.905   2.222
 4610TIP3   OH213772   2.623   4.919   1.821
 4610TIP3    H113773   2.668   4.958   1.743
 4610TIP3    H213774   2.562   4.992   1.843
 4611TIP3   OH213775   3.782   5.633   2.413
 4611TIP3    H113776   3.818   5.562   2.355
 4611TIP3    H213777   3.753   5.580   2.490
 4612TIP3   OH213778   3.460   5.095   2.089
 4612TIP3    H113779   3.377   5.094   2.140
 4612TIP3    H213780   3.527   5.092   2.159
 4613TIP3   OH213781   2.890   5.155   2.095
 4613TIP3    H113782   2.795   5.162   2.068
 4613TIP3    H213783   2.912   5.062   2.074
 4614TIP3   OH213784   3.156   5.148   1.786
 4614TIP3    H113785   3.249   5.164   1.764
 4614TIP3    H213786   3.108   5.171   1.703
 4615TIP3   OH213787   3.951   5.171   2.293
 4615TIP3    H113788   3.920   5.184   2.385
 4615TIP3    H213789   3.882   5.112   2.258
 4616TIP3   OH213790   3.003   5.184   1.563
 4616TIP3    H113791   2.932   5.138   1.515
 4616TIP3    H213792   3.055   5.220   1.488
 4617TIP3   OH213793   4.122   6.862   2.519
 4617TIP3    H113794   4.118   6.891   2.426
 4617TIP3    H213795   4.186   6.924   2.557
 4618TIP3   OH213796   3.076   5.973   2.931
 4618TIP3    H113797   3.155   6.004   2.980
 4618TIP3    H213798   3.011   5.971   3.004
 4619TIP3   OH213799   3.537   5.427   2.188
 4619TIP3    H113800   3.609   5.384   2.139
 4619TIP3    H213801   3.542   5.384   2.275
 4620TIP3   OH213802   3.058   4.911   2.069
 4620TIP3    H113803   3.022   4.834   2.118
 4620TIP3    H213804   3.103   4.869   1.995
 4621TIP3   OH213805   3.514   5.326   2.473
 4621TIP3    H113806   3.423   5.359   2.488
 4621TIP3    H213807   3.569   5.389   2.525
 4622TIP3   OH213808   3.250   5.712   1.570
 4622TIP3    H113809   3.178   5.647   1.559
 4622TIP3    H213810   3.232   5.746   1.661
 4623TIP3   OH213811   4.151   5.946   2.199
 4623TIP3    H113812   4.174   5.998   2.118
 4623TIP3    H213813   4.065   5.906   2.173
 4624TIP3   OH213814   3.709   5.022   1.439
 4624TIP3    H113815   3.612   5.004   1.445
 4624TIP3    H213816   3.716   5.117   1.460
 4625TIP3   OH213817   3.656   6.036   2.568
 4625TIP3    H113818   3.676   6.011   2.659
 4625TIP3    H213819   3.609   6.120   2.578
 4626TIP3   OH213820   3.776   5.274   1.539
 4626TIP3    H113821   3.873   5.280   1.552
 4626TIP3    H213822   3.757   5.353   1.485
 4627TIP3   OH213823   2.945   5.738   2.246
 4627TIP3    H113824   2.984   5.707   2.161
 4627TIP3    H213825   2.983   5.676   2.309
 4628TIP3   OH213826   3.397   5.862   1.394
 4628TIP3    H113827   3.349   5.948   1.399
 4628TIP3    H213828   3.343   5.806   1.454
 4629TIP3   OH213829   2.827   5.654   2.860
 4629TIP3    H113830   2.843   5.640   2.955
 4629TIP3    H213831   2.756   5.589   2.843
 4630TIP3   OH213832   3.551   5.771   2.879
 4630TIP3    H113833   3.488   5.710   2.837
 4630TIP3    H213834   3.637   5.736   2.848
 4631TIP3   OH213835   3.809   6.304   2.458
 4631TIP3    H113836   3.713   6.293   2.475
 4631TIP3    H213837   3.837   6.347   2.542
 4632TIP3   OH213838   4.220   5.366   1.372
 4632TIP3    H113839   4.158   5.321   1.310
 4632TIP3    H213840   4.216   5.455   1.331
 4633TIP3   OH213841   4.441   6.210   2.455
 4633TIP3    H113842   4.344   6.216   2.444
 4633TIP3    H213843   4.466   6.189   2.362
 4634TIP3   OH213844   3.924   6.181   1.279
 4634TIP3    H113845   3.900   6.103   1.330
 4634TIP3    H213846   3.943   6.143   1.190
 4635TIP3   OH213847   3.916   5.811   2.116
 4635TIP3    H113848   3.823   5.787   2.130
 4635TIP3    H213849   3.949   5.731   2.071
 4636TIP3   OH213850   3.045   6.040   1.873
 4636TIP3    H113851   3.043   6.121   1.818
 4636TIP3    H213852   2.952   6.021   1.883
 4637TIP3   OH213853   2.609   5.343   1.577
 4637TIP3    H113854   2.655   5.427   1.599
 4637TIP3    H213855   2.532   5.347   1.638
 4638TIP3   OH213856   3.178   5.804   1.814
 4638TIP3    H113857   3.146   5.894   1.834
 4638TIP3    H213858   3.143   5.753   1.890
 4639TIP3   OH213859   3.315   6.381   2.341
 4639TIP3    H113860   3.357   6.453   2.291
 4639TIP3    H213861   3.390   6.345   2.391
 4640TIP3   OH213862   2.962   6.279   1.723
 4640TIP3    H113863   2.877   6.286   1.770
 4640TIP3    H213864   2.994   6.372   1.727
 4641TIP3   OH213865   3.701   6.018   2.300
 4641TIP3    H113866   3.691   6.017   2.398
 4641TIP3    H213867   3.778   5.961   2.288
 4642TIP3   OH213868   3.677   5.908   1.188
 4642TIP3    H113869   3.731   5.885   1.267
 4642TIP3    H213870   3.589   5.883   1.218
 4643TIP3   OH213871   3.958   6.549   2.347
 4643TIP3    H113872   3.885   6.485   2.356
 4643TIP3    H213873   3.924   6.609   2.277
 4644TIP3   OH213874   4.010   6.383   1.007
 4644TIP3    H113875   4.047   6.445   0.943
 4644TIP3    H213876   3.934   6.435   1.038
 4645TIP3   OH213877   3.033   5.161   2.865
 4645TIP3    H113878   2.937   5.167   2.878
 4645TIP3    H213879   3.060   5.105   2.940
 4646TIP3   OH213880   3.838   5.851   1.406
 4646TIP3    H113881   3.829   5.779   1.472
 4646TIP3    H213882   3.934   5.844   1.387
 4647TIP3   OH213883   2.752   6.244   2.499
 4647TIP3    H113884   2.805   6.170   2.534
 4647TIP3    H213885   2.778   6.315   2.560
 4648TIP3   OH213886   3.040   5.891   1.183
 4648TIP3    H113887   3.055   5.798   1.155
 4648TIP3    H213888   3.020   5.879   1.278
 4649TIP3   OH213889   2.985   5.896   1.455
 4649TIP3    H113890   3.059   5.867   1.510
 4649TIP3    H213891   2.990   5.993   1.463
 4650TIP3   OH213892   2.721   5.587   1.659
 4650TIP3    H113893   2.654   5.632   1.715
 4650TIP3    H213894   2.735   5.656   1.591
 4651TIP3   OH213895   3.885   5.220   2.557
 4651TIP3    H113896   3.936   5.253   2.633
 4651TIP3    H213897   3.851   5.136   2.595
 4652TIP3   OH213898   3.755   4.973   1.718
 4652TIP3    H113899   3.740   4.995   1.624
 4652TIP3    H213900   3.794   5.056   1.752
 4653TIP3   OH213901   3.254   6.092   1.404
 4653TIP3    H113902   3.167   6.118   1.439
 4653TIP3    H213903   3.269   6.162   1.339
 4654TIP3   OH213904   3.441   5.156   1.818
 4654TIP3    H113905   3.504   5.229   1.800
 4654TIP3    H213906   3.446   5.149   1.916
 4655TIP3   OH213907   3.711   5.473   2.622
 4655TIP3    H113908   3.731   5.530   2.700
 4655TIP3    H213909   3.764   5.394   2.641
 4656TIP3   OH213910   3.584   4.880   1.920
 4656TIP3    H113911   3.572   4.959   1.975
 4656TIP3    H213912   3.647   4.914   1.851
 4657TIP3   OH213913   2.999   6.168   1.472
 4657TIP3    H113914   2.969   6.239   1.410
 4657TIP3    H213915   2.982   6.211   1.559
 4658TIP3   OH213916   3.097   4.882   1.709
 4658TIP3    H113917   3.094   4.972   1.746
 4658TIP3    H213918   3.194   4.864   1.716
 4659TIP3   OH213919   4.002   5.568   1.994
 4659TIP3    H113920   3.924   5.509   2.004
 4659TIP3    H213921   4.071   5.519   2.043
 4660TIP3   OH213922   2.716   5.795   1.463
 4660TIP3    H113923   2.787   5.861   1.472
 4660TIP3    H213924   2.759   5.736   1.396
 4661TIP3   OH213925   2.658   5.072   1.596
 4661TIP3    H113926   2.658   5.170   1.594
 4661TIP3    H213927   2.576   5.051   1.552
 4662TIP3   OH213928   3.973   6.526   1.942
 4662TIP3    H113929   3.930   6.578   1.871
 4662TIP3    H213930   4.067   6.544   1.923
 4663TIP3   OH213931   3.049   4.792   2.467
 4663TIP3    H113932   3.016   4.759   2.381
 4663TIP3    H213933   3.037   4.714   2.525
 4664TIP3   OH213934   2.585   6.014   1.848
 4664TIP3    H113935   2.519   6.042   1.913
 4664TIP3    H213936   2.551   6.056   1.766
 4665TIP3   OH213937   2.746   6.559   2.923
 4665TIP3    H113938   2.832   6.560   2.971
 4665TIP3    H213939   2.728   6.464   2.921
 4666TIP3   OH213940   3.222   6.523   2.957
 4666TIP3    H113941   3.313   6.497   2.977
 4666TIP3    H213942   3.198   6.457   2.889
 4667TIP3   OH213943   3.205   6.093   1.093
 4667TIP3    H113944   3.151   6.020   1.131
 4667TIP3    H213945   3.281   6.043   1.059
 4668TIP3   OH213946   3.870   6.422   2.697
 4668TIP3    H113947   3.857   6.354   2.767
 4668TIP3    H213948   3.946   6.472   2.731
 4669TIP3   OH213949   3.636   6.133   1.015
 4669TIP3    H113950   3.690   6.072   1.067
 4669TIP3    H213951   3.683   6.135   0.928
 4670TIP3   OH213952   2.873   5.958   3.119
 4670TIP3    H113953   2.890   5.862   3.126
 4670TIP3    H213954   2.785   5.960   3.076
 4671TIP3   OH213955   2.851   5.608   1.317
 4671TIP3    H113956   2.907   5.576   1.390
 4671TIP3    H213957   2.918   5.613   1.245
 4672TIP3   OH213958   3.486   6.048   2.893
 4672TIP3    H113959   3.438   6.065   2.809
 4672TIP3    H213960   3.513   5.954   2.885
 4673TIP3   OH213961   3.361   5.808   1.124
 4673TIP3    H113962   3.365   5.821   1.221
 4673TIP3    H213963   3.363   5.710   1.119
 4674TIP3   OH213964   3.972   6.055   2.504
 4674TIP3    H113965   4.045   6.101   2.460
 4674TIP3    H213966   3.899   6.117   2.491
 4675TIP3   OH213967   2.994   5.697   3.106
 4675TIP3    H113968   3.069   5.640   3.085
 4675TIP3    H213969   3.020   5.731   3.194
 4676TIP3   OH213970   3.056   5.516   1.536
 4676TIP3    H113971   3.030   5.475   1.620
 4676TIP3    H213972   3.094   5.440   1.486
 4677TIP3   OH213973   3.330   5.581   2.767
 4677TIP3    H113974   3.250   5.638   2.769
 4677TIP3    H213975   3.377   5.615   2.688
 4678TIP3   OH213976   3.161   5.310   1.377
 4678TIP3    H113977   3.135   5.316   1.283
 4678TIP3    H213978   3.258   5.315   1.369
 4679TIP3   OH213979   3.842   5.981   2.898
 4679TIP3    H113980   3.926   5.954   2.858
 4679TIP3    H213981   3.835   5.919   2.973
 4680TIP3   OH213982   3.979   5.633   1.044
 4680TIP3    H113983   3.960   5.591   0.958
 4680TIP3    H213984   3.950   5.725   1.022
 4681TIP3   OH213985   3.455   5.369   2.888
 4681TIP3    H113986   3.451   5.290   2.832
 4681TIP3    H213987   3.409   5.436   2.834
 4682TIP3   OH213988   3.454   5.154   2.697
 4682TIP3    H113989   3.479   5.196   2.613
 4682TIP3    H213990   3.360   5.131   2.681
 4683TIP3   OH213991   3.479   5.689   2.571
 4683TIP3    H113992   3.563   5.702   2.524
 4683TIP3    H213993   3.421   5.755   2.527
 4684TIP3   OH213994   4.057   5.654   2.955
 4684TIP3    H113995   4.101   5.588   3.012
 4684TIP3    H213996   4.125   5.723   2.947
 4685TIP3   OH213997   4.105   5.905   2.684
 4685TIP3    H113998   4.043   5.958   2.629
 4685TIP3    H213999   4.190   5.928   2.641
 4686TIP3   OH214000   3.331   5.475   3.122
 4686TIP3    H114001   3.261   5.408   3.139
 4686TIP3    H214002   3.364   5.448   3.034
 4687TIP3   OH214003   3.585   4.917   2.768
 4687TIP3    H114004   3.535   4.998   2.745
 4687TIP3    H214005   3.515   4.848   2.757
 4688TIP3   OH214006   3.715   5.417   2.979
 4688TIP3    H114007   3.700   5.405   3.075
 4688TIP3    H214008   3.625   5.396   2.947
 4689TIP3   OH214009   3.947   5.355   2.819
 4689TIP3    H114010   3.871   5.367   2.880
 4689TIP3    H214011   4.019   5.333   2.882
 4690TIP3   OH214012   4.192   5.313   2.954
 4690TIP3    H114013   4.201   5.221   2.987
 4690TIP3    H214014   4.185   5.363   3.038
 4691TIP3   OH214015   3.169   5.256   3.177
 4691TIP3    H114016   3.173   5.164   3.145
 4691TIP3    H214017   3.205   5.245   3.267
 4692TIP3   OH214018   3.680   4.928   3.026
 4692TIP3    H114019   3.746   4.856   3.020
 4692TIP3    H214020   3.639   4.922   2.937
 4693TIP3   OH214021   3.748   5.144   3.182
 4693TIP3    H114022   3.724   5.072   3.120
 4693TIP3    H214023   3.669   5.202   3.178
 4694TIP3   OH214024   2.969   6.373   1.285
 4694TIP3    H114025   3.064   6.364   1.265
 4694TIP3    H214026   2.940   6.422   1.206
 4695TIP3   OH214027   2.447   5.753   1.497
 4695TIP3    H114028   2.542   5.774   1.484
 4695TIP3    H214029   2.441   5.664   1.457
 4696TIP3   OH214030   2.362   6.364   1.916
 4696TIP3    H114031   2.296   6.302   1.878
 4696TIP3    H214032   2.407   6.305   1.981
 4697TIP3   OH214033   2.497   6.212   2.102
 4697TIP3    H114034   2.486   6.140   2.167
 4697TIP3    H214035   2.549   6.275   2.155
 4698TIP3   OH214036   4.226   6.623   1.903
 4698TIP3    H114037   4.267   6.688   1.961
 4698TIP3    H214038   4.276   6.638   1.821
 4699TIP3   OH214039   4.322   6.344   2.773
 4699TIP3    H114040   4.241   6.335   2.828
 4699TIP3    H214041   4.375   6.406   2.828
 4700TIP3   OH214042   4.114   5.823   1.376
 4700TIP3    H114043   4.179   5.888   1.344
 4700TIP3    H214044   4.162   5.785   1.453
 4701TIP3   OH214045   4.247   5.691   1.579
 4701TIP3    H114046   4.178   5.650   1.636
 4701TIP3    H214047   4.307   5.731   1.645
 4702TIP3   OH214048   4.304   6.087   2.013
 4702TIP3    H114049   4.352   6.019   1.963
 4702TIP3    H214050   4.293   6.158   1.947
 4703TIP3   OH214051   4.129   6.374   2.212
 4703TIP3    H114052   4.063   6.433   2.251
 4703TIP3    H214053   4.081   6.334   2.136
 4704TIP3   OH214054   4.181   5.600   1.225
 4704TIP3    H114055   4.110   5.602   1.156
 4704TIP3    H214056   4.153   5.678   1.278
 4705TIP3   OH214057   4.053   5.272   1.181
 4705TIP3    H114058   4.011   5.313   1.104
 4705TIP3    H214059   4.028   5.178   1.167
 4706TIP3   OH214060   4.057   5.551   1.723
 4706TIP3    H114061   4.064   5.454   1.716
 4706TIP3    H214062   4.042   5.563   1.820
 4707TIP3   OH214063   2.682   5.625   2.472
 4707TIP3    H114064   2.680   5.590   2.380
 4707TIP3    H214065   2.780   5.624   2.488
 4708TIP3   OH214066   4.345   5.977   2.579
 4708TIP3    H114067   4.424   5.920   2.587
 4708TIP3    H214068   4.373   6.046   2.517
 4709TIP3   OH214069   4.514   5.771   2.636
 4709TIP3    H114070   4.453   5.718   2.584
 4709TIP3    H214071   4.595   5.716   2.635
 4710TIP3   OH214072   3.997   5.005   1.162
 4710TIP3    H114073   4.068   4.974   1.220
 4710TIP3    H214074   3.921   4.949   1.184
 4711TIP3   OH214075   4.055   5.268   1.618
 4711TIP3    H114076   4.096   5.179   1.632
 4711TIP3    H214077   4.112   5.301   1.546
 4712TIP3   OH214078   4.216   5.440   2.118
 4712TIP3    H114079   4.302   5.466   2.077
 4712TIP3    H214080   4.230   5.472   2.209
 4713TIP3   OH214081   4.301   5.596   2.375
 4713TIP3    H114082   4.213   5.624   2.407
 4713TIP3    H214083   4.324   5.669   2.313
 4714TIP3   OH214084   2.902   5.309   3.147
 4714TIP3    H114085   3.000   5.303   3.152
 4714TIP3    H214086   2.878   5.224   3.187
 4715TIP3   OH214087   4.717   5.172   2.857
 4715TIP3    H114088   4.776   5.094   2.851
 4715TIP3    H214089   4.781   5.242   2.841
 4716TIP3   OH214090   4.163   5.017   1.657
 4716TIP3    H114091   4.210   4.999   1.741
 4716TIP3    H214092   4.101   4.941   1.654
 4717TIP3   OH214093   2.864   5.001   2.473
 4717TIP3    H114094   2.926   4.926   2.485
 4717TIP3    H214095   2.926   5.076   2.469
 4718TIP3   OH214096   2.664   5.273   2.549
 4718TIP3    H114097   2.714   5.271   2.465
 4718TIP3    H214098   2.693   5.358   2.586
 4719TIP3   OH214099   4.494   5.328   2.712
 4719TIP3    H114100   4.543   5.297   2.791
 4719TIP3    H214101   4.534   5.268   2.645
 4720TIP3   OH214102   4.242   4.948   1.293
 4720TIP3    H114103   4.281   4.879   1.236
 4720TIP3    H214104   4.307   5.020   1.285
 4721TIP3   OH214105   2.650   4.777   2.051
 4721TIP3    H114106   2.557   4.773   2.080
 4721TIP3    H214107   2.644   4.836   1.972
 4722TIP3   OH214108   3.815   6.487   1.561
 4722TIP3    H114109   3.851   6.461   1.473
 4722TIP3    H214110   3.881   6.552   1.587
 4723TIP3   OH214111   2.869   4.854   2.864
 4723TIP3    H114112   2.818   4.853   2.947
 4723TIP3    H214113   2.803   4.896   2.804
 4724TIP3   OH214114   2.909   6.291   2.941
 4724TIP3    H114115   2.816   6.261   2.932
 4724TIP3    H214116   2.928   6.269   3.033
 4725TIP3   OH214117   3.087   6.320   2.489
 4725TIP3    H114118   3.040   6.396   2.451
 4725TIP3    H214119   3.173   6.333   2.444
 4726TIP3   OH214120   3.531   6.564   2.624
 4726TIP3    H114121   3.571   6.561   2.713
 4726TIP3    H214122   3.597   6.617   2.575
 4727TIP3   OH214123   3.711   6.720   2.484
 4727TIP3    H114124   3.780   6.660   2.452
 4727TIP3    H214125   3.761   6.775   2.547
 4728TIP3   OH214126   4.501   5.067   2.585
 4728TIP3    H114127   4.413   5.046   2.547
 4728TIP3    H214128   4.544   4.978   2.576
 4729TIP3   OH214129   2.764   6.578   2.512
 4729TIP3    H114130   2.673   6.610   2.492
 4729TIP3    H214131   2.777   6.618   2.599
 4730TIP3   OH214132   3.001   6.557   2.373
 4730TIP3    H114133   2.914   6.568   2.417
 4730TIP3    H214134   2.979   6.587   2.282
 4731TIP3   OH214135   3.424   6.579   2.170
 4731TIP3    H114136   3.353   6.596   2.106
 4731TIP3    H214137   3.433   6.667   2.213
 4732TIP3   OH214138   3.693   6.525   2.221
 4732TIP3    H114139   3.597   6.532   2.204
 4732TIP3    H214140   3.726   6.601   2.172
 4733TIP3   OH214141   3.914   6.718   2.123
 4733TIP3    H114142   3.882   6.777   2.054
 4733TIP3    H214143   3.941   6.641   2.068
 4734TIP3   OH214144   2.675   6.369   2.258
 4734TIP3    H114145   2.701   6.341   2.348
 4734TIP3    H214146   2.747   6.326   2.207
 4735TIP3   OH214147   2.870   6.243   2.117
 4735TIP3    H114148   2.884   6.158   2.165
 4735TIP3    H214149   2.962   6.277   2.113
 4736TIP3   OH214150   3.139   6.335   2.120
 4736TIP3    H114151   3.166   6.242   2.109
 4736TIP3    H214152   3.184   6.355   2.204
 4737TIP3   OH214153   3.714   4.992   2.212
 4737TIP3    H114154   3.668   4.921   2.260
 4737TIP3    H214155   3.783   4.944   2.163
 4738TIP3   OH214156   4.231   4.877   2.113
 4738TIP3    H114157   4.267   4.926   2.035
 4738TIP3    H214158   4.135   4.891   2.102
 4739TIP3   OH214159   4.328   4.970   1.875
 4739TIP3    H114160   4.401   4.918   1.835
 4739TIP3    H214161   4.361   5.061   1.860
 4740TIP3   OH214162   2.959   4.699   2.220
 4740TIP3    H114163   2.866   4.666   2.223
 4740TIP3    H214164   3.008   4.614   2.217
 4741TIP3   OH214165   2.747   4.571   1.871
 4741TIP3    H114166   2.776   4.629   1.798
 4741TIP3    H214167   2.719   4.637   1.938
 4742TIP3   OH214168   3.405   4.731   2.101
 4742TIP3    H114169   3.463   4.780   2.041
 4742TIP3    H214170   3.428   4.770   2.187
 4743TIP3   OH214171   3.950   4.880   2.085
 4743TIP3    H114172   3.946   4.840   1.997
 4743TIP3    H214173   3.938   4.801   2.142
 4744TIP3   OH214174   3.980   4.804   1.649
 4744TIP3    H114175   3.894   4.848   1.664
 4744TIP3    H214176   3.965   4.718   1.694
 4745TIP3   OH214177   2.462   6.144   1.646
 4745TIP3    H114178   2.377   6.110   1.613
 4745TIP3    H214179   2.452   6.238   1.624
 4746TIP3   OH214180   2.865   4.730   1.631
 4746TIP3    H114181   2.913   4.666   1.575
 4746TIP3    H214182   2.939   4.783   1.668
 4747TIP3   OH214183   3.374   4.906   1.731
 4747TIP3    H114184   3.433   4.859   1.791
 4747TIP3    H214185   3.396   4.999   1.756
 4748TIP3   OH214186   3.236   6.327   1.232
 4748TIP3    H114187   3.324   6.350   1.195
 4748TIP3    H214188   3.213   6.252   1.171
 4749TIP3   OH214189   3.950   6.447   1.325
 4749TIP3    H114190   3.946   6.349   1.310
 4749TIP3    H214191   3.910   6.479   1.242
 4750TIP3   OH214192   3.167   4.980   3.111
 4750TIP3    H114193   3.131   4.912   3.170
 4750TIP3    H214194   3.261   4.981   3.140
 4751TIP3   OH214195   3.416   4.976   3.231
 4751TIP3    H114196   3.502   4.951   3.193
 4751TIP3    H214197   3.404   4.906   3.298
 4752TIP3   OH214198   2.539   6.165   1.286
 4752TIP3    H114199   2.543   6.183   1.381
 4752TIP3    H214200   2.626   6.122   1.270
 4753TIP3   OH214201   4.240   5.047   3.019
 4753TIP3    H114202   4.257   5.015   3.111
 4753TIP3    H214203   4.329   5.038   2.979
 4754TIP3   OH214204   4.241   6.613   2.478
 4754TIP3    H114205   4.165   6.560   2.447
 4754TIP3    H214206   4.193   6.696   2.500
 4755TIP3   OH214207   5.445   5.972   1.273
 4755TIP3    H114208   5.411   6.061   1.249
 4755TIP3    H214209   5.371   5.917   1.242
 4756TIP3   OH214210   5.454   5.962   1.658
 4756TIP3    H114211   5.481   5.937   1.749
 4756TIP3    H214212   5.405   5.883   1.630
 4757TIP3   OH214213   4.745   5.860   2.026
 4757TIP3    H114214   4.776   5.791   2.088
 4757TIP3    H214215   4.826   5.909   2.009
 4758TIP3   OH214216   5.697   6.268   1.342
 4758TIP3    H114217   5.669   6.203   1.408
 4758TIP3    H214218   5.719   6.345   1.397
 4759TIP3   OH214219   4.718   6.272   1.752
 4759TIP3    H114220   4.709   6.175   1.751
 4759TIP3    H214221   4.814   6.281   1.740
 4760TIP3   OH214222   4.423   5.472   1.532
 4760TIP3    H114223   4.373   5.555   1.547
 4760TIP3    H214224   4.354   5.419   1.487
 4761TIP3   OH214225   4.483   5.762   1.712
 4761TIP3    H114226   4.533   5.683   1.743
 4761TIP3    H214227   4.533   5.788   1.633
 4762TIP3   OH214228   5.355   6.726   1.364
 4762TIP3    H114229   5.392   6.644   1.325
 4762TIP3    H214230   5.328   6.698   1.453
 4763TIP3   OH214231   5.242   6.192   1.707
 4763TIP3    H114232   5.281   6.117   1.659
 4763TIP3    H214233   5.324   6.239   1.731
 4764TIP3   OH214234   6.251   5.520   1.692
 4764TIP3    H114235   6.293   5.589   1.748
 4764TIP3    H214236   6.309   5.517   1.614
 4765TIP3   OH214237   5.672   5.696   1.729
 4765TIP3    H114238   5.698   5.605   1.754
 4765TIP3    H214239   5.629   5.681   1.643
 4766TIP3   OH214240   4.999   5.352   1.702
 4766TIP3    H114241   4.976   5.423   1.639
 4766TIP3    H214242   4.950   5.277   1.660
 4767TIP3   OH214243   5.693   5.448   1.323
 4767TIP3    H114244   5.767   5.430   1.385
 4767TIP3    H214245   5.742   5.480   1.246
 4768TIP3   OH214246   4.628   5.551   1.813
 4768TIP3    H114247   4.711   5.531   1.859
 4768TIP3    H214248   4.639   5.497   1.732
 4769TIP3   OH214249   5.067   5.751   1.609
 4769TIP3    H114250   5.161   5.726   1.619
 4769TIP3    H214251   5.028   5.668   1.574
 4770TIP3   OH214252   6.328   5.720   1.866
 4770TIP3    H114253   6.240   5.764   1.859
 4770TIP3    H214254   6.342   5.727   1.961
 4771TIP3   OH214255   4.993   5.336   2.138
 4771TIP3    H114256   4.933   5.370   2.068
 4771TIP3    H214257   4.939   5.353   2.218
 4772TIP3   OH214258   5.341   6.190   1.140
 4772TIP3    H114259   5.295   6.168   1.057
 4772TIP3    H214260   5.291   6.269   1.168
 4773TIP3   OH214261   5.097   6.112   1.933
 4773TIP3    H114262   5.034   6.179   1.968
 4773TIP3    H214263   5.139   6.162   1.859
 4774TIP3   OH214264   5.900   5.450   1.502
 4774TIP3    H114265   5.880   5.385   1.571
 4774TIP3    H214266   5.953   5.515   1.550
 4775TIP3   OH214267   4.864   5.449   1.921
 4775TIP3    H114268   4.926   5.522   1.943
 4775TIP3    H214269   4.913   5.408   1.845
 4776TIP3   OH214270   4.917   6.305   2.030
 4776TIP3    H114271   4.895   6.390   1.988
 4776TIP3    H214272   4.839   6.294   2.088
 4777TIP3   OH214273   4.317   5.988   1.276
 4777TIP3    H114274   4.283   5.998   1.184
 4777TIP3    H214275   4.347   6.078   1.296
 4778TIP3   OH214276   5.752   6.507   1.508
 4778TIP3    H114277   5.666   6.508   1.557
 4778TIP3    H214278   5.747   6.594   1.462
 4779TIP3   OH214279   6.051   5.420   1.872
 4779TIP3    H114280   5.961   5.436   1.840
 4779TIP3    H214281   6.107   5.446   1.797
 4780TIP3   OH214282   5.345   5.052   1.853
 4780TIP3    H114283   5.332   4.957   1.872
 4780TIP3    H214284   5.267   5.090   1.900
 4781TIP3   OH214285   5.462   6.558   1.173
 4781TIP3    H114286   5.513   6.474   1.157
 4781TIP3    H214287   5.528   6.623   1.142
 4782TIP3   OH214288   5.607   6.341   1.089
 4782TIP3    H114289   5.554   6.266   1.058
 4782TIP3    H214290   5.643   6.306   1.173
 4783TIP3   OH214291   5.983   6.424   1.851
 4783TIP3    H114292   5.971   6.345   1.794
 4783TIP3    H214293   5.966   6.497   1.789
 4784TIP3   OH214294   5.280   5.818   1.111
 4784TIP3    H114295   5.197   5.867   1.093
 4784TIP3    H214296   5.318   5.811   1.021
 4785TIP3   OH214297   5.238   5.602   0.821
 4785TIP3    H114298   5.308   5.652   0.868
 4785TIP3    H214299   5.294   5.540   0.771
 4786TIP3   OH214300   6.177   6.053   1.687
 4786TIP3    H114301   6.097   6.109   1.696
 4786TIP3    H214302   6.212   6.088   1.602
 4787TIP3   OH214303   5.625   5.902   1.085
 4787TIP3    H114304   5.561   5.935   1.152
 4787TIP3    H214305   5.683   5.850   1.141
 4788TIP3   OH214306   5.859   5.939   1.993
 4788TIP3    H114307   5.856   6.026   2.037
 4788TIP3    H214308   5.771   5.938   1.950
 4789TIP3   OH214309   4.855   5.897   1.497
 4789TIP3    H114310   4.812   5.840   1.430
 4789TIP3    H214311   4.931   5.842   1.525
 4790TIP3   OH214312   4.983   6.308   1.644
 4790TIP3    H114313   4.963   6.272   1.556
 4790TIP3    H214314   5.072   6.274   1.662
 4791TIP3   OH214315   4.993   5.867   1.854
 4791TIP3    H114316   5.023   5.845   1.764
 4791TIP3    H214317   5.035   5.955   1.869
 4792TIP3   OH214318   5.522   6.511   1.650
 4792TIP3    H114319   5.483   6.566   1.722
 4792TIP3    H214320   5.507   6.423   1.688
 4793TIP3   OH214321   5.120   6.391   2.199
 4793TIP3    H114322   5.078   6.476   2.221
 4793TIP3    H214323   5.055   6.355   2.136
 4794TIP3   OH214324   5.466   5.758   0.903
 4794TIP3    H114325   5.524   5.820   0.951
 4794TIP3    H214326   5.485   5.780   0.809
 4795TIP3   OH214327   4.890   5.980   2.282
 4795TIP3    H114328   4.894   6.068   2.323
 4795TIP3    H214329   4.793   5.963   2.286
 4796TIP3   OH214330   5.211   6.431   1.187
 4796TIP3    H114331   5.286   6.492   1.193
 4796TIP3    H214332   5.146   6.480   1.134
 4797TIP3   OH214333   4.926   6.599   2.252
 4797TIP3    H114334   4.903   6.600   2.157
 4797TIP3    H214335   4.845   6.566   2.293
 4798TIP3   OH214336   5.984   4.999   0.958
 4798TIP3    H114337   5.900   5.020   1.004
 4798TIP3    H214338   5.996   5.078   0.901
 4799TIP3   OH214339   4.721   5.742   1.304
 4799TIP3    H114340   4.656   5.789   1.247
 4799TIP3    H214341   4.681   5.654   1.308
 4800TIP3   OH214342   4.509   6.131   2.203
 4800TIP3    H114343   4.438   6.110   2.139
 4800TIP3    H214344   4.543   6.042   2.226
 4801TIP3   OH214345   4.359   6.316   1.840
 4801TIP3    H114346   4.454   6.309   1.827
 4801TIP3    H214347   4.352   6.392   1.899
 4802TIP3   OH214348   6.223   6.770   1.899
 4802TIP3    H114349   6.222   6.674   1.913
 4802TIP3    H214350   6.139   6.795   1.945
 4803TIP3   OH214351   5.090   6.685   0.985
 4803TIP3    H114352   5.040   6.658   0.906
 4803TIP3    H214353   5.051   6.772   1.006
 4804TIP3   OH214354   4.528   6.532   1.369
 4804TIP3    H114355   4.572   6.519   1.455
 4804TIP3    H214356   4.479   6.448   1.359
 4805TIP3   OH214357   5.303   6.549   0.669
 4805TIP3    H114358   5.381   6.493   0.662
 4805TIP3    H214359   5.314   6.580   0.761
 4806TIP3   OH214360   5.345   6.629   0.924
 4806TIP3    H114361   5.252   6.645   0.954
 4806TIP3    H214362   5.383   6.587   1.003
 4807TIP3   OH214363   6.110   5.898   2.172
 4807TIP3    H114364   6.027   5.909   2.123
 4807TIP3    H214365   6.129   5.803   2.160
 4808TIP3   OH214366   4.707   6.319   2.215
 4808TIP3    H114367   4.765   6.281   2.284
 4808TIP3    H214368   4.636   6.252   2.209
 4809TIP3   OH214369   5.107   5.130   1.983
 4809TIP3    H114370   5.019   5.098   1.954
 4809TIP3    H214371   5.080   5.210   2.031
 4810TIP3   OH214372   5.644   5.246   2.178
 4810TIP3    H114373   5.714   5.215   2.240
 4810TIP3    H214374   5.562   5.223   2.226
 4811TIP3   OH214375   5.879   5.676   2.097
 4811TIP3    H114376   5.830   5.671   2.182
 4811TIP3    H214377   5.852   5.762   2.061
 4812TIP3   OH214378   5.525   5.807   0.640
 4812TIP3    H114379   5.517   5.762   0.556
 4812TIP3    H214380   5.614   5.846   0.629
 4813TIP3   OH214381   5.254   5.176   0.954
 4813TIP3    H114382   5.217   5.173   1.045
 4813TIP3    H214383   5.212   5.095   0.918
 4814TIP3   OH214384   5.042   5.645   2.001
 4814TIP3    H114385   4.990   5.665   2.082
 4814TIP3    H214386   5.026   5.726   1.948
 4815TIP3   OH214387   4.924   5.532   1.515
 4815TIP3    H114388   4.831   5.507   1.532
 4815TIP3    H214389   4.936   5.492   1.426
 4816TIP3   OH214390   5.416   5.620   1.246
 4816TIP3    H114391   5.363   5.688   1.200
 4816TIP3    H214392   5.470   5.584   1.172
 4817TIP3   OH214393   5.588   5.893   2.327
 4817TIP3    H114394   5.563   5.821   2.390
 4817TIP3    H214395   5.682   5.902   2.348
 4818TIP3   OH214396   5.576   5.650   1.475
 4818TIP3    H114397   5.507   5.670   1.408
 4818TIP3    H214398   5.610   5.568   1.433
 4819TIP3   OH214399   4.860   5.674   2.210
 4819TIP3    H114400   4.896   5.736   2.275
 4819TIP3    H214401   4.851   5.592   2.262
 4820TIP3   OH214402   4.912   5.153   0.920
 4820TIP3    H114403   4.898   5.152   1.017
 4820TIP3    H214404   4.833   5.204   0.892
 4821TIP3   OH214405   4.452   5.195   1.794
 4821TIP3    H114406   4.529   5.227   1.844
 4821TIP3    H214407   4.489   5.165   1.709
 4822TIP3   OH214408   4.419   5.177   1.309
 4822TIP3    H114409   4.463   5.215   1.230
 4822TIP3    H214410   4.357   5.250   1.329
 4823TIP3   OH214411   5.589   5.889   1.902
 4823TIP3    H114412   5.621   5.818   1.842
 4823TIP3    H214413   5.555   5.836   1.977
 4824TIP3   OH214414   5.257   5.356   1.577
 4824TIP3    H114415   5.173   5.352   1.627
 4824TIP3    H214416   5.323   5.346   1.647
 4825TIP3   OH214417   4.685   5.410   1.584
 4825TIP3    H114418   4.591   5.418   1.555
 4825TIP3    H214419   4.708   5.319   1.559
 4826TIP3   OH214420   4.952   5.406   1.274
 4826TIP3    H114421   5.045   5.421   1.248
 4826TIP3    H214422   4.903   5.427   1.192
 4827TIP3   OH214423   5.741   5.431   1.778
 4827TIP3    H114424   5.710   5.442   1.870
 4827TIP3    H214425   5.675   5.368   1.744
 4828TIP3   OH214426   4.800   5.438   1.052
 4828TIP3    H114427   4.729   5.393   1.002
 4828TIP3    H214428   4.852   5.476   0.978
 4829TIP3   OH214429   5.916   7.115   1.997
 4829TIP3    H114430   5.910   7.145   1.905
 4829TIP3    H214431   5.992   7.166   2.030
 4830TIP3   OH214432   4.869   6.228   2.418
 4830TIP3    H114433   4.949   6.261   2.465
 4830TIP3    H214434   4.808   6.219   2.495
 4831TIP3   OH214435   5.335   5.686   1.678
 4831TIP3    H114436   5.399   5.635   1.627
 4831TIP3    H214437   5.335   5.640   1.764
 4832TIP3   OH214438   4.856   5.168   1.556
 4832TIP3    H114439   4.819   5.090   1.603
 4832TIP3    H214440   4.897   5.127   1.478
 4833TIP3   OH214441   5.311   5.584   1.956
 4833TIP3    H114442   5.219   5.615   1.975
 4833TIP3    H214443   5.366   5.644   2.011
 4834TIP3   OH214444   5.052   5.967   1.062
 4834TIP3    H114445   4.978   5.904   1.046
 4834TIP3    H214446   5.028   6.002   1.151
 4835TIP3   OH214447   5.948   6.204   1.685
 4835TIP3    H114448   5.970   6.257   1.605
 4835TIP3    H214449   5.861   6.164   1.661
 4836TIP3   OH214450   5.505   5.275   0.933
 4836TIP3    H114451   5.408   5.257   0.934
 4836TIP3    H214452   5.510   5.372   0.943
 4837TIP3   OH214453   5.468   6.314   2.044
 4837TIP3    H114454   5.452   6.291   2.136
 4837TIP3    H214455   5.429   6.403   2.038
 4838TIP3   OH214456   5.574   5.533   1.031
 4838TIP3    H114457   5.671   5.533   1.034
 4838TIP3    H214458   5.554   5.606   0.970
 4839TIP3   OH214459   4.743   5.997   1.732
 4839TIP3    H114460   4.777   5.968   1.645
 4839TIP3    H214461   4.780   5.930   1.792
 4840TIP3   OH214462   5.195   6.120   0.885
 4840TIP3    H114463   5.148   6.206   0.890
 4840TIP3    H214464   5.138   6.064   0.941
 4841TIP3   OH214465   4.623   5.917   2.346
 4841TIP3    H114466   4.652   5.898   2.437
 4841TIP3    H214467   4.554   5.852   2.328
 4842TIP3   OH214468   5.345   6.025   2.366
 4842TIP3    H114469   5.285   5.968   2.317
 4842TIP3    H214470   5.432   5.991   2.337
 4843TIP3   OH214471   6.008   5.612   0.856
 4843TIP3    H114472   5.948   5.574   0.788
 4843TIP3    H214473   6.010   5.704   0.822
 4844TIP3   OH214474   6.235   6.480   1.940
 4844TIP3    H114475   6.137   6.473   1.932
 4844TIP3    H214476   6.261   6.450   1.850
 4845TIP3   OH214477   5.742   6.428   0.755
 4845TIP3    H114478   5.703   6.378   0.828
 4845TIP3    H214479   5.689   6.398   0.680
 4846TIP3   OH214480   5.715   6.065   1.603
 4846TIP3    H114481   5.620   6.043   1.618
 4846TIP3    H214482   5.744   5.988   1.552
 4847TIP3   OH214483   4.840   6.297   1.361
 4847TIP3    H114484   4.837   6.378   1.306
 4847TIP3    H214485   4.747   6.273   1.363
 4848TIP3   OH214486   4.407   5.599   1.064
 4848TIP3    H114487   4.448   5.687   1.078
 4848TIP3    H214488   4.328   5.607   1.121
 4849TIP3   OH214489   4.978   6.063   1.305
 4849TIP3    H114490   4.942   6.152   1.322
 4849TIP3    H214491   4.938   6.011   1.377
 4850TIP3   OH214492   5.107   6.634   1.827
 4850TIP3    H114493   5.148   6.711   1.785
 4850TIP3    H214494   5.188   6.602   1.872
 4851TIP3   OH214495   4.761   6.533   1.214
 4851TIP3    H114496   4.674   6.543   1.256
 4851TIP3    H214497   4.792   6.627   1.214
 4852TIP3   OH214498   5.501   6.266   1.779
 4852TIP3    H114499   5.487   6.281   1.875
 4852TIP3    H214500   5.578   6.207   1.780
 4853TIP3   OH214501   5.458   6.162   0.674
 4853TIP3    H114502   5.512   6.135   0.751
 4853TIP3    H214503   5.369   6.140   0.703
 4854TIP3   OH214504   5.744   6.785   1.837
 4854TIP3    H114505   5.673   6.731   1.876
 4854TIP3    H214506   5.692   6.862   1.809
 4855TIP3   OH214507   4.832   5.416   2.353
 4855TIP3    H114508   4.735   5.403   2.356
 4855TIP3    H214509   4.862   5.356   2.422
 4856TIP3   OH214510   5.631   6.099   0.888
 4856TIP3    H114511   5.625   6.034   0.960
 4856TIP3    H214512   5.727   6.096   0.869
 4857TIP3   OH214513   4.553   6.506   1.984
 4857TIP3    H114514   4.589   6.425   2.021
 4857TIP3    H214515   4.609   6.573   2.026
 4858TIP3   OH214516   4.832   6.153   0.665
 4858TIP3    H114517   4.851   6.063   0.634
 4858TIP3    H214518   4.818   6.138   0.761
 4859TIP3   OH214519   4.796   6.153   0.935
 4859TIP3    H114520   4.853   6.127   1.008
 4859TIP3    H214521   4.794   6.251   0.944
 4860TIP3   OH214522   4.520   5.847   1.146
 4860TIP3    H114523   4.451   5.888   1.202
 4860TIP3    H214524   4.527   5.916   1.077
 4861TIP3   OH214525   5.671   5.481   2.038
 4861TIP3    H114526   5.753   5.516   2.077
 4861TIP3    H214527   5.656   5.400   2.091
 4862TIP3   OH214528   5.549   5.231   1.207
 4862TIP3    H114529   5.534   5.249   1.111
 4862TIP3    H214530   5.589   5.315   1.237
 4863TIP3   OH214531   5.059   6.354   0.898
 4863TIP3    H114532   4.969   6.380   0.928
 4863TIP3    H214533   5.059   6.392   0.809
 4864TIP3   OH214534   5.239   5.413   1.305
 4864TIP3    H114535   5.302   5.486   1.288
 4864TIP3    H214536   5.243   5.406   1.403
 4865TIP3   OH214537   5.508   5.729   2.108
 4865TIP3    H114538   5.529   5.780   2.189
 4865TIP3    H214539   5.560   5.648   2.121
 4866TIP3   OH214540   5.380   5.136   1.407
 4866TIP3    H114541   5.369   5.216   1.461
 4866TIP3    H214542   5.442   5.169   1.337
 4867TIP3   OH214543   4.800   6.426   0.959
 4867TIP3    H114544   4.763   6.491   0.895
 4867TIP3    H214545   4.778   6.468   1.044
 4868TIP3   OH214546   4.892   5.138   1.197
 4868TIP3    H114547   4.889   5.229   1.232
 4868TIP3    H214548   4.989   5.122   1.203
 4869TIP3   OH214549   6.145   5.633   2.082
 4869TIP3    H114550   6.047   5.636   2.095
 4869TIP3    H214551   6.149   5.564   2.015
 4870TIP3   OH214552   5.816   5.815   1.458
 4870TIP3    H114553   5.726   5.777   1.456
 4870TIP3    H214554   5.853   5.771   1.536
 4871TIP3   OH214555   4.520   6.052   0.957
 4871TIP3    H114556   4.575   6.132   0.946
 4871TIP3    H214557   4.554   5.998   0.883
 4872TIP3   OH214558   4.453   5.329   1.085
 4872TIP3    H114559   4.455   5.427   1.082
 4872TIP3    H214560   4.375   5.310   1.033
 4873TIP3   OH214561   5.768   6.768   1.415
 4873TIP3    H114562   5.725   6.837   1.362
 4873TIP3    H214563   5.861   6.795   1.408
 4874TIP3   OH214564   4.843   5.050   1.955
 4874TIP3    H114565   4.812   5.016   1.868
 4874TIP3    H214566   4.832   4.971   2.013
 4875TIP3   OH214567   4.388   6.283   1.336
 4875TIP3    H114568   4.312   6.300   1.393
 4875TIP3    H214569   4.355   6.317   1.250
 4876TIP3   OH214570   5.022   6.771   2.452
 4876TIP3    H114571   5.116   6.751   2.460
 4876TIP3    H214572   4.997   6.714   2.376
 4877TIP3   OH214573   5.019   6.340   0.601
 4877TIP3    H114574   4.938   6.286   0.616
 4877TIP3    H214575   5.082   6.267   0.585
 4878TIP3   OH214576   5.660   6.704   2.194
 4878TIP3    H114577   5.650   6.623   2.247
 4878TIP3    H214578   5.741   6.743   2.230
 4879TIP3   OH214579   4.671   6.193   2.603
 4879TIP3    H114580   4.678   6.097   2.613
 4879TIP3    H214581   4.582   6.203   2.563
 4880TIP3   OH214582   4.650   5.867   0.799
 4880TIP3    H114583   4.707   5.838   0.872
 4880TIP3    H214584   4.716   5.880   0.729
 4881TIP3   OH214585   5.288   6.304   2.388
 4881TIP3    H114586   5.233   6.324   2.308
 4881TIP3    H214587   5.312   6.210   2.374
 4882TIP3   OH214588   5.147   6.076   0.610
 4882TIP3    H114589   5.154   6.081   0.707
 4882TIP3    H214590   5.143   5.979   0.597
 4883TIP3   OH214591   5.773   6.295   1.996
 4883TIP3    H114592   5.833   6.358   1.951
 4883TIP3    H214593   5.688   6.342   1.995
 4884TIP3   OH214594   4.786   5.927   2.596
 4884TIP3    H114595   4.872   5.895   2.568
 4884TIP3    H214596   4.809   5.973   2.680
 4885TIP3   OH214597   4.861   5.772   1.027
 4885TIP3    H114598   4.824   5.729   1.106
 4885TIP3    H214599   4.893   5.695   0.975
 4886TIP3   OH214600   5.122   5.833   2.252
 4886TIP3    H114601   5.046   5.895   2.256
 4886TIP3    H214602   5.172   5.869   2.174
 4887TIP3   OH214603   4.957   5.565   0.868
 4887TIP3    H114604   4.928   5.569   0.774
 4887TIP3    H214605   5.055   5.570   0.856
 4888TIP3   OH214606   5.644   6.236   2.388
 4888TIP3    H114607   5.714   6.201   2.332
 4888TIP3    H214608   5.639   6.170   2.459
 4889TIP3   OH214609   5.778   5.859   0.536
 4889TIP3    H114610   5.798   5.795   0.466
 4889TIP3    H214611   5.775   5.944   0.486
 4890TIP3   OH214612   5.246   5.624   2.377
 4890TIP3    H114613   5.248   5.546   2.319
 4890TIP3    H214614   5.202   5.691   2.320
 4891TIP3   OH214615   5.250   5.414   2.185
 4891TIP3    H114616   5.278   5.451   2.099
 4891TIP3    H214617   5.157   5.388   2.167
 4892TIP3   OH214618   5.274   5.948   2.062
 4892TIP3    H114619   5.357   5.958   2.014
 4892TIP3    H214620   5.216   6.013   2.016
 4893TIP3   OH214621   5.871   5.911   2.451
 4893TIP3    H114622   5.908   5.821   2.448
 4893TIP3    H214623   5.933   5.960   2.395
 4894TIP3   OH214624   5.902   6.169   2.195
 4894TIP3    H114625   5.845   6.218   2.132
 4894TIP3    H214626   5.989   6.186   2.154
 4895TIP3   OH214627   5.124   5.732   2.609
 4895TIP3    H114628   5.054   5.666   2.624
 4895TIP3    H214629   5.159   5.704   2.522
 4896TIP3   OH214630   5.382   5.174   2.254
 4896TIP3    H114631   5.332   5.255   2.232
 4896TIP3    H214632   5.314   5.105   2.243
 4897TIP3   OH214633   5.505   5.677   2.470
 4897TIP3    H114634   5.491   5.660   2.565
 4897TIP3    H214635   5.416   5.653   2.437
 4898TIP3   OH214636   5.749   5.636   2.330
 4898TIP3    H114637   5.672   5.629   2.389
 4898TIP3    H214638   5.821   5.600   2.386
 4899TIP3   OH214639   5.974   5.574   2.482
 4899TIP3    H114640   5.988   5.477   2.491
 4899TIP3    H214641   5.976   5.603   2.575
 4900TIP3   OH214642   4.953   5.515   2.667
 4900TIP3    H114643   4.967   5.424   2.633
 4900TIP3    H214644   4.998   5.508   2.754
 4901TIP3   OH214645   5.476   5.186   2.513
 4901TIP3    H114646   5.543   5.115   2.509
 4901TIP3    H214647   5.437   5.178   2.423
 4902TIP3   OH214648   5.545   5.403   2.665
 4902TIP3    H114649   5.523   5.329   2.604
 4902TIP3    H214650   5.464   5.457   2.661
 4903TIP3   OH214651   4.765   6.637   0.777
 4903TIP3    H114652   4.858   6.630   0.749
 4903TIP3    H214653   4.726   6.673   0.696
 4904TIP3   OH214654   4.250   5.989   1.011
 4904TIP3    H114655   4.324   6.033   0.966
 4904TIP3    H214656   4.235   5.914   0.948
 4905TIP3   OH214657   4.150   6.623   1.406
 4905TIP3    H114658   4.090   6.559   1.362
 4905TIP3    H214659   4.199   6.563   1.467
 4906TIP3   OH214660   4.287   6.473   1.591
 4906TIP3    H114661   4.280   6.396   1.650
 4906TIP3    H214662   4.350   6.528   1.641
 4907TIP3   OH214663   6.020   6.872   1.386
 4907TIP3    H114664   6.042   6.901   1.477
 4907TIP3    H214665   6.087   6.917   1.333
 4908TIP3   OH214666   6.048   6.892   1.668
 4908TIP3    H114667   6.002   6.805   1.665
 4908TIP3    H214668   6.121   6.870   1.727
 4909TIP3   OH214669   6.098   6.569   2.241
 4909TIP3    H114670   6.024   6.577   2.304
 4909TIP3    H214671   6.139   6.658   2.247
 4910TIP3   OH214672   5.917   6.078   0.875
 4910TIP3    H114673   5.989   6.137   0.845
 4910TIP3    H214674   5.937   6.067   0.968
 4911TIP3   OH214675   6.098   6.343   1.498
 4911TIP3    H114676   6.151   6.279   1.447
 4911TIP3    H214677   6.088   6.416   1.434
 4912TIP3   OH214678   5.926   6.640   1.686
 4912TIP3    H114679   5.854   6.686   1.736
 4912TIP3    H214680   5.874   6.593   1.617
 4913TIP3   OH214681   5.980   5.856   0.721
 4913TIP3    H114682   5.904   5.840   0.659
 4913TIP3    H214683   5.946   5.933   0.770
 4914TIP3   OH214684   5.849   5.541   0.651
 4914TIP3    H114685   5.823   5.559   0.559
 4914TIP3    H214686   5.814   5.450   0.662
 4915TIP3   OH214687   4.479   5.873   1.963
 4915TIP3    H114688   4.476   5.843   1.870
 4915TIP3    H214689   4.577   5.879   1.977
 4916TIP3   OH214690   6.143   6.230   2.072
 4916TIP3    H114691   6.215   6.164   2.060
 4916TIP3    H214692   6.166   6.298   2.007
 4917TIP3   OH214693   6.327   6.032   2.080
 4917TIP3    H114694   6.252   5.983   2.120
 4917TIP3    H214695   6.399   5.968   2.097
 4918TIP3   OH214696   5.775   5.284   0.685
 4918TIP3    H114697   5.857   5.233   0.698
 4918TIP3    H214698   5.706   5.216   0.686
 4919TIP3   OH214699   5.854   5.522   1.095
 4919TIP3    H114700   5.893   5.433   1.111
 4919TIP3    H214701   5.912   5.552   1.022
 4920TIP3   OH214702   6.025   5.699   1.592
 4920TIP3    H114703   6.122   5.702   1.604
 4920TIP3    H214704   6.001   5.724   1.683
 4921TIP3   OH214705   6.073   5.839   1.827
 4921TIP3    H114706   6.000   5.872   1.883
 4921TIP3    H214707   6.108   5.923   1.789
 4922TIP3   OH214708   4.686   5.560   2.616
 4922TIP3    H114709   4.784   5.560   2.624
 4922TIP3    H214710   4.664   5.486   2.674
 4923TIP3   OH214711   6.544   5.439   2.390
 4923TIP3    H114712   6.598   5.369   2.348
 4923TIP3    H214713   6.506   5.485   2.312
 4924TIP3   OH214714   5.954   5.273   1.149
 4924TIP3    H114715   6.002   5.251   1.232
 4924TIP3    H214716   5.893   5.197   1.142
 4925TIP3   OH214717   4.660   5.259   1.969
 4925TIP3    H114718   4.721   5.183   1.974
 4925TIP3    H214719   4.723   5.332   1.956
 4926TIP3   OH214720   4.463   5.533   2.041
 4926TIP3    H114721   4.509   5.520   1.956
 4926TIP3    H214722   4.488   5.624   2.061
 4927TIP3   OH214723   6.404   5.567   2.188
 4927TIP3    H114724   6.317   5.601   2.216
 4927TIP3    H214725   6.376   5.488   2.139
 4928TIP3   OH214726   6.048   5.201   0.782
 4928TIP3    H114727   6.074   5.127   0.721
 4928TIP3    H214728   6.109   5.271   0.754
 4929TIP3   OH214729   4.446   5.039   1.540
 4929TIP3    H114730   4.352   5.031   1.565
 4929TIP3    H214731   4.441   5.095   1.460
 4930TIP3   OH214732   5.624   6.748   1.054
 4930TIP3    H114733   5.643   6.718   0.963
 4930TIP3    H214734   5.688   6.820   1.061
 4931TIP3   OH214735   4.667   5.126   2.358
 4931TIP3    H114736   4.611   5.108   2.435
 4931TIP3    H214737   4.600   5.154   2.293
 4932TIP3   OH214738   4.599   6.529   2.445
 4932TIP3    H114739   4.644   6.455   2.401
 4932TIP3    H214740   4.652   6.532   2.529
 4933TIP3   OH214741   4.882   6.580   1.978
 4933TIP3    H114742   4.839   6.658   1.936
 4933TIP3    H214743   4.969   6.586   1.933
 4934TIP3   OH214744   5.515   6.978   1.942
 4934TIP3    H114745   5.503   6.888   1.974
 4934TIP3    H214746   5.562   7.022   2.016
 4935TIP3   OH214747   6.306   5.324   2.070
 4935TIP3    H114748   6.213   5.306   2.048
 4935TIP3    H214749   6.344   5.233   2.063
 4936TIP3   OH214750   4.566   6.846   2.008
 4936TIP3    H114751   4.472   6.863   1.988
 4936TIP3    H214752   4.580   6.909   2.081
 4937TIP3   OH214753   4.795   6.811   1.859
 4937TIP3    H114754   4.709   6.826   1.905
 4937TIP3    H214755   4.774   6.843   1.769
 4938TIP3   OH214756   5.256   6.892   1.588
 4938TIP3    H114757   5.160   6.886   1.575
 4938TIP3    H214758   5.263   6.940   1.672
 4939TIP3   OH214759   4.468   6.624   1.745
 4939TIP3    H114760   4.495   6.597   1.836
 4939TIP3    H214761   4.542   6.584   1.694
 4940TIP3   OH214762   4.665   6.500   1.606
 4940TIP3    H114763   4.681   6.415   1.653
 4940TIP3    H214764   4.756   6.535   1.599
 4941TIP3   OH214765   4.935   6.592   1.608
 4941TIP3    H114766   4.962   6.499   1.594
 4941TIP3    H214767   4.982   6.609   1.692
 4942TIP3   OH214768   5.509   5.248   1.697
 4942TIP3    H114769   5.464   5.177   1.747
 4942TIP3    H214770   5.577   5.199   1.648
 4943TIP3   OH214771   6.030   5.138   1.598
 4943TIP3    H114772   6.064   5.185   1.519
 4943TIP3    H214773   5.933   5.144   1.586
 4944TIP3   OH214774   6.128   5.240   1.362
 4944TIP3    H114775   6.199   5.184   1.322
 4944TIP3    H214776   6.161   5.330   1.343
 4945TIP3   OH214777   4.755   4.956   1.709
 4945TIP3    H114778   4.662   4.923   1.710
 4945TIP3    H214779   4.803   4.870   1.704
 4946TIP3   OH214780   4.547   4.828   1.359
 4946TIP3    H114781   4.574   4.884   1.284
 4946TIP3    H214782   4.516   4.894   1.423
 4947TIP3   OH214783   5.202   4.988   1.589
 4947TIP3    H114784   5.259   5.036   1.527
 4947TIP3    H214785   5.228   5.025   1.674
 4948TIP3   OH214786   5.749   5.137   1.569
 4948TIP3    H114787   5.744   5.094   1.483
 4948TIP3    H214788   5.736   5.059   1.629
 4949TIP3   OH214789   5.776   5.061   1.137
 4949TIP3    H114790   5.688   5.102   1.148
 4949TIP3    H214791   5.762   4.974   1.180
 4950TIP3   OH214792   4.256   6.403   1.135
 4950TIP3    H114793   4.173   6.363   1.104
 4950TIP3    H214794   4.245   6.493   1.099
 4951TIP3   OH214795   4.661   4.983   1.121
 4951TIP3    H114796   4.708   4.922   1.062
 4951TIP3    H214797   4.734   5.038   1.155
 4952TIP3   OH214798   5.169   5.163   1.219
 4952TIP3    H114799   5.229   5.115   1.278
 4952TIP3    H214800   5.192   5.256   1.243
 4953TIP3   OH214801   5.029   6.590   0.712
 4953TIP3    H114802   5.123   6.600   0.687
 4953TIP3    H214803   5.007   6.511   0.659
 4954TIP3   OH214804   5.751   6.701   0.807
 4954TIP3    H114805   5.742   6.607   0.783
 4954TIP3    H214806   5.741   6.745   0.720
 4955TIP3   OH214807   4.957   5.236   2.612
 4955TIP3    H114808   4.932   5.155   2.660
 4955TIP3    H214809   5.053   5.238   2.633
 4956TIP3   OH214810   5.212   5.234   2.716
 4956TIP3    H114811   5.298   5.208   2.678
 4956TIP3    H214812   5.201   5.165   2.786
 4957TIP3   OH214813   4.367   6.464   0.807
 4957TIP3    H114814   4.317   6.420   0.876
 4957TIP3    H214815   4.419   6.390   0.770
 4958TIP3   OH214816   6.032   5.304   2.512
 4958TIP3    H114817   6.058   5.264   2.598
 4958TIP3    H214818   6.118   5.307   2.465
 4959TIP3   OH214819   5.976   6.846   1.999
 4959TIP3    H114820   5.898   6.810   1.952
 4959TIP3    H214821   5.953   6.941   2.003
 4960TIP3   OH214822   7.225   6.211   1.151
 4960TIP3    H114823   7.271   6.199   1.237
 4960TIP3    H214824   7.186   6.123   1.139
 4961TIP3   OH214825   6.538   6.112   1.516
 4961TIP3    H114826   6.570   6.045   1.580
 4961TIP3    H214827   6.616   6.168   1.508
 4962TIP3   OH214828   6.514   6.522   1.233
 4962TIP3    H114829   6.505   6.425   1.237
 4962TIP3    H214830   6.611   6.531   1.228
 4963TIP3   OH214831   6.277   6.004   1.199
 4963TIP3    H114832   6.339   5.931   1.223
 4963TIP3    H214833   6.325   6.049   1.129
 4964TIP3   OH214834   7.040   6.446   1.193
 4964TIP3    H114835   7.084   6.368   1.154
 4964TIP3    H214836   7.120   6.497   1.216
 4965TIP3   OH214837   8.040   5.780   1.193
 4965TIP3    H114838   8.082   5.850   1.244
 4965TIP3    H214839   8.077   5.793   1.105
 4966TIP3   OH214840   7.452   5.950   1.236
 4966TIP3    H114841   7.496   5.865   1.254
 4966TIP3    H214842   7.422   5.936   1.144
 4967TIP3   OH214843   6.795   5.609   1.191
 4967TIP3    H114844   6.773   5.678   1.126
 4967TIP3    H214845   6.750   5.532   1.150
 4968TIP3   OH214846   7.459   5.701   0.844
 4968TIP3    H114847   7.543   5.685   0.893
 4968TIP3    H214848   7.494   5.716   0.754
 4969TIP3   OH214849   6.437   5.799   1.287
 4969TIP3    H114850   6.521   5.781   1.336
 4969TIP3    H214851   6.449   5.741   1.209
 4970TIP3   OH214852   6.863   6.005   1.095
 4970TIP3    H114853   6.957   5.982   1.108
 4970TIP3    H214854   6.826   5.920   1.062
 4971TIP3   OH214855   6.790   5.590   1.626
 4971TIP3    H114856   6.729   5.627   1.560
 4971TIP3    H214857   6.738   5.606   1.708
 4972TIP3   OH214858   6.893   6.367   1.417
 4972TIP3    H114859   6.834   6.436   1.453
 4972TIP3    H214860   6.938   6.416   1.344
 4973TIP3   OH214861   7.696   5.704   0.985
 4973TIP3    H114862   7.683   5.657   1.069
 4973TIP3    H214863   7.740   5.786   1.015
 4974TIP3   OH214864   6.663   5.704   1.410
 4974TIP3    H114865   6.723   5.778   1.435
 4974TIP3    H214866   6.716   5.664   1.338
 4975TIP3   OH214867   6.723   6.563   1.518
 4975TIP3    H114868   6.699   6.650   1.480
 4975TIP3    H214869   6.644   6.548   1.573
 4976TIP3   OH214870   6.114   6.241   0.762
 4976TIP3    H114871   6.036   6.272   0.714
 4976TIP3    H214872   6.147   6.326   0.799
 4977TIP3   OH214873   7.850   5.659   1.357
 4977TIP3    H114874   7.763   5.696   1.335
 4977TIP3    H214875   7.908   5.698   1.289
 4978TIP3   OH214876   7.138   5.306   1.338
 4978TIP3    H114877   7.129   5.212   1.362
 4978TIP3    H214878   7.062   5.344   1.387
 4979TIP3   OH214879   8.010   6.297   1.216
 4979TIP3    H114880   7.917   6.329   1.223
 4979TIP3    H214881   8.032   6.335   1.129
 4980TIP3   OH214882   7.654   6.191   1.485
 4980TIP3    H114883   7.651   6.272   1.538
 4980TIP3    H214884   7.570   6.199   1.436
 4981TIP3   OH214885   6.657   6.156   0.989
 4981TIP3    H114886   6.611   6.095   0.927
 4981TIP3    H214887   6.733   6.102   1.018
 4982TIP3   OH214888   6.780   6.560   1.143
 4982TIP3    H114889   6.759   6.536   1.052
 4982TIP3    H214890   6.872   6.525   1.154
 4983TIP3   OH214891   6.781   6.128   1.336
 4983TIP3    H114892   6.819   6.103   1.250
 4983TIP3    H214893   6.829   6.212   1.357
 4984TIP3   OH214894   7.276   6.745   1.099
 4984TIP3    H114895   7.300   6.828   1.145
 4984TIP3    H214896   7.290   6.676   1.165
 4985TIP3   OH214897   6.925   6.683   1.666
 4985TIP3    H114898   6.863   6.744   1.711
 4985TIP3    H214899   6.861   6.629   1.614
 4986TIP3   OH214900   6.681   6.238   1.765
 4986TIP3    H114901   6.686   6.326   1.807
 4986TIP3    H214902   6.587   6.217   1.777
 4987TIP3   OH214903   6.720   6.856   1.752
 4987TIP3    H114904   6.688   6.852   1.660
 4987TIP3    H214905   6.640   6.830   1.803
 4988TIP3   OH214906   6.510   5.993   0.821
 4988TIP3    H114907   6.452   6.037   0.757
 4988TIP3    H214908   6.483   5.901   0.812
 4989TIP3   OH214909   6.300   6.382   1.696
 4989TIP3    H114910   6.233   6.359   1.629
 4989TIP3    H214911   6.337   6.294   1.720
 4990TIP3   OH214912   6.155   6.575   1.323
 4990TIP3    H114913   6.252   6.570   1.321
 4990TIP3    H214914   6.141   6.650   1.383
 4991TIP3   OH214915   7.115   6.815   1.517
 4991TIP3    H114916   7.115   6.906   1.551
 4991TIP3    H214917   7.047   6.773   1.574
 4992TIP3   OH214918   6.300   6.775   0.870
 4992TIP3    H114919   6.372   6.775   0.937
 4992TIP3    H214920   6.224   6.758   0.929
 4993TIP3   OH214921   7.915   6.167   1.667
 4993TIP3    H114922   7.848   6.178   1.599
 4993TIP3    H214923   7.946   6.076   1.648
 4994TIP3   OH214924   6.505   6.565   1.682
 4994TIP3    H114925   6.555   6.547   1.764
 4994TIP3    H214926   6.431   6.501   1.690
 4995TIP3   OH214927   6.901   5.386   1.469
 4995TIP3    H114928   6.812   5.355   1.442
 4995TIP3    H214929   6.876   5.465   1.521
 4996TIP3   OH214930   7.440   5.501   1.665
 4996TIP3    H114931   7.510   5.473   1.727
 4996TIP3    H214932   7.358   5.480   1.714
 4997TIP3   OH214933   7.667   5.923   1.575
 4997TIP3    H114934   7.627   5.924   1.665
 4997TIP3    H214935   7.656   6.015   1.546
 4998TIP3   OH214936   6.834   5.905   1.486
 4998TIP3    H114937   6.789   5.926   1.570
 4998TIP3    H214938   6.817   5.987   1.434
 4999TIP3   OH214939   6.716   5.783   0.998
 4999TIP3    H114940   6.622   5.762   1.014
 4999TIP3    H214941   6.726   5.752   0.906
 5000TIP3   OH214942   7.385   6.151   1.815
 5000TIP3    H114943   7.364   6.078   1.877
 5000TIP3    H214944   7.480   6.164   1.834
 5001TIP3   OH214945   7.361   5.909   0.983
 5001TIP3    H114946   7.323   5.957   0.908
 5001TIP3    H214947   7.392   5.826   0.940
 5002TIP3   OH214948   6.653   5.929   1.698
 5002TIP3    H114949   6.691   5.990   1.763
 5002TIP3    H214950   6.645   5.846   1.750
 5003TIP3   OH214951   6.238   5.494   1.278
 5003TIP3    H114952   6.324   5.492   1.324
 5003TIP3    H214953   6.254   5.438   1.198
 5004TIP3   OH214954   6.231   5.448   0.817
 5004TIP3    H114955   6.264   5.478   0.730
 5004TIP3    H214956   6.155   5.508   0.829
 5005TIP3   OH214957   7.365   6.151   1.390
 5005TIP3    H114958   7.405   6.081   1.333
 5005TIP3    H214959   7.342   6.096   1.468
 5006TIP3   OH214960   7.048   5.615   1.061
 5006TIP3    H114961   6.970   5.609   1.120
 5006TIP3    H214962   7.121   5.603   1.124
 5007TIP3   OH214963   6.477   5.644   1.061
 5007TIP3    H114964   6.392   5.610   1.029
 5007TIP3    H214965   6.534   5.564   1.051
 5008TIP3   OH214966   6.750   5.677   0.742
 5008TIP3    H114967   6.846   5.675   0.759
 5008TIP3    H214968   6.747   5.714   0.653
 5009TIP3   OH214969   7.539   5.688   1.262
 5009TIP3    H114970   7.508   5.699   1.355
 5009TIP3    H214971   7.474   5.624   1.229
 5010TIP3   OH214972   6.666   6.486   1.904
 5010TIP3    H114973   6.747   6.515   1.951
 5010TIP3    H214974   6.602   6.484   1.977
 5011TIP3   OH214975   7.129   5.940   1.162
 5011TIP3    H114976   7.208   5.904   1.119
 5011TIP3    H214977   7.133   5.898   1.251
 5012TIP3   OH214978   6.650   5.427   1.042
 5012TIP3    H114979   6.612   5.349   1.089
 5012TIP3    H214980   6.704   5.383   0.975
 5013TIP3   OH214981   7.106   5.842   1.443
 5013TIP3    H114982   7.017   5.876   1.464
 5013TIP3    H214983   7.165   5.898   1.498
 5014TIP3   OH214984   7.752   6.372   1.160
 5014TIP3    H114985   7.739   6.465   1.136
 5014TIP3    H214986   7.658   6.342   1.162
 5015TIP3   OH214987   7.238   6.532   1.547
 5015TIP3    H114988   7.269   6.516   1.637
 5015TIP3    H214989   7.206   6.624   1.552
 5016TIP3   OH214990   6.530   6.240   1.220
 5016TIP3    H114991   6.571   6.216   1.134
 5016TIP3    H214992   6.586   6.189   1.282
 5017TIP3   OH214993   6.416   6.169   1.835
 5017TIP3    H114994   6.440   6.158   1.929
 5017TIP3    H214995   6.352   6.097   1.823
 5018TIP3   OH214996   7.145   6.284   1.853
 5018TIP3    H114997   7.087   6.225   1.803
 5018TIP3    H214998   7.233   6.250   1.827
 5019TIP3   OH214999   7.390   6.784   1.470
 5019TIP3    H115000   7.295   6.793   1.450
 5019TIP3    H215001   7.396   6.839   1.552
 5020TIP3   OH215002   7.489   6.309   1.119
 5020TIP3    H115003   7.393   6.293   1.110
 5020TIP3    H215004   7.524   6.237   1.062
 5021TIP3   OH215005   6.643   6.566   0.886
 5021TIP3    H115006   6.653   6.611   0.799
 5021TIP3    H215007   6.549   6.580   0.903
 5022TIP3   OH215008   6.199   5.858   0.560
 5022TIP3    H115009   6.241   5.936   0.600
 5022TIP3    H215010   6.119   5.849   0.618
 5023TIP3   OH215011   6.757   6.333   0.800
 5023TIP3    H115012   6.739   6.418   0.844
 5023TIP3    H215013   6.742   6.270   0.872
 5024TIP3   OH215014   6.904   6.882   1.322
 5024TIP3    H115015   6.942   6.951   1.262
 5024TIP3    H215016   6.985   6.849   1.363
 5025TIP3   OH215017   7.296   6.523   1.276
 5025TIP3    H115018   7.285   6.516   1.373
 5025TIP3    H215019   7.373   6.467   1.260
 5026TIP3   OH215020   6.629   5.674   1.840
 5026TIP3    H115021   6.533   5.676   1.855
 5026TIP3    H215022   6.659   5.616   1.912
 5027TIP3   OH215023   6.345   6.758   1.471
 5027TIP3    H115024   6.399   6.685   1.508
 5027TIP3    H215025   6.371   6.831   1.529
 5028TIP3   OH215026   6.318   6.094   0.651
 5028TIP3    H115027   6.247   6.139   0.703
 5028TIP3    H215028   6.345   6.168   0.595
 5029TIP3   OH215029   7.464   5.735   1.520
 5029TIP3    H115030   7.544   5.781   1.554
 5029TIP3    H215031   7.457   5.657   1.579
 5030TIP3   OH215032   7.019   5.663   0.793
 5030TIP3    H115033   7.096   5.718   0.771
 5030TIP3    H215034   7.030   5.653   0.891
 5031TIP3   OH215035   7.304   5.984   1.599
 5031TIP3    H115036   7.329   6.037   1.677
 5031TIP3    H215037   7.361   5.906   1.608
 5032TIP3   OH215038   7.194   5.404   0.899
 5032TIP3    H115039   7.187   5.461   0.978
 5032TIP3    H215040   7.268   5.447   0.854
 5033TIP3   OH215041   6.685   5.396   0.672
 5033TIP3    H115042   6.678   5.485   0.710
 5033TIP3    H215043   6.773   5.371   0.708
 5034TIP3   OH215044   7.941   5.910   1.566
 5034TIP3    H115045   7.844   5.900   1.572
 5034TIP3    H215046   7.963   5.847   1.497
 5035TIP3   OH215047   7.587   6.092   0.981
 5035TIP3    H115048   7.521   6.021   0.985
 5035TIP3    H215049   7.667   6.046   1.011
 5036TIP3   OH215050   6.252   5.585   0.578
 5036TIP3    H115051   6.232   5.679   0.568
 5036TIP3    H215052   6.186   5.545   0.521
 5037TIP3   OH215053   6.633   5.307   1.443
 5037TIP3    H115054   6.607   5.270   1.357
 5037TIP3    H215055   6.628   5.229   1.502
 5038TIP3   OH215056   6.168   6.497   0.834
 5038TIP3    H115057   6.114   6.549   0.895
 5038TIP3    H215058   6.237   6.561   0.810
 5039TIP3   OH215059   6.336   7.070   1.893
 5039TIP3    H115060   6.423   7.069   1.939
 5039TIP3    H215061   6.314   6.976   1.893
 5040TIP3   OH215062   6.830   7.026   1.945
 5040TIP3    H115063   6.919   6.987   1.944
 5040TIP3    H215064   6.790   6.976   1.871
 5041TIP3   OH215065   7.439   6.938   1.693
 5041TIP3    H115066   7.438   6.865   1.759
 5041TIP3    H215067   7.527   6.976   1.708
 5042TIP3   OH215068   6.466   6.475   2.095
 5042TIP3    H115069   6.482   6.379   2.102
 5042TIP3    H215070   6.378   6.477   2.051
 5043TIP3   OH215071   7.070   6.558   1.871
 5043TIP3    H115072   7.032   6.578   1.783
 5043TIP3    H215073   7.104   6.466   1.859
 5044TIP3   OH215074   7.561   6.566   1.473
 5044TIP3    H115075   7.622   6.627   1.430
 5044TIP3    H215076   7.480   6.620   1.474
 5045TIP3   OH215077   6.585   6.209   2.077
 5045TIP3    H115078   6.661   6.156   2.052
 5045TIP3    H215079   6.612   6.242   2.165
 5046TIP3   OH215080   6.914   6.087   1.735
 5046TIP3    H115081   6.841   6.152   1.739
 5046TIP3    H215082   6.968   6.123   1.660
 5047TIP3   OH215083   7.442   6.491   1.868
 5047TIP3    H115084   7.519   6.460   1.817
 5047TIP3    H215085   7.439   6.426   1.941
 5048TIP3   OH215086   7.041   5.882   1.866
 5048TIP3    H115087   7.045   5.802   1.810
 5048TIP3    H215088   6.998   5.947   1.807
 5049TIP3   OH215089   7.047   5.671   1.673
 5049TIP3    H115090   7.076   5.707   1.587
 5049TIP3    H215091   6.954   5.645   1.654
 5050TIP3   OH215092   7.070   6.200   1.546
 5050TIP3    H115093   7.157   6.211   1.505
 5050TIP3    H215094   7.017   6.269   1.500
 5051TIP3   OH215095   7.658   6.169   1.926
 5051TIP3    H115096   7.702   6.083   1.936
 5051TIP3    H215097   7.729   6.222   1.888
 5052TIP3   OH215098   7.669   6.425   1.679
 5052TIP3    H115099   7.618   6.476   1.612
 5052TIP3    H215100   7.758   6.431   1.637
 5053TIP3   OH215101   6.919   5.990   2.097
 5053TIP3    H115102   6.853   5.919   2.112
 5053TIP3    H215103   6.956   5.964   2.010
 5054TIP3   OH215104   7.178   5.431   1.742
 5054TIP3    H115105   7.128   5.512   1.720
 5054TIP3    H215106   7.109   5.362   1.731
 5055TIP3   OH215107   7.303   5.935   1.958
 5055TIP3    H115108   7.292   5.919   2.053
 5055TIP3    H215109   7.213   5.910   1.927
 5056TIP3   OH215110   7.543   5.887   1.813
 5056TIP3    H115111   7.469   5.885   1.876
 5056TIP3    H215112   7.618   5.856   1.868
 5057TIP3   OH215113   7.771   5.827   1.962
 5057TIP3    H115114   7.784   5.731   1.978
 5057TIP3    H215115   7.770   5.863   2.053
 5058TIP3   OH215116   6.761   5.770   2.152
 5058TIP3    H115117   6.764   5.678   2.119
 5058TIP3    H215118   6.801   5.757   2.241
 5059TIP3   OH215119   7.272   5.441   1.999
 5059TIP3    H115120   7.339   5.370   1.995
 5059TIP3    H215121   7.233   5.434   1.910
 5060TIP3   OH215122   7.338   5.654   2.159
 5060TIP3    H115123   7.317   5.582   2.095
 5060TIP3    H215124   7.259   5.712   2.151
 5061TIP3   OH215125   5.948   6.879   0.897
 5061TIP3    H115126   5.885   6.823   0.848
 5061TIP3    H215127   5.993   6.813   0.953
 5062TIP3   OH215128   6.106   6.720   1.063
 5062TIP3    H115129   6.081   6.652   1.128
 5062TIP3    H215130   6.146   6.785   1.125
 5063TIP3   OH215131   6.276   6.135   1.443
 5063TIP3    H115132   6.276   6.101   1.351
 5063TIP3    H215133   6.373   6.137   1.461
 5064TIP3   OH215134   7.894   6.466   1.536
 5064TIP3    H115135   7.981   6.429   1.561
 5064TIP3    H215136   7.921   6.528   1.466
 5065TIP3   OH215137   7.806   5.950   1.072
 5065TIP3    H115138   7.893   5.976   1.041
 5065TIP3    H215139   7.810   5.985   1.164
 5066TIP3   OH215140   7.850   6.081   1.305
 5066TIP3    H115141   7.784   6.121   1.365
 5066TIP3    H215142   7.916   6.152   1.296
 5067TIP3   OH215143   6.496   5.823   2.125
 5067TIP3    H115144   6.593   5.815   2.127
 5067TIP3    H215145   6.470   5.735   2.159
 5068TIP3   OH215146   6.453   5.517   1.465
 5068TIP3    H115147   6.510   5.438   1.467
 5068TIP3    H215148   6.519   5.586   1.448
 5069TIP3   OH215149   6.237   5.812   1.472
 5069TIP3    H115150   6.318   5.803   1.416
 5069TIP3    H215151   6.268   5.877   1.537
 5070TIP3   OH215152   6.233   5.326   1.058
 5070TIP3    H115153   6.142   5.290   1.056
 5070TIP3    H215154   6.240   5.363   0.967
 5071TIP3   OH215155   6.462   5.383   1.841
 5071TIP3    H115156   6.414   5.364   1.924
 5071TIP3    H215157   6.388   5.401   1.781
 5072TIP3   OH215158   6.500   6.802   1.916
 5072TIP3    H115159   6.408   6.776   1.898
 5072TIP3    H215160   6.510   6.778   2.009
 5073TIP3   OH215161   6.680   6.835   1.468
 5073TIP3    H115162   6.633   6.909   1.425
 5073TIP3    H215163   6.766   6.844   1.422
 5074TIP3   OH215164   7.140   7.088   1.608
 5074TIP3    H115165   7.179   7.084   1.698
 5074TIP3    H215166   7.212   7.128   1.558
 5075TIP3   OH215167   8.079   5.567   1.575
 5075TIP3    H115168   8.005   5.589   1.518
 5075TIP3    H215169   8.134   5.510   1.519
 5076TIP3   OH215170   6.354   7.090   1.487
 5076TIP3    H115171   6.263   7.123   1.466
 5076TIP3    H215172   6.368   7.131   1.573
 5077TIP3   OH215173   6.586   7.063   1.344
 5077TIP3    H115174   6.498   7.074   1.387
 5077TIP3    H215175   6.567   7.092   1.253
 5078TIP3   OH215176   6.997   7.071   1.157
 5078TIP3    H115177   6.958   7.110   1.078
 5078TIP3    H215178   7.029   7.149   1.206
 5079TIP3   OH215179   6.267   6.881   1.230
 5079TIP3    H115180   6.291   6.854   1.322
 5079TIP3    H215181   6.342   6.839   1.182
 5080TIP3   OH215182   6.463   6.752   1.090
 5080TIP3    H115183   6.478   6.669   1.142
 5080TIP3    H215184   6.554   6.790   1.091
 5081TIP3   OH215185   6.724   6.844   1.100
 5081TIP3    H115186   6.760   6.754   1.090
 5081TIP3    H215187   6.777   6.873   1.177
 5082TIP3   OH215188   7.290   5.494   1.163
 5082TIP3    H115189   7.257   5.427   1.227
 5082TIP3    H215190   7.373   5.454   1.132
 5083TIP3   OH215191   7.829   5.388   1.089
 5083TIP3    H115192   7.869   5.435   1.013
 5083TIP3    H215193   7.734   5.407   1.077
 5084TIP3   OH215194   7.942   5.480   0.858
 5084TIP3    H115195   7.993   5.431   0.792
 5084TIP3    H215196   7.948   5.571   0.826
 5085TIP3   OH215197   6.551   5.214   1.194
 5085TIP3    H115198   6.459   5.180   1.194
 5085TIP3    H215199   6.600   5.129   1.189
 5086TIP3   OH215200   6.361   5.079   0.854
 5086TIP3    H115201   6.389   5.132   0.776
 5086TIP3    H215202   6.306   5.142   0.901
 5087TIP3   OH215203   6.994   5.247   1.084
 5087TIP3    H115204   7.054   5.293   1.025
 5087TIP3    H215205   7.025   5.275   1.171
 5088TIP3   OH215206   7.538   5.391   1.057
 5088TIP3    H115207   7.554   5.344   0.974
 5088TIP3    H215208   7.529   5.315   1.119
 5089TIP3   OH215209   6.458   5.229   0.648
 5089TIP3    H115210   6.466   5.188   0.561
 5089TIP3    H215211   6.537   5.286   0.653
 5090TIP3   OH215212   6.934   5.399   0.775
 5090TIP3    H115213   7.009   5.344   0.803
 5090TIP3    H215214   6.975   5.487   0.780
 5091TIP3   OH215215   6.758   5.497   2.088
 5091TIP3    H115216   6.724   5.424   2.143
 5091TIP3    H215217   6.853   5.495   2.115
 5092TIP3   OH215218   7.009   5.494   2.205
 5092TIP3    H115219   7.093   5.465   2.167
 5092TIP3    H215220   6.994   5.425   2.273
 5093TIP3   OH215221   7.830   5.556   1.994
 5093TIP3    H115222   7.852   5.525   2.084
 5093TIP3    H215223   7.918   5.552   1.950
 5094TIP3   OH215224   0.508   6.555   2.881
 5094TIP3    H115225   0.535   6.638   2.924
 5094TIP3    H215226   0.533   6.572   2.788
 5095TIP3   OH215227  -0.066   6.465   2.500
 5095TIP3    H115228   0.001   6.476   2.571
 5095TIP3    H215229  -0.032   6.522   2.431
 5096TIP3   OH215230   0.574   6.764   3.056
 5096TIP3    H115231   0.490   6.812   3.042
 5096TIP3    H215232   0.604   6.802   3.140
 5097TIP3   OH215233   0.139   6.505   2.675
 5097TIP3    H115234   0.156   6.421   2.721
 5097TIP3    H215235   0.206   6.566   2.712
 5098TIP3   OH215236   0.306   6.464   3.050
 5098TIP3    H115237   0.225   6.501   3.014
 5098TIP3    H215238   0.372   6.487   2.981
 5099TIP3   OH215239   0.223   7.484   3.031
 5099TIP3    H115240   0.209   7.397   2.989
 5099TIP3    H215241   0.259   7.537   2.957
 5100TIP3   OH215242   0.431   7.103   2.873
 5100TIP3    H115243   0.350   7.158   2.882
 5100TIP3    H215244   0.460   7.128   2.783
 5101TIP3   OH215245   0.235   6.041   2.138
 5101TIP3    H115246   0.157   6.064   2.192
 5101TIP3    H215247   0.263   6.129   2.103
 5102TIP3   OH215248   0.376   6.944   3.354
 5102TIP3    H115249   0.298   6.968   3.304
 5102TIP3    H215250   0.377   6.846   3.343
 5103TIP3   OH215251   0.200   7.255   2.872
 5103TIP3    H115252   0.234   7.303   2.792
 5103TIP3    H215253   0.114   7.224   2.843
 5104TIP3   OH215254   0.476   7.509   3.126
 5104TIP3    H115255   0.379   7.515   3.110
 5104TIP3    H215256   0.507   7.491   3.034
 5105TIP3   OH215257   0.375   6.678   3.274
 5105TIP3    H115258   0.293   6.632   3.296
 5105TIP3    H215259   0.395   6.642   3.186
 5106TIP3   OH215260   0.043   6.849   2.651
 5106TIP3    H115261  -0.017   6.776   2.667
 5106TIP3    H215262   0.124   6.818   2.698
 5107TIP3   OH215263   0.302   6.597   3.694
 5107TIP3    H115264   0.296   6.500   3.688
 5107TIP3    H215265   0.207   6.619   3.698
 5108TIP3   OH215266   0.300   6.995   2.226
 5108TIP3    H115267   0.231   6.953   2.283
 5108TIP3    H215268   0.364   7.027   2.293
 5109TIP3   OH215269   0.329   7.380   2.672
 5109TIP3    H115270   0.395   7.323   2.627
 5109TIP3    H215271   0.335   7.463   2.622
 5110TIP3   OH215272   0.134   6.838   2.386
 5110TIP3    H115273   0.125   6.741   2.383
 5110TIP3    H215274   0.102   6.857   2.477
 5111TIP3   OH215275   0.386   7.270   3.247
 5111TIP3    H115276   0.459   7.206   3.239
 5111TIP3    H215277   0.413   7.341   3.188
 5112TIP3   OH215278   0.582   7.080   3.251
 5112TIP3    H115279   0.509   7.034   3.298
 5112TIP3    H215280   0.655   7.017   3.268
 5113TIP3   OH215281   0.133   6.568   2.308
 5113TIP3    H115282   0.151   6.479   2.345
 5113TIP3    H215283   0.156   6.550   2.217
 5114TIP3   OH215284   0.262   6.744   2.783
 5114TIP3    H115285   0.347   6.767   2.739
 5114TIP3    H215286   0.278   6.785   2.871
 5115TIP3   OH215287   0.321   6.889   3.013
 5115TIP3    H115288   0.237   6.921   3.052
 5115TIP3    H215289   0.356   6.970   2.970
 5116TIP3   OH215290   0.788   6.481   3.564
 5116TIP3    H115291   0.843   6.413   3.520
 5116TIP3    H215292   0.753   6.531   3.487
 5117TIP3   OH215293   0.216   6.304   2.321
 5117TIP3    H115294   0.260   6.290   2.407
 5117TIP3    H215295   0.146   6.236   2.324
 5118TIP3   OH215296   0.647   6.613   3.372
 5118TIP3    H115297   0.565   6.656   3.403
 5118TIP3    H215298   0.610   6.544   3.313
 5119TIP3   OH215299   0.336   6.252   1.993
 5119TIP3    H115300   0.358   6.191   1.920
 5119TIP3    H215301   0.357   6.339   1.955
 5120TIP3   OH215302   0.548   6.374   3.251
 5120TIP3    H115303   0.458   6.357   3.218
 5120TIP3    H215304   0.588   6.284   3.241
 5121TIP3   OH215305   0.297   6.172   2.773
 5121TIP3    H115306   0.333   6.222   2.696
 5121TIP3    H215307   0.201   6.191   2.764
 5122TIP3   OH215308   0.378   6.282   2.540
 5122TIP3    H115309   0.449   6.227   2.500
 5122TIP3    H215310   0.411   6.372   2.520
 5123TIP3   OH215311   0.035   6.212   2.740
 5123TIP3    H115312  -0.034   6.212   2.672
 5123TIP3    H215313   0.014   6.131   2.792
 5124TIP3   OH215314   0.030   6.100   2.311
 5124TIP3    H115315  -0.055   6.126   2.274
 5124TIP3    H215316   0.007   6.015   2.354
 5125TIP3   OH215317   0.290   6.325   3.680
 5125TIP3    H115318   0.306   6.301   3.774
 5125TIP3    H215319   0.380   6.320   3.642
 5126TIP3   OH215320   1.494   7.258   1.945
 5126TIP3    H115321   1.449   7.343   1.929
 5126TIP3    H215322   1.426   7.197   1.912
 5127TIP3   OH215323   1.490   7.264   2.325
 5127TIP3    H115324   1.526   7.244   2.413
 5127TIP3    H215325   1.450   7.180   2.300
 5128TIP3   OH215326   0.786   7.159   2.690
 5128TIP3    H115327   0.817   7.092   2.753
 5128TIP3    H215328   0.863   7.217   2.685
 5129TIP3   OH215329   1.712   7.567   2.010
 5129TIP3    H115330   1.709   7.495   2.076
 5129TIP3    H215331   1.768   7.632   2.056
 5130TIP3   OH215332   0.820   7.516   2.487
 5130TIP3    H115333   0.788   7.430   2.453
 5130TIP3    H215334   0.898   7.532   2.428
 5131TIP3   OH215335   0.457   6.754   2.186
 5131TIP3    H115336   0.415   6.842   2.178
 5131TIP3    H215337   0.409   6.717   2.261
 5132TIP3   OH215338   0.528   7.061   2.372
 5132TIP3    H115339   0.574   6.982   2.408
 5132TIP3    H215340   0.602   7.110   2.332
 5133TIP3   OH215341   1.303   7.483   2.367
 5133TIP3    H115342   1.350   7.405   2.331
 5133TIP3    H215343   1.382   7.535   2.393
 5134TIP3   OH215344   2.303   6.812   2.368
 5134TIP3    H115345   2.333   6.895   2.412
 5134TIP3    H215346   2.327   6.830   2.276
 5135TIP3   OH215347   1.702   6.993   2.400
 5135TIP3    H115348   1.745   6.908   2.422
 5135TIP3    H215349   1.670   6.975   2.310
 5136TIP3   OH215350   1.041   6.653   2.366
 5136TIP3    H115351   1.021   6.725   2.303
 5136TIP3    H215352   0.994   6.579   2.324
 5137TIP3   OH215353   1.736   6.743   1.987
 5137TIP3    H115354   1.807   6.729   2.054
 5137TIP3    H215355   1.789   6.778   1.914
 5138TIP3   OH215356   0.673   6.853   2.474
 5138TIP3    H115357   0.755   6.834   2.524
 5138TIP3    H215358   0.689   6.798   2.394
 5139TIP3   OH215359   1.113   7.054   2.269
 5139TIP3    H115360   1.207   7.029   2.282
 5139TIP3    H215361   1.074   6.969   2.240
 5140TIP3   OH215362   2.377   7.020   2.538
 5140TIP3    H115363   2.292   7.066   2.522
 5140TIP3    H215364   2.398   7.052   2.627
 5141TIP3   OH215365   1.037   6.636   2.802
 5141TIP3    H115366   0.977   6.673   2.734
 5141TIP3    H215367   0.984   6.654   2.883
 5142TIP3   OH215368   1.357   7.468   1.827
 5142TIP3    H115369   1.347   7.446   1.733
 5142TIP3    H215370   1.400   7.555   1.825
 5143TIP3   OH215371   1.139   7.415   2.594
 5143TIP3    H115372   1.078   7.482   2.628
 5143TIP3    H215373   1.181   7.462   2.519
 5144TIP3   OH215374   1.940   6.750   2.165
 5144TIP3    H115375   1.929   6.703   2.249
 5144TIP3    H215376   1.994   6.827   2.192
 5145TIP3   OH215377   0.908   6.751   2.585
 5145TIP3    H115378   0.970   6.825   2.608
 5145TIP3    H215379   0.958   6.710   2.511
 5146TIP3   OH215380   0.968   7.628   2.699
 5146TIP3    H115381   0.922   7.619   2.614
 5146TIP3    H215382   0.891   7.623   2.760
 5147TIP3   OH215383   2.097   6.710   2.533
 5147TIP3    H115384   2.010   6.740   2.502
 5147TIP3    H215385   2.157   6.743   2.463
 5148TIP3   OH215386   1.389   6.352   2.516
 5148TIP3    H115387   1.376   6.257   2.536
 5148TIP3    H215388   1.312   6.390   2.563
 5149TIP3   OH215389   1.735   7.582   1.727
 5149TIP3    H115390   1.705   7.501   1.682
 5149TIP3    H215391   1.746   7.553   1.820
 5150TIP3   OH215392   2.020   7.724   2.516
 5150TIP3    H115393   2.012   7.646   2.457
 5150TIP3    H215394   2.050   7.794   2.454
 5151TIP3   OH215395   1.335   7.109   1.776
 5151TIP3    H115396   1.258   7.168   1.765
 5151TIP3    H215397   1.375   7.114   1.687
 5152TIP3   OH215398   1.303   6.895   1.506
 5152TIP3    H115399   1.371   6.950   1.550
 5152TIP3    H215400   1.360   6.835   1.455
 5153TIP3   OH215401   2.227   7.360   2.359
 5153TIP3    H115402   2.144   7.412   2.366
 5153TIP3    H215403   2.256   7.387   2.269
 5154TIP3   OH215404   1.672   7.194   1.748
 5154TIP3    H115405   1.617   7.217   1.826
 5154TIP3    H215406   1.756   7.167   1.793
 5155TIP3   OH215407   1.904   7.238   2.659
 5155TIP3    H115408   1.904   7.321   2.711
 5155TIP3    H215409   1.817   7.245   2.614
 5156TIP3   OH215410   0.908   7.197   2.151
 5156TIP3    H115411   0.863   7.133   2.092
 5156TIP3    H215412   0.982   7.145   2.186
 5157TIP3   OH215413   1.041   7.570   2.345
 5157TIP3    H115414   1.031   7.532   2.257
 5157TIP3    H215415   1.138   7.580   2.350
 5158TIP3   OH215416   1.031   7.174   2.511
 5158TIP3    H115417   1.071   7.149   2.425
 5158TIP3    H215418   1.077   7.258   2.532
 5159TIP3   OH215419   1.214   7.628   2.837
 5159TIP3    H115420   1.185   7.717   2.863
 5159TIP3    H215421   1.136   7.601   2.785
 5160TIP3   OH215422   1.518   7.053   1.571
 5160TIP3    H115423   1.573   7.117   1.622
 5160TIP3    H215424   1.541   7.077   1.478
 5161TIP3   OH215425   0.932   7.281   2.940
 5161TIP3    H115426   0.938   7.369   2.982
 5161TIP3    H215427   0.837   7.260   2.956
 5162TIP3   OH215428   2.025   6.298   1.619
 5162TIP3    H115429   1.944   6.319   1.669
 5162TIP3    H215430   2.038   6.381   1.568
 5163TIP3   OH215431   0.757   7.036   1.966
 5163TIP3    H115432   0.702   7.084   1.903
 5163TIP3    H215433   0.719   6.947   1.960
 5164TIP3   OH215434   0.563   7.426   2.881
 5164TIP3    H115435   0.499   7.403   2.811
 5164TIP3    H215436   0.600   7.339   2.906
 5165TIP3   OH215437   2.158   7.199   2.838
 5165TIP3    H115438   2.076   7.211   2.789
 5165TIP3    H215439   2.173   7.103   2.827
 5166TIP3   OH215440   0.755   7.627   2.873
 5166TIP3    H115441   0.810   7.591   2.946
 5166TIP3    H215442   0.683   7.560   2.869
 5167TIP3   OH215443   1.152   6.431   2.646
 5167TIP3    H115444   1.063   6.400   2.618
 5167TIP3    H215445   1.125   6.512   2.695
 5168TIP3   OH215446   1.688   6.546   2.841
 5168TIP3    H115447   1.757   6.517   2.904
 5168TIP3    H215448   1.605   6.525   2.888
 5169TIP3   OH215449   1.922   6.974   2.757
 5169TIP3    H115450   1.874   6.972   2.842
 5169TIP3    H215451   1.901   7.063   2.722
 5170TIP3   OH215452   1.585   7.089   1.313
 5170TIP3    H115453   1.557   7.068   1.222
 5170TIP3    H215454   1.650   7.160   1.296
 5171TIP3   OH215455   1.288   6.488   1.609
 5171TIP3    H115456   1.266   6.484   1.704
 5171TIP3    H215457   1.257   6.400   1.582
 5172TIP3   OH215458   1.083   6.950   2.661
 5172TIP3    H115459   1.035   6.969   2.744
 5172TIP3    H215460   1.065   7.032   2.609
 5173TIP3   OH215461   0.966   6.836   2.180
 5173TIP3    H115462   0.873   6.808   2.196
 5173TIP3    H215463   0.980   6.797   2.091
 5174TIP3   OH215464   1.464   6.912   1.910
 5174TIP3    H115465   1.412   6.981   1.864
 5174TIP3    H215466   1.520   6.878   1.837
 5175TIP3   OH215467   1.637   7.190   2.987
 5175TIP3    H115468   1.615   7.120   3.051
 5175TIP3    H215469   1.730   7.209   3.012
 5176TIP3   OH215470   1.617   6.944   2.144
 5176TIP3    H115471   1.554   6.971   2.074
 5176TIP3    H215472   1.652   6.863   2.101
 5177TIP3   OH215473   0.903   6.975   2.872
 5177TIP3    H115474   0.935   7.038   2.938
 5177TIP3    H215475   0.893   6.893   2.925
 5178TIP3   OH215476   0.933   6.435   1.572
 5178TIP3    H115477   0.947   6.437   1.669
 5178TIP3    H215478   0.856   6.494   1.568
 5179TIP3   OH215479   0.494   6.511   2.453
 5179TIP3    H115480   0.576   6.529   2.503
 5179TIP3    H215481   0.525   6.469   2.370
 5180TIP3   OH215482   0.457   6.505   1.958
 5180TIP3    H115483   0.531   6.506   1.896
 5180TIP3    H215484   0.467   6.588   2.007
 5181TIP3   OH215485   1.623   7.192   2.564
 5181TIP3    H115486   1.658   7.120   2.506
 5181TIP3    H215487   1.595   7.139   2.641
 5182TIP3   OH215488   1.299   6.657   2.239
 5182TIP3    H115489   1.219   6.653   2.295
 5182TIP3    H215490   1.370   6.647   2.306
 5183TIP3   OH215491   0.728   6.710   2.244
 5183TIP3    H115492   0.636   6.710   2.210
 5183TIP3    H215493   0.757   6.618   2.227
 5184TIP3   OH215494   1.005   6.714   1.939
 5184TIP3    H115495   1.102   6.721   1.927
 5184TIP3    H215496   0.971   6.716   1.847
 5185TIP3   OH215497   1.788   6.731   2.441
 5185TIP3    H115498   1.756   6.743   2.533
 5185TIP3    H215499   1.721   6.670   2.406
 5186TIP3   OH215500   0.870   6.693   1.704
 5186TIP3    H115501   0.776   6.708   1.723
 5186TIP3    H215502   0.885   6.756   1.632
 5187TIP3   OH215503   0.918   7.529   3.078
 5187TIP3    H115504   0.998   7.555   3.129
 5187TIP3    H215505   0.855   7.518   3.151
 5188TIP3   OH215506   1.378   6.986   2.336
 5188TIP3    H115507   1.450   6.944   2.288
 5188TIP3    H215508   1.383   6.942   2.424
 5189TIP3   OH215509   0.896   6.470   2.219
 5189TIP3    H115510   0.860   6.393   2.268
 5189TIP3    H215511   0.945   6.427   2.148
 5190TIP3   OH215512   1.354   6.884   2.624
 5190TIP3    H115513   1.264   6.920   2.640
 5190TIP3    H215514   1.412   6.944   2.676
 5191TIP3   OH215515   1.120   7.271   1.748
 5191TIP3    H115516   1.056   7.197   1.752
 5191TIP3    H215517   1.095   7.320   1.829
 5192TIP3   OH215518   1.992   7.502   2.351
 5192TIP3    H115519   2.020   7.551   2.270
 5192TIP3    H215520   1.907   7.463   2.323
 5193TIP3   OH215521   1.544   6.586   1.578
 5193TIP3    H115522   1.448   6.569   1.592
 5193TIP3    H215523   1.557   6.678   1.611
 5194TIP3   OH215524   1.500   7.607   2.719
 5194TIP3    H115525   1.534   7.561   2.797
 5194TIP3    H215526   1.425   7.655   2.756
 5195TIP3   OH215527   1.620   6.827   1.690
 5195TIP3    H115528   1.717   6.833   1.706
 5195TIP3    H215529   1.602   6.909   1.640
 5196TIP3   OH215530   0.767   7.250   2.388
 5196TIP3    H115531   0.820   7.244   2.306
 5196TIP3    H215532   0.827   7.209   2.453
 5197TIP3   OH215533   1.297   7.385   1.567
 5197TIP3    H115534   1.240   7.447   1.516
 5197TIP3    H215535   1.229   7.337   1.617
 5198TIP3   OH215536   0.670   7.207   3.011
 5198TIP3    H115537   0.685   7.192   3.107
 5198TIP3    H215538   0.599   7.142   2.994
 5199TIP3   OH215539   1.397   7.313   3.037
 5199TIP3    H115540   1.335   7.264   2.980
 5199TIP3    H215541   1.484   7.282   3.003
 5200TIP3   OH215542   2.058   6.922   1.525
 5200TIP3    H115543   1.997   6.877   1.462
 5200TIP3    H215544   2.056   7.011   1.483
 5201TIP3   OH215545   2.278   7.758   2.608
 5201TIP3    H115546   2.182   7.774   2.599
 5201TIP3    H215547   2.303   7.747   2.513
 5202TIP3   OH215548   1.755   7.376   2.252
 5202TIP3    H115549   1.664   7.349   2.276
 5202TIP3    H215550   1.790   7.291   2.217
 5203TIP3   OH215551   1.023   7.383   1.979
 5203TIP3    H115552   0.995   7.465   2.020
 5203TIP3    H215553   0.992   7.316   2.044
 5204TIP3   OH215554   1.545   7.574   2.449
 5204TIP3    H115555   1.533   7.586   2.545
 5204TIP3    H215556   1.633   7.535   2.445
 5205TIP3   OH215557   1.518   7.411   1.337
 5205TIP3    H115558   1.573   7.405   1.418
 5205TIP3    H215559   1.430   7.400   1.375
 5206TIP3   OH215560   0.876   6.718   3.016
 5206TIP3    H115561   0.779   6.719   3.030
 5206TIP3    H215562   0.905   6.660   3.089
 5207TIP3   OH215563   1.683   7.376   1.550
 5207TIP3    H115564   1.678   7.305   1.617
 5207TIP3    H215565   1.780   7.378   1.532
 5208TIP3   OH215566   1.715   6.782   2.700
 5208TIP3    H115567   1.795   6.822   2.738
 5208TIP3    H215568   1.703   6.702   2.755
 5209TIP3   OH215569   1.595   6.534   1.867
 5209TIP3    H115570   1.584   6.559   1.774
 5209TIP3    H215571   1.637   6.613   1.906
 5210TIP3   OH215572   1.281   6.715   1.970
 5210TIP3    H115573   1.347   6.786   1.954
 5210TIP3    H215574   1.288   6.706   2.068
 5211TIP3   OH215575   1.552   7.030   2.773
 5211TIP3    H115576   1.578   7.083   2.851
 5211TIP3    H215577   1.607   6.950   2.784
 5212TIP3   OH215578   1.426   6.437   2.069
 5212TIP3    H115579   1.424   6.512   2.131
 5212TIP3    H215580   1.488   6.471   2.001
 5213TIP3   OH215581   0.951   6.436   1.854
 5213TIP3    H115582   0.941   6.527   1.887
 5213TIP3    H215583   1.048   6.425   1.864
 5214TIP3   OH215584   2.189   6.932   2.757
 5214TIP3    H115585   2.091   6.930   2.762
 5214TIP3    H215586   2.202   6.889   2.671
 5215TIP3   OH215587   1.842   7.127   2.145
 5215TIP3    H115588   1.766   7.067   2.158
 5215TIP3    H215589   1.914   7.080   2.194
 5216TIP3   OH215590   0.888   6.350   2.619
 5216TIP3    H115591   0.857   6.315   2.532
 5216TIP3    H215592   0.877   6.271   2.677
 5217TIP3   OH215593   0.715   7.496   3.257
 5217TIP3    H115594   0.738   7.402   3.268
 5217TIP3    H215595   0.624   7.491   3.221
 5218TIP3   OH215596   1.334   7.576   3.074
 5218TIP3    H115597   1.300   7.590   2.983
 5218TIP3    H215598   1.370   7.485   3.066
 5219TIP3   OH215599   1.809   7.607   2.649
 5219TIP3    H115600   1.881   7.658   2.606
 5219TIP3    H215601   1.737   7.672   2.647
 5220TIP3   OH215602   0.841   7.247   3.257
 5220TIP3    H115603   0.919   7.196   3.234
 5220TIP3    H215604   0.865   7.281   3.346
 5221TIP3   OH215605   0.943   7.067   1.738
 5221TIP3    H115606   0.895   7.027   1.812
 5221TIP3    H215607   0.942   6.997   1.672
 5222TIP3   OH215608   1.166   7.133   2.913
 5222TIP3    H115609   1.091   7.196   2.918
 5222TIP3    H215610   1.217   7.169   2.837
 5223TIP3   OH215611   1.026   6.860   1.512
 5223TIP3    H115612   1.042   6.811   1.430
 5223TIP3    H215613   1.118   6.888   1.531
 5224TIP3   OH215614   1.689   7.530   3.045
 5224TIP3    H115615   1.775   7.514   3.004
 5224TIP3    H215616   1.689   7.468   3.120
 5225TIP3   OH215617   1.830   7.205   1.186
 5225TIP3    H115618   1.805   7.162   1.103
 5225TIP3    H215619   1.796   7.296   1.173
 5226TIP3   OH215620   1.292   6.926   3.041
 5226TIP3    H115621   1.293   6.847   2.984
 5226TIP3    H215622   1.248   6.993   2.984
 5227TIP3   OH215623   1.295   6.713   2.849
 5227TIP3    H115624   1.323   6.753   2.765
 5227TIP3    H215625   1.202   6.689   2.830
 5228TIP3   OH215626   1.317   7.249   2.722
 5228TIP3    H115627   1.401   7.258   2.677
 5228TIP3    H215628   1.262   7.317   2.678
 5229TIP3   OH215629   1.904   7.215   3.103
 5229TIP3    H115630   1.955   7.133   3.106
 5229TIP3    H215631   1.969   7.279   3.072
 5230TIP3   OH215632   1.942   7.463   2.836
 5230TIP3    H115633   1.885   7.518   2.777
 5230TIP3    H215634   2.030   7.485   2.798
 5231TIP3   OH215635   1.171   7.033   3.274
 5231TIP3    H115636   1.102   6.965   3.289
 5231TIP3    H215637   1.205   7.008   3.186
 5232TIP3   OH215638   1.427   6.476   2.920
 5232TIP3    H115639   1.378   6.557   2.896
 5232TIP3    H215640   1.358   6.407   2.907
 5233TIP3   OH215641   1.553   6.977   3.134
 5233TIP3    H115642   1.539   6.965   3.229
 5233TIP3    H215643   1.463   6.954   3.101
 5234TIP3   OH215644   1.791   6.927   2.987
 5234TIP3    H115645   1.716   6.929   3.049
 5234TIP3    H215646   1.865   6.899   3.045
 5235TIP3   OH215647   2.019   6.872   3.140
 5235TIP3    H115648   2.032   6.776   3.155
 5235TIP3    H215649   2.016   6.908   3.231
 5236TIP3   OH215650   1.008   6.814   3.329
 5236TIP3    H115651   1.013   6.722   3.295
 5236TIP3    H215652   1.044   6.803   3.419
 5237TIP3   OH215653   1.518   6.483   3.179
 5237TIP3    H115654   1.586   6.414   3.171
 5237TIP3    H215655   1.479   6.480   3.089
 5238TIP3   OH215656   1.586   6.696   3.339
 5238TIP3    H115657   1.565   6.626   3.274
 5238TIP3    H215658   1.508   6.756   3.331
 5239TIP3   OH215659   2.172   7.886   2.883
 5239TIP3    H115660   2.098   7.869   2.945
 5239TIP3    H215661   2.195   7.977   2.904
 5240TIP3   OH215662   1.953   7.374   1.530
 5240TIP3    H115663   2.025   7.433   1.499
 5240TIP3    H215664   1.997   7.335   1.609
 5241TIP3   OH215665   2.084   7.248   1.730
 5241TIP3    H115666   2.022   7.205   1.794
 5241TIP3    H215667   2.154   7.283   1.789
 5242TIP3   OH215668   2.122   7.636   2.154
 5242TIP3    H115669   2.190   7.581   2.110
 5242TIP3    H215670   2.130   7.722   2.110
 5243TIP3   OH215671   2.025   7.157   1.376
 5243TIP3    H115672   1.954   7.161   1.308
 5243TIP3    H215673   1.997   7.231   1.433
 5244TIP3   OH215674   1.892   6.831   1.330
 5244TIP3    H115675   1.848   6.868   1.253
 5244TIP3    H215676   1.870   6.736   1.321
 5245TIP3   OH215677   1.898   7.106   1.877
 5245TIP3    H115678   1.908   7.009   1.870
 5245TIP3    H215679   1.884   7.118   1.974
 5246TIP3   OH215680   0.523   7.189   2.622
 5246TIP3    H115681   0.522   7.152   2.531
 5246TIP3    H215682   0.620   7.188   2.639
 5247TIP3   OH215683   2.185   7.528   2.734
 5247TIP3    H115684   2.259   7.464   2.723
 5247TIP3    H215685   2.214   7.603   2.678
 5248TIP3   OH215686   2.372   7.334   2.741
 5248TIP3    H115687   2.298   7.286   2.784
 5248TIP3    H215688   2.446   7.271   2.759
 5249TIP3   OH215689   1.837   6.565   1.313
 5249TIP3    H115690   1.913   6.535   1.366
 5249TIP3    H215691   1.766   6.503   1.338
 5250TIP3   OH215692   1.896   6.824   1.767
 5250TIP3    H115693   1.937   6.736   1.782
 5250TIP3    H215694   1.954   6.857   1.696
 5251TIP3   OH215695   2.055   6.996   2.264
 5251TIP3    H115696   2.141   7.020   2.224
 5251TIP3    H215697   2.069   7.033   2.354
 5252TIP3   OH215698   2.126   7.141   2.495
 5252TIP3    H115699   2.049   7.176   2.546
 5252TIP3    H215700   2.159   7.222   2.451
 5253TIP3   OH215701   0.741   6.862   3.289
 5253TIP3    H115702   0.839   6.859   3.297
 5253TIP3    H215703   0.717   6.779   3.333
 5254TIP3   OH215704   2.571   6.731   3.050
 5254TIP3    H115705   2.635   6.668   3.011
 5254TIP3    H215706   2.546   6.786   2.973
 5255TIP3   OH215707   2.003   6.575   1.807
 5255TIP3    H115708   2.052   6.558   1.891
 5255TIP3    H215709   1.943   6.497   1.806
 5256TIP3   OH215710   0.705   6.558   2.629
 5256TIP3    H115711   0.766   6.483   2.637
 5256TIP3    H215712   0.767   6.632   2.621
 5257TIP3   OH215713   0.506   6.832   2.700
 5257TIP3    H115714   0.555   6.826   2.616
 5257TIP3    H215715   0.539   6.915   2.735
 5258TIP3   OH215716   2.446   6.872   2.854
 5258TIP3    H115717   2.360   6.913   2.874
 5258TIP3    H215718   2.416   6.797   2.798
 5259TIP3   OH215719   2.081   6.507   1.439
 5259TIP3    H115720   2.122   6.435   1.387
 5259TIP3    H215721   2.149   6.577   1.437
 5260TIP3   OH215722   0.486   6.371   2.210
 5260TIP3    H115723   0.398   6.336   2.232
 5260TIP3    H215724   0.472   6.397   2.117
 5261TIP3   OH215725   0.711   6.419   3.017
 5261TIP3    H115726   0.658   6.412   3.099
 5261TIP3    H215727   0.644   6.454   2.955
 5262TIP3   OH215728   2.347   6.632   2.737
 5262TIP3    H115729   2.256   6.622   2.702
 5262TIP3    H215730   2.381   6.540   2.726
 5263TIP3   OH215731   1.547   6.547   2.352
 5263TIP3    H115732   1.508   6.476   2.406
 5263TIP3    H215733   1.624   6.502   2.311
 5264TIP3   OH215734   2.072   6.431   2.259
 5264TIP3    H115735   2.108   6.482   2.184
 5264TIP3    H215736   1.976   6.450   2.253
 5265TIP3   OH215737   2.168   6.530   2.023
 5265TIP3    H115738   2.242   6.477   1.986
 5265TIP3    H215739   2.203   6.620   2.009
 5266TIP3   OH215740   0.800   6.257   2.372
 5266TIP3    H115741   0.708   6.223   2.372
 5266TIP3    H215742   0.849   6.172   2.367
 5267TIP3   OH215743   0.605   6.114   2.041
 5267TIP3    H115744   0.652   6.166   1.971
 5267TIP3    H215745   0.552   6.183   2.083
 5268TIP3   OH215746   1.244   6.293   2.253
 5268TIP3    H115747   1.303   6.339   2.192
 5268TIP3    H215748   1.274   6.326   2.339
 5269TIP3   OH215749   1.787   6.437   2.236
 5269TIP3    H115750   1.792   6.395   2.149
 5269TIP3    H215751   1.777   6.358   2.295
 5270TIP3   OH215752   1.820   6.362   1.799
 5270TIP3    H115753   1.734   6.403   1.816
 5270TIP3    H215754   1.808   6.275   1.844
 5271TIP3   OH215755   0.737   6.256   1.849
 5271TIP3    H115756   0.753   6.214   1.763
 5271TIP3    H215757   0.811   6.320   1.854
 5272TIP3   OH215758   1.224   6.467   1.877
 5272TIP3    H115759   1.278   6.416   1.940
 5272TIP3    H215760   1.245   6.558   1.907
 5273TIP3   OH215761   1.007   6.540   3.264
 5273TIP3    H115762   0.973   6.468   3.320
 5273TIP3    H215763   1.101   6.539   3.290
 5274TIP3   OH215764   1.257   6.538   3.381
 5274TIP3    H115765   1.342   6.514   3.339
 5274TIP3    H215766   1.246   6.465   3.445
 5275TIP3   OH215767   2.085   6.601   3.171
 5275TIP3    H115768   2.108   6.571   3.260
 5275TIP3    H215769   2.172   6.598   3.125
 5276TIP3   OH215770   3.291   7.505   1.433
 5276TIP3    H115771   3.254   7.593   1.410
 5276TIP3    H215772   3.219   7.450   1.399
 5277TIP3   OH215773   3.291   7.517   1.803
 5277TIP3    H115774   3.319   7.507   1.896
 5277TIP3    H215775   3.244   7.433   1.788
 5278TIP3   OH215776   2.584   7.416   2.174
 5278TIP3    H115777   2.616   7.349   2.236
 5278TIP3    H215778   2.657   7.479   2.176
 5279TIP3   OH215779   3.507   7.823   1.500
 5279TIP3    H115780   3.506   7.752   1.567
 5279TIP3    H215781   3.560   7.891   1.545
 5280TIP3   OH215782   2.612   7.766   1.974
 5280TIP3    H115783   2.582   7.680   1.940
 5280TIP3    H215784   2.697   7.778   1.925
 5281TIP3   OH215785   2.265   7.027   1.680
 5281TIP3    H115786   2.220   7.112   1.698
 5281TIP3    H215787   2.193   6.977   1.639
 5282TIP3   OH215788   2.320   7.317   1.857
 5282TIP3    H115789   2.369   7.239   1.891
 5282TIP3    H215790   2.392   7.371   1.821
 5283TIP3   OH215791   3.102   7.736   1.850
 5283TIP3    H115792   3.148   7.661   1.807
 5283TIP3    H215793   3.181   7.786   1.880
 5284TIP3   OH215794   4.116   7.064   1.857
 5284TIP3    H115795   4.127   7.150   1.900
 5284TIP3    H215796   4.133   7.086   1.764
 5285TIP3   OH215797   3.513   7.201   1.915
 5285TIP3    H115798   3.444   7.134   1.906
 5285TIP3    H215799   3.509   7.239   1.825
 5286TIP3   OH215800   2.839   6.909   1.853
 5286TIP3    H115801   2.818   6.981   1.790
 5286TIP3    H215802   2.790   6.835   1.811
 5287TIP3   OH215803   3.532   7.005   1.480
 5287TIP3    H115804   3.599   6.989   1.549
 5287TIP3    H215805   3.588   7.034   1.406
 5288TIP3   OH215806   2.469   7.112   1.962
 5288TIP3    H115807   2.552   7.092   2.010
 5288TIP3    H215808   2.482   7.057   1.882
 5289TIP3   OH215809   2.908   7.310   1.755
 5289TIP3    H115810   3.002   7.286   1.766
 5289TIP3    H215811   2.869   7.225   1.724
 5290TIP3   OH215812   4.161   7.277   2.045
 5290TIP3    H115813   4.088   7.337   2.018
 5290TIP3    H215814   4.208   7.331   2.111
 5291TIP3   OH215815   2.833   6.893   2.289
 5291TIP3    H115816   2.773   6.930   2.222
 5291TIP3    H215817   2.780   6.909   2.370
 5292TIP3   OH215818   3.169   7.709   1.297
 5292TIP3    H115819   3.126   7.709   1.210
 5292TIP3    H215820   3.196   7.803   1.307
 5293TIP3   OH215821   2.936   7.671   2.084
 5293TIP3    H115822   2.873   7.737   2.117
 5293TIP3    H215823   2.973   7.717   2.007
 5294TIP3   OH215824   3.731   7.006   1.667
 5294TIP3    H115825   3.780   6.926   1.692
 5294TIP3    H215826   3.793   7.077   1.690
 5295TIP3   OH215827   2.705   7.008   2.072
 5295TIP3    H115828   2.766   7.081   2.094
 5295TIP3    H215829   2.754   6.967   1.997
 5296TIP3   OH215830   2.765   7.883   2.187
 5296TIP3    H115831   2.720   7.881   2.101
 5296TIP3    H215832   2.687   7.880   2.247
 5297TIP3   OH215833   2.162   7.517   1.429
 5297TIP3    H115834   2.129   7.547   1.342
 5297TIP3    H215835   2.182   7.604   1.467
 5298TIP3   OH215836   3.186   6.607   2.008
 5298TIP3    H115837   3.171   6.512   2.026
 5298TIP3    H215838   3.108   6.646   2.054
 5299TIP3   OH215839   3.536   7.841   1.218
 5299TIP3    H115840   3.505   7.760   1.172
 5299TIP3    H215841   3.543   7.812   1.311
 5300TIP3   OH215842   3.830   7.977   1.993
 5300TIP3    H115843   3.812   7.894   1.945
 5300TIP3    H215844   3.782   8.042   1.940
 5301TIP3   OH215845   3.120   7.368   1.265
 5301TIP3    H115846   3.039   7.419   1.246
 5301TIP3    H215847   3.163   7.365   1.178
 5302TIP3   OH215848   3.077   7.159   0.975
 5302TIP3    H115849   3.145   7.211   1.021
 5302TIP3    H215850   3.134   7.095   0.927
 5303TIP3   OH215851   4.027   7.612   1.847
 5303TIP3    H115852   3.943   7.663   1.853
 5303TIP3    H215853   4.057   7.641   1.758
 5304TIP3   OH215854   3.467   7.449   1.234
 5304TIP3    H115855   3.411   7.471   1.312
 5304TIP3    H215856   3.551   7.424   1.278
 5305TIP3   OH215857   3.682   7.487   2.119
 5305TIP3    H115858   3.701   7.561   2.183
 5305TIP3    H215859   3.600   7.523   2.080
 5306TIP3   OH215860   2.703   7.454   1.639
 5306TIP3    H115861   2.661   7.393   1.574
 5306TIP3    H215862   2.779   7.401   1.671
 5307TIP3   OH215863   2.838   7.819   1.843
 5307TIP3    H115864   2.801   7.818   1.753
 5307TIP3    H215865   2.934   7.818   1.828
 5308TIP3   OH215866   2.832   7.429   1.999
 5308TIP3    H115867   2.867   7.408   1.910
 5308TIP3    H215868   2.875   7.515   2.019
 5309TIP3   OH215869   3.009   7.886   2.326
 5309TIP3    H115870   2.977   7.974   2.351
 5309TIP3    H215871   2.934   7.857   2.271
 5310TIP3   OH215872   3.300   7.314   1.060
 5310TIP3    H115873   3.362   7.372   1.109
 5310TIP3    H215874   3.330   7.331   0.967
 5311TIP3   OH215875   2.728   7.535   2.427
 5311TIP3    H115876   2.735   7.623   2.469
 5311TIP3    H215877   2.633   7.516   2.443
 5312TIP3   OH215878   3.821   6.559   1.108
 5312TIP3    H115879   3.739   6.580   1.155
 5312TIP3    H215880   3.834   6.640   1.053
 5313TIP3   OH215881   2.568   7.296   1.450
 5313TIP3    H115882   2.500   7.338   1.392
 5313TIP3    H215883   2.527   7.210   1.468
 5314TIP3   OH215884   2.363   7.680   2.360
 5314TIP3    H115885   2.293   7.658   2.295
 5314TIP3    H215886   2.396   7.593   2.388
 5315TIP3   OH215887   3.968   7.455   2.322
 5315TIP3    H115888   3.882   7.499   2.313
 5315TIP3    H215889   3.947   7.362   2.335
 5316TIP3   OH215890   2.552   7.883   2.361
 5316TIP3    H115891   2.606   7.845   2.434
 5316TIP3    H215892   2.480   7.817   2.354
 5317TIP3   OH215893   2.948   6.689   2.133
 5317TIP3    H115894   2.860   6.657   2.105
 5317TIP3    H215895   2.921   6.768   2.183
 5318TIP3   OH215896   3.481   6.804   2.319
 5318TIP3    H115897   3.549   6.779   2.385
 5318TIP3    H215898   3.397   6.788   2.367
 5319TIP3   OH215899   3.719   7.240   2.211
 5319TIP3    H115900   3.681   7.229   2.302
 5319TIP3    H215901   3.707   7.338   2.198
 5320TIP3   OH215902   3.388   7.349   0.811
 5320TIP3    H115903   3.345   7.332   0.725
 5320TIP3    H215904   3.457   7.413   0.786
 5321TIP3   OH215905   3.093   6.735   1.103
 5321TIP3    H115906   3.059   6.732   1.195
 5321TIP3    H215907   3.055   6.652   1.069
 5322TIP3   OH215908   2.884   7.205   2.148
 5322TIP3    H115909   2.834   7.223   2.230
 5322TIP3    H215910   2.865   7.287   2.096
 5323TIP3   OH215911   2.765   7.090   1.664
 5323TIP3    H115912   2.672   7.064   1.683
 5323TIP3    H215913   2.777   7.049   1.576
 5324TIP3   OH215914   3.258   7.171   1.397
 5324TIP3    H115915   3.205   7.240   1.352
 5324TIP3    H215916   3.313   7.139   1.323
 5325TIP3   OH215917   3.431   7.450   2.471
 5325TIP3    H115918   3.410   7.382   2.539
 5325TIP3    H215919   3.520   7.477   2.499
 5326TIP3   OH215920   3.419   7.204   1.637
 5326TIP3    H115921   3.355   7.239   1.572
 5326TIP3    H215922   3.447   7.124   1.588
 5327TIP3   OH215923   2.703   7.230   2.357
 5327TIP3    H115924   2.723   7.296   2.425
 5327TIP3    H215925   2.690   7.150   2.411
 5328TIP3   OH215926   2.750   6.711   1.069
 5328TIP3    H115927   2.741   6.709   1.166
 5328TIP3    H215928   2.672   6.763   1.044
 5329TIP3   OH215929   2.293   6.753   1.940
 5329TIP3    H115930   2.368   6.785   1.995
 5329TIP3    H215931   2.336   6.722   1.860
 5330TIP3   OH215932   2.259   6.733   1.459
 5330TIP3    H115933   2.305   6.771   1.381
 5330TIP3    H215934   2.200   6.807   1.480
 5331TIP3   OH215935   3.404   7.436   2.043
 5331TIP3    H115936   3.446   7.364   1.995
 5331TIP3    H215937   3.383   7.392   2.128
 5332TIP3   OH215938   3.095   6.924   1.727
 5332TIP3    H115939   3.015   6.913   1.782
 5332TIP3    H215940   3.166   6.892   1.787
 5333TIP3   OH215941   2.527   6.969   1.733
 5333TIP3    H115942   2.433   6.975   1.705
 5333TIP3    H215943   2.550   6.877   1.711
 5334TIP3   OH215944   2.792   6.963   1.423
 5334TIP3    H115945   2.886   6.977   1.401
 5334TIP3    H215946   2.746   6.986   1.339
 5335TIP3   OH215947   2.639   6.998   1.199
 5335TIP3    H115948   2.570   6.952   1.148
 5335TIP3    H215949   2.693   7.036   1.126
 5336TIP3   OH215950   2.715   7.783   2.565
 5336TIP3    H115951   2.794   7.811   2.616
 5336TIP3    H215952   2.650   7.774   2.638
 5337TIP3   OH215953   3.177   7.247   1.828
 5337TIP3    H115954   3.229   7.188   1.771
 5337TIP3    H215955   3.169   7.197   1.911
 5338TIP3   OH215956   2.695   6.726   1.706
 5338TIP3    H115957   2.659   6.648   1.754
 5338TIP3    H215958   2.741   6.684   1.633
 5339TIP3   OH215959   3.155   7.146   2.106
 5339TIP3    H115960   3.062   7.174   2.121
 5339TIP3    H215961   3.205   7.206   2.164
 5340TIP3   OH215962   2.889   7.512   1.215
 5340TIP3    H115963   2.811   7.455   1.200
 5340TIP3    H215964   2.865   7.557   1.299
 5341TIP3   OH215965   3.793   7.750   1.836
 5341TIP3    H115966   3.817   7.802   1.757
 5341TIP3    H215967   3.702   7.721   1.816
 5342TIP3   OH215968   3.346   6.834   1.081
 5342TIP3    H115969   3.249   6.817   1.083
 5342TIP3    H215970   3.353   6.930   1.097
 5343TIP3   OH215971   3.297   7.857   2.209
 5343TIP3    H115972   3.334   7.822   2.291
 5343TIP3    H215973   3.220   7.906   2.242
 5344TIP3   OH215974   3.414   7.088   1.178
 5344TIP3    H115975   3.511   7.094   1.188
 5344TIP3    H215976   3.394   7.165   1.122
 5345TIP3   OH215977   2.560   7.504   1.872
 5345TIP3    H115978   2.614   7.496   1.790
 5345TIP3    H215979   2.617   7.463   1.938
 5346TIP3   OH215980   2.999   7.698   1.049
 5346TIP3    H115981   2.959   7.769   1.104
 5346TIP3    H215982   2.965   7.620   1.097
 5347TIP3   OH215983   2.467   7.461   2.497
 5347TIP3    H115984   2.481   7.448   2.593
 5347TIP3    H215985   2.393   7.399   2.481
 5348TIP3   OH215986   3.190   7.571   2.525
 5348TIP3    H115987   3.128   7.520   2.471
 5348TIP3    H215988   3.277   7.544   2.489
 5349TIP3   OH215989   3.856   7.180   1.011
 5349TIP3    H115990   3.792   7.135   0.950
 5349TIP3    H215991   3.853   7.269   0.969
 5350TIP3   OH215992   4.075   8.017   2.095
 5350TIP3    H115993   3.979   8.024   2.079
 5350TIP3    H215994   4.106   8.002   2.003
 5351TIP3   OH215995   3.551   7.633   1.731
 5351TIP3    H115996   3.460   7.612   1.759
 5351TIP3    H215997   3.581   7.547   1.696
 5352TIP3   OH215998   2.245   7.157   1.212
 5352TIP3    H115999   2.294   7.239   1.233
 5352TIP3    H216000   2.171   7.162   1.275
 5353TIP3   OH216001   2.814   7.633   1.454
 5353TIP3    H116002   2.777   7.712   1.493
 5353TIP3    H216003   2.788   7.568   1.522
 5354TIP3   OH216004   3.343   7.823   1.938
 5354TIP3    H116005   3.322   7.837   2.033
 5354TIP3    H216006   3.440   7.820   1.945
 5355TIP3   OH216007   3.349   7.668   0.790
 5355TIP3    H116008   3.381   7.653   0.881
 5355TIP3    H216009   3.265   7.714   0.806
 5356TIP3   OH216010   2.672   6.974   2.503
 5356TIP3    H116011   2.576   6.977   2.517
 5356TIP3    H216012   2.700   6.918   2.577
 5357TIP3   OH216013   3.471   7.638   1.038
 5357TIP3    H116014   3.466   7.565   1.103
 5357TIP3    H216015   3.568   7.637   1.018
 5358TIP3   OH216016   2.658   7.656   0.866
 5358TIP3    H116017   2.698   7.572   0.836
 5358TIP3    H216018   2.701   7.670   0.950
 5359TIP3   OH216019   2.365   7.396   1.291
 5359TIP3    H116020   2.299   7.434   1.353
 5359TIP3    H216021   2.373   7.469   1.226
 5360TIP3   OH216022   3.552   7.020   2.173
 5360TIP3    H116023   3.559   7.049   2.266
 5360TIP3    H216024   3.517   6.930   2.191
 5361TIP3   OH216025   3.389   6.790   1.356
 5361TIP3    H116026   3.375   6.808   1.261
 5361TIP3    H216027   3.428   6.874   1.388
 5362TIP3   OH216028   3.076   6.971   1.455
 5362TIP3    H116029   3.142   7.041   1.436
 5362TIP3    H216030   3.082   6.965   1.553
 5363TIP3   OH216031   3.365   7.284   2.267
 5363TIP3    H116032   3.366   7.360   2.329
 5363TIP3    H216033   3.403   7.217   2.325
 5364TIP3   OH216034   3.220   6.693   1.555
 5364TIP3    H116035   3.219   6.770   1.615
 5364TIP3    H216036   3.282   6.727   1.485
 5365TIP3   OH216037   2.734   6.696   1.346
 5365TIP3    H116038   2.731   6.786   1.383
 5365TIP3    H216039   2.830   6.678   1.353
 5366TIP3   OH216040   3.978   7.138   2.223
 5366TIP3    H116041   3.888   7.173   2.219
 5366TIP3    H216042   4.025   7.188   2.155
 5367TIP3   OH216043   3.636   7.379   1.635
 5367TIP3    H116044   3.563   7.315   1.634
 5367TIP3    H216045   3.710   7.330   1.678
 5368TIP3   OH216046   2.353   7.611   1.105
 5368TIP3    H116047   2.382   7.704   1.096
 5368TIP3    H216048   2.411   7.565   1.042
 5369TIP3   OH216049   2.295   6.887   1.237
 5369TIP3    H116050   2.296   6.985   1.232
 5369TIP3    H216051   2.215   6.866   1.188
 5370TIP3   OH216052   2.685   6.607   2.105
 5370TIP3    H116053   2.653   6.572   2.019
 5370TIP3    H216054   2.674   6.529   2.164
 5371TIP3   OH216055   2.512   7.756   2.745
 5371TIP3    H116056   2.532   7.661   2.754
 5371TIP3    H216057   2.421   7.754   2.708
 5372TIP3   OH216058   2.488   7.415   0.964
 5372TIP3    H116059   2.544   7.381   1.037
 5372TIP3    H216060   2.557   7.421   0.894
 5373TIP3   OH216061   3.131   7.835   2.561
 5373TIP3    H116062   3.096   7.848   2.471
 5373TIP3    H216063   3.169   7.745   2.554
 5374TIP3   OH216064   2.932   7.597   0.774
 5374TIP3    H116065   2.971   7.615   0.861
 5374TIP3    H216066   2.967   7.507   0.756
 5375TIP3   OH216067   3.589   7.832   2.067
 5375TIP3    H116068   3.669   7.884   2.082
 5375TIP3    H216069   3.535   7.869   2.139
 5376TIP3   OH216070   2.634   7.503   2.744
 5376TIP3    H116071   2.713   7.452   2.721
 5376TIP3    H216072   2.659   7.538   2.832
 5377TIP3   OH216073   2.684   7.327   1.168
 5377TIP3    H116074   2.663   7.285   1.253
 5377TIP3    H216075   2.727   7.254   1.119
 5378TIP3   OH216076   2.968   7.394   2.399
 5378TIP3    H116077   2.889   7.452   2.404
 5378TIP3    H216078   3.014   7.430   2.320
 5379TIP3   OH216079   2.799   7.125   1.017
 5379TIP3    H116080   2.774   7.124   0.922
 5379TIP3    H216081   2.897   7.129   1.009
 5380TIP3   OH216082   3.469   7.785   2.521
 5380TIP3    H116083   3.550   7.826   2.485
 5380TIP3    H216084   3.500   7.732   2.597
 5381TIP3   OH216085   3.616   7.480   0.708
 5381TIP3    H116086   3.595   7.419   0.634
 5381TIP3    H216087   3.599   7.564   0.661
 5382TIP3   OH216088   3.091   7.185   2.527
 5382TIP3    H116089   3.087   7.105   2.471
 5382TIP3    H216090   3.044   7.252   2.471
 5383TIP3   OH216091   3.091   6.971   2.334
 5383TIP3    H116092   3.115   7.009   2.248
 5383TIP3    H216093   2.997   6.945   2.319
 5384TIP3   OH216094   3.120   7.505   2.202
 5384TIP3    H116095   3.200   7.528   2.154
 5384TIP3    H216096   3.057   7.571   2.167
 5385TIP3   OH216097   3.696   7.472   2.584
 5385TIP3    H116098   3.756   7.402   2.617
 5385TIP3    H216099   3.757   7.542   2.557
 5386TIP3   OH216100   3.757   7.665   2.301
 5386TIP3    H116101   3.703   7.747   2.308
 5386TIP3    H216102   3.840   7.710   2.271
 5387TIP3   OH216103   2.966   7.290   2.761
 5387TIP3    H116104   2.899   7.221   2.776
 5387TIP3    H216105   3.001   7.265   2.673
 5388TIP3   OH216106   3.224   6.732   2.400
 5388TIP3    H116107   3.171   6.813   2.381
 5388TIP3    H216108   3.155   6.662   2.392
 5389TIP3   OH216109   3.355   7.230   2.613
 5389TIP3    H116110   3.346   7.219   2.709
 5389TIP3    H216111   3.262   7.210   2.587
 5390TIP3   OH216112   3.587   7.167   2.448
 5390TIP3    H116113   3.517   7.182   2.514
 5390TIP3    H216114   3.663   7.148   2.508
 5391TIP3   OH216115   3.812   7.126   2.616
 5391TIP3    H116116   3.825   7.031   2.638
 5391TIP3    H216117   3.805   7.166   2.705
 5392TIP3   OH216118   2.806   7.070   2.815
 5392TIP3    H116119   2.810   6.978   2.783
 5392TIP3    H216120   2.843   7.059   2.905
 5393TIP3   OH216121   3.319   6.745   2.658
 5393TIP3    H116122   3.384   6.671   2.657
 5393TIP3    H216123   3.278   6.735   2.570
 5394TIP3   OH216124   3.385   6.958   2.818
 5394TIP3    H116125   3.362   6.886   2.755
 5394TIP3    H216126   3.305   7.015   2.814
 5395TIP3   OH216127   2.081   7.529   1.114
 5395TIP3    H116128   2.171   7.567   1.106
 5395TIP3    H216129   2.092   7.441   1.073
 5396TIP3   OH216130   3.982   8.152   2.364
 5396TIP3    H116131   3.894   8.115   2.384
 5396TIP3    H216132   3.994   8.206   2.444
 5397TIP3   OH216133   3.746   7.635   1.022
 5397TIP3    H116134   3.819   7.692   0.991
 5397TIP3    H216135   3.788   7.593   1.100
 5398TIP3   OH216136   3.880   7.504   1.216
 5398TIP3    H116137   3.818   7.461   1.279
 5398TIP3    H216138   3.950   7.539   1.276
 5399TIP3   OH216139   3.917   7.894   1.643
 5399TIP3    H116140   3.986   7.842   1.596
 5399TIP3    H216141   3.925   7.982   1.603
 5400TIP3   OH216142   3.825   7.417   0.870
 5400TIP3    H116143   3.752   7.422   0.804
 5400TIP3    H216144   3.797   7.489   0.929
 5401TIP3   OH216145   3.687   7.092   0.821
 5401TIP3    H116146   3.675   7.124   0.730
 5401TIP3    H216147   3.660   6.998   0.812
 5402TIP3   OH216148   3.695   7.363   1.364
 5402TIP3    H116149   3.702   7.267   1.353
 5402TIP3    H216150   3.681   7.374   1.460
 5403TIP3   OH216151   2.320   7.444   2.109
 5403TIP3    H116152   2.317   7.408   2.018
 5403TIP3    H216153   2.417   7.443   2.126
 5404TIP3   OH216154   3.984   7.780   2.217
 5404TIP3    H116155   4.067   7.728   2.207
 5404TIP3    H216156   4.001   7.859   2.162
 5405TIP3   OH216157   4.179   7.594   2.226
 5405TIP3    H116158   4.104   7.547   2.268
 5405TIP3    H216159   4.250   7.529   2.242
 5406TIP3   OH216160   3.630   6.827   0.807
 5406TIP3    H116161   3.706   6.789   0.855
 5406TIP3    H216162   3.559   6.762   0.820
 5407TIP3   OH216163   3.695   7.084   1.257
 5407TIP3    H116164   3.734   6.994   1.270
 5407TIP3    H216165   3.750   7.115   1.183
 5408TIP3   OH216166   3.852   7.256   1.758
 5408TIP3    H116167   3.937   7.276   1.711
 5408TIP3    H216168   3.873   7.302   1.842
 5409TIP3   OH216169   3.916   7.403   1.986
 5409TIP3    H116170   3.840   7.445   2.031
 5409TIP3    H216171   3.955   7.480   1.939
 5410TIP3   OH216172   2.539   7.122   2.780
 5410TIP3    H116173   2.637   7.117   2.786
 5410TIP3    H216174   2.515   7.036   2.821
 5411TIP3   OH216175   4.354   7.015   2.542
 5411TIP3    H116176   4.424   6.948   2.536
 5411TIP3    H216177   4.342   7.050   2.451
 5412TIP3   OH216178   3.797   6.832   1.297
 5412TIP3    H116179   3.847   6.809   1.378
 5412TIP3    H216180   3.736   6.755   1.292
 5413TIP3   OH216181   2.500   6.816   2.114
 5413TIP3    H116182   2.562   6.741   2.123
 5413TIP3    H216183   2.562   6.890   2.106
 5414TIP3   OH216184   2.300   7.089   2.186
 5414TIP3    H116185   2.351   7.086   2.102
 5414TIP3    H216186   2.330   7.173   2.224
 5415TIP3   OH216187   4.240   7.137   2.335
 5415TIP3    H116188   4.166   7.172   2.390
 5415TIP3    H216189   4.191   7.072   2.280
 5416TIP3   OH216190   3.880   6.762   0.926
 5416TIP3    H116191   3.918   6.690   0.872
 5416TIP3    H216192   3.948   6.832   0.919
 5417TIP3   OH216193   2.287   6.591   1.688
 5417TIP3    H116194   2.194   6.588   1.716
 5417TIP3    H216195   2.282   6.650   1.609
 5418TIP3   OH216196   2.507   6.673   2.502
 5418TIP3    H116197   2.456   6.667   2.585
 5418TIP3    H216198   2.439   6.710   2.442
 5419TIP3   OH216199   4.137   6.889   2.230
 5419TIP3    H116200   4.049   6.929   2.212
 5419TIP3    H216201   4.119   6.796   2.209
 5420TIP3   OH216202   3.321   6.802   1.837
 5420TIP3    H116203   3.294   6.730   1.897
 5420TIP3    H216204   3.409   6.773   1.807
 5421TIP3   OH216205   3.867   6.713   1.767
 5421TIP3    H116206   3.907   6.741   1.681
 5421TIP3    H216207   3.773   6.703   1.744
 5422TIP3   OH216208   3.961   6.784   1.519
 5422TIP3    H116209   4.031   6.730   1.477
 5422TIP3    H216210   3.998   6.874   1.500
 5423TIP3   OH216211   2.595   6.513   1.858
 5423TIP3    H116212   2.503   6.480   1.861
 5423TIP3    H216213   2.645   6.428   1.855
 5424TIP3   OH216214   2.381   6.386   1.507
 5424TIP3    H116215   2.413   6.442   1.435
 5424TIP3    H216216   2.356   6.452   1.575
 5425TIP3   OH216217   3.041   6.547   1.739
 5425TIP3    H116218   3.100   6.593   1.677
 5425TIP3    H216219   3.068   6.584   1.824
 5426TIP3   OH216220   3.592   6.691   1.719
 5426TIP3    H116221   3.580   6.652   1.632
 5426TIP3    H216222   3.575   6.614   1.778
 5427TIP3   OH216223   3.616   6.620   1.288
 5427TIP3    H116224   3.528   6.660   1.299
 5427TIP3    H216225   3.602   6.533   1.331
 5428TIP3   OH216226   2.502   6.544   1.269
 5428TIP3    H116227   2.550   6.480   1.212
 5428TIP3    H216228   2.576   6.597   1.304
 5429TIP3   OH216229   3.010   6.721   1.368
 5429TIP3    H116230   3.070   6.673   1.428
 5429TIP3    H216231   3.032   6.813   1.393
 5430TIP3   OH216232   2.804   6.795   2.751
 5430TIP3    H116233   2.770   6.724   2.808
 5430TIP3    H216234   2.898   6.795   2.778
 5431TIP3   OH216235   3.053   6.791   2.870
 5431TIP3    H116236   3.139   6.762   2.835
 5431TIP3    H216237   3.039   6.723   2.940
 5432TIP3   OH216238   3.877   6.857   2.658
 5432TIP3    H116239   3.892   6.826   2.750
 5432TIP3    H216240   3.967   6.849   2.620
 5433TIP3   OH216241   5.078   7.773   0.922
 5433TIP3    H116242   5.053   7.862   0.893
 5433TIP3    H216243   5.010   7.720   0.876
 5434TIP3   OH216244   5.088   7.779   1.296
 5434TIP3    H116245   5.118   7.753   1.385
 5434TIP3    H216246   5.042   7.699   1.266
 5435TIP3   OH216247   4.381   7.674   1.659
 5435TIP3    H116248   4.414   7.606   1.722
 5435TIP3    H216249   4.453   7.739   1.663
 5436TIP3   OH216250   5.305   8.079   0.984
 5436TIP3    H116251   5.310   8.002   1.043
 5436TIP3    H216252   5.355   8.145   1.032
 5437TIP3   OH216253   4.411   8.024   1.462
 5437TIP3    H116254   4.380   7.937   1.430
 5437TIP3    H216255   4.494   8.035   1.412
 5438TIP3   OH216256   4.060   7.284   1.168
 5438TIP3    H116257   4.013   7.367   1.184
 5438TIP3    H216258   3.990   7.233   1.124
 5439TIP3   OH216259   4.115   7.573   1.345
 5439TIP3    H116260   4.165   7.496   1.379
 5439TIP3    H216261   4.186   7.626   1.304
 5440TIP3   OH216262   4.898   7.995   1.337
 5440TIP3    H116263   4.946   7.919   1.299
 5440TIP3    H216264   4.975   8.049   1.366
 5441TIP3   OH216265   5.893   7.323   1.347
 5441TIP3    H116266   5.921   7.406   1.390
 5441TIP3    H216267   5.911   7.343   1.254
 5442TIP3   OH216268   5.293   7.504   1.377
 5442TIP3    H116269   5.335   7.421   1.400
 5442TIP3    H216270   5.264   7.489   1.285
 5443TIP3   OH216271   4.637   7.165   1.338
 5443TIP3    H116272   4.613   7.237   1.277
 5443TIP3    H216273   4.589   7.090   1.295
 5444TIP3   OH216274   5.326   7.261   0.960
 5444TIP3    H116275   5.399   7.248   1.026
 5444TIP3    H216276   5.378   7.287   0.881
 5445TIP3   OH216277   4.264   7.367   1.450
 5445TIP3    H116278   4.348   7.347   1.496
 5445TIP3    H216279   4.276   7.312   1.370
 5446TIP3   OH216280   4.705   7.566   1.241
 5446TIP3    H116281   4.798   7.540   1.254
 5446TIP3    H216282   4.664   7.482   1.210
 5447TIP3   OH216283   5.968   7.534   1.514
 5447TIP3    H116284   5.885   7.583   1.495
 5447TIP3    H216285   5.990   7.569   1.602
 5448TIP3   OH216286   4.628   7.150   1.776
 5448TIP3    H116287   4.570   7.186   1.707
 5448TIP3    H216288   4.574   7.169   1.856
 5449TIP3   OH216289   4.962   7.974   0.748
 5449TIP3    H116290   4.879   7.927   0.733
 5449TIP3    H216291   4.926   8.054   0.791
 5450TIP3   OH216292   4.732   7.930   1.569
 5450TIP3    H116293   4.666   7.994   1.602
 5450TIP3    H216294   4.765   7.977   1.490
 5451TIP3   OH216295   5.530   7.267   1.146
 5451TIP3    H116296   5.572   7.202   1.202
 5451TIP3    H216297   5.579   7.348   1.167
 5452TIP3   OH216298   4.502   7.264   1.558
 5452TIP3    H116299   4.563   7.338   1.580
 5452TIP3    H216300   4.551   7.223   1.482
 5453TIP3   OH216301   4.562   8.139   1.676
 5453TIP3    H116302   4.516   8.136   1.590
 5453TIP3    H216303   4.484   8.137   1.736
 5454TIP3   OH216304   3.958   7.775   0.917
 5454TIP3    H116305   3.917   7.798   0.832
 5454TIP3    H216306   3.975   7.864   0.950
 5455TIP3   OH216307   5.689   7.204   1.502
 5455TIP3    H116308   5.614   7.265   1.492
 5455TIP3    H216309   5.752   7.236   1.435
 5456TIP3   OH216310   4.980   6.869   1.494
 5456TIP3    H116311   4.969   6.773   1.511
 5456TIP3    H216312   4.901   6.904   1.540
 5457TIP3   OH216313   5.617   8.234   1.491
 5457TIP3    H116314   5.605   8.156   1.434
 5457TIP3    H216315   5.642   8.304   1.427
 5458TIP3   OH216316   4.921   7.631   0.740
 5458TIP3    H116317   4.835   7.679   0.734
 5458TIP3    H216318   4.946   7.634   0.647
 5459TIP3   OH216319   5.816   7.871   1.330
 5459TIP3    H116320   5.733   7.922   1.339
 5459TIP3    H216321   5.843   7.898   1.240
 5460TIP3   OH216322   5.263   7.721   0.727
 5460TIP3    H116323   5.208   7.743   0.804
 5460TIP3    H216324   5.346   7.692   0.770
 5461TIP3   OH216325   5.496   7.752   1.631
 5461TIP3    H116326   5.496   7.835   1.682
 5461TIP3    H216327   5.409   7.757   1.588
 5462TIP3   OH216328   4.496   7.709   1.128
 5462TIP3    H116329   4.456   7.650   1.061
 5462TIP3    H216330   4.574   7.658   1.157
 5463TIP3   OH216331   4.634   8.076   1.328
 5463TIP3    H116332   4.596   8.073   1.239
 5463TIP3    H216333   4.731   8.073   1.311
 5464TIP3   OH216334   4.631   7.685   1.485
 5464TIP3    H116335   4.664   7.664   1.396
 5464TIP3    H216336   4.672   7.771   1.504
 5465TIP3   OH216337   4.811   8.144   1.810
 5465TIP3    H116338   4.776   8.232   1.833
 5465TIP3    H216339   4.735   8.111   1.758
 5466TIP3   OH216340   4.524   7.791   1.913
 5466TIP3    H116341   4.531   7.879   1.956
 5466TIP3    H216342   4.429   7.772   1.930
 5467TIP3   OH216343   4.363   7.550   0.938
 5467TIP3    H116344   4.295   7.592   0.882
 5467TIP3    H216345   4.325   7.462   0.951
 5468TIP3   OH216346   4.161   7.939   1.849
 5468TIP3    H116347   4.084   7.926   1.791
 5468TIP3    H216348   4.190   7.848   1.870
 5469TIP3   OH216349   5.753   7.715   1.809
 5469TIP3    H116350   5.668   7.728   1.766
 5469TIP3    H216351   5.764   7.618   1.802
 5470TIP3   OH216352   4.350   8.140   1.850
 5470TIP3    H116353   4.402   8.099   1.922
 5470TIP3    H216354   4.276   8.077   1.841
 5471TIP3   OH216355   4.744   6.944   1.621
 5471TIP3    H116356   4.656   6.913   1.592
 5471TIP3    H216357   4.716   7.025   1.669
 5472TIP3   OH216358   5.280   7.060   1.809
 5472TIP3    H116359   5.355   7.029   1.864
 5472TIP3    H216360   5.201   7.033   1.861
 5473TIP3   OH216361   5.520   7.491   1.731
 5473TIP3    H116362   5.470   7.486   1.816
 5473TIP3    H216363   5.494   7.579   1.697
 5474TIP3   OH216364   4.909   6.998   0.593
 5474TIP3    H116365   4.862   6.986   0.677
 5474TIP3    H216366   4.874   6.922   0.543
 5475TIP3   OH216367   4.678   7.462   1.635
 5475TIP3    H116368   4.627   7.481   1.717
 5475TIP3    H216369   4.661   7.543   1.583
 5476TIP3   OH216370   4.560   7.346   1.152
 5476TIP3    H116371   4.468   7.320   1.170
 5476TIP3    H216372   4.573   7.307   1.063
 5477TIP3   OH216373   5.049   7.436   0.880
 5477TIP3    H116374   4.990   7.504   0.840
 5477TIP3    H216375   5.119   7.434   0.814
 5478TIP3   OH216376   5.228   7.705   1.961
 5478TIP3    H116377   5.205   7.634   2.025
 5478TIP3    H216378   5.321   7.723   1.986
 5479TIP3   OH216379   5.212   7.461   1.118
 5479TIP3    H116380   5.149   7.495   1.052
 5479TIP3    H216381   5.243   7.381   1.069
 5480TIP3   OH216382   4.499   7.489   1.845
 5480TIP3    H116383   4.516   7.558   1.911
 5480TIP3    H216384   4.489   7.409   1.900
 5481TIP3   OH216385   4.537   6.940   0.577
 5481TIP3    H116386   4.524   6.948   0.673
 5481TIP3    H216387   4.486   7.015   0.543
 5482TIP3   OH216388   4.083   7.009   1.436
 5482TIP3    H116389   4.164   7.040   1.482
 5482TIP3    H216390   4.115   6.980   1.349
 5483TIP3   OH216391   4.058   6.991   0.946
 5483TIP3    H116392   4.106   7.026   0.868
 5483TIP3    H216393   3.997   7.065   0.964
 5484TIP3   OH216394   5.220   7.706   1.541
 5484TIP3    H116395   5.251   7.634   1.482
 5484TIP3    H216396   5.189   7.653   1.618
 5485TIP3   OH216397   4.891   7.167   1.213
 5485TIP3    H116398   4.805   7.162   1.260
 5485TIP3    H216399   4.953   7.169   1.288
 5486TIP3   OH216400   4.322   7.225   1.220
 5486TIP3    H116401   4.227   7.233   1.193
 5486TIP3    H216402   4.343   7.133   1.197
 5487TIP3   OH216403   4.592   7.224   0.910
 5487TIP3    H116404   4.684   7.233   0.882
 5487TIP3    H216405   4.541   7.252   0.830
 5488TIP3   OH216406   5.375   7.169   1.433
 5488TIP3    H116407   5.354   7.216   1.517
 5488TIP3    H216408   5.284   7.157   1.398
 5489TIP3   OH216409   4.419   7.271   0.699
 5489TIP3    H116410   4.342   7.222   0.666
 5489TIP3    H216411   4.486   7.248   0.630
 5490TIP3   OH216412   4.513   8.038   2.053
 5490TIP3    H116413   4.590   8.068   2.105
 5490TIP3    H216414   4.446   8.030   2.125
 5491TIP3   OH216415   4.970   7.498   1.311
 5491TIP3    H116416   5.043   7.457   1.263
 5491TIP3    H216417   4.975   7.456   1.399
 5492TIP3   OH216418   4.495   6.981   1.191
 5492TIP3    H116419   4.458   6.904   1.238
 5492TIP3    H216420   4.525   6.941   1.108
 5493TIP3   OH216421   4.948   7.398   1.597
 5493TIP3    H116422   4.857   7.431   1.612
 5493TIP3    H216423   5.003   7.458   1.650
 5494TIP3   OH216424   4.701   7.784   0.707
 5494TIP3    H116425   4.627   7.722   0.688
 5494TIP3    H216426   4.668   7.825   0.791
 5495TIP3   OH216427   5.584   8.012   1.328
 5495TIP3    H116428   5.611   8.063   1.248
 5495TIP3    H216429   5.497   7.975   1.300
 5496TIP3   OH216430   5.095   8.124   1.692
 5496TIP3    H116431   5.125   8.076   1.771
 5496TIP3    H216432   5.010   8.159   1.724
 5497TIP3   OH216433   4.356   7.764   1.360
 5497TIP3    H116434   4.409   7.753   1.278
 5497TIP3    H216435   4.412   7.720   1.426
 5498TIP3   OH216436   4.264   7.714   1.983
 5498TIP3    H116437   4.276   7.703   2.079
 5498TIP3    H216438   4.187   7.658   1.966
 5499TIP3   OH216439   4.987   7.830   2.010
 5499TIP3    H116440   4.924   7.779   1.958
 5499TIP3    H216441   5.073   7.797   1.975
 5500TIP3   OH216442   5.875   8.271   1.580
 5500TIP3    H116443   5.778   8.285   1.568
 5500TIP3    H216444   5.902   8.260   1.486
 5501TIP3   OH216445   5.350   7.887   1.233
 5501TIP3    H116446   5.257   7.862   1.251
 5501TIP3    H216447   5.383   7.804   1.194
 5502TIP3   OH216448   4.050   7.406   0.711
 5502TIP3    H116449   4.093   7.492   0.728
 5502TIP3    H216450   3.969   7.415   0.766
 5503TIP3   OH216451   4.618   7.881   0.946
 5503TIP3    H116452   4.585   7.969   0.970
 5503TIP3    H216453   4.581   7.828   1.019
 5504TIP3   OH216454   5.140   8.087   1.422
 5504TIP3    H116455   5.128   8.099   1.518
 5504TIP3    H216456   5.225   8.041   1.417
 5505TIP3   OH216457   4.468   7.230   1.992
 5505TIP3    H116458   4.372   7.233   2.008
 5505TIP3    H216459   4.498   7.173   2.065
 5506TIP3   OH216460   4.163   7.652   0.782
 5506TIP3    H116461   4.096   7.690   0.843
 5506TIP3    H216462   4.177   7.727   0.720
 5507TIP3   OH216463   5.319   7.290   1.666
 5507TIP3    H116464   5.386   7.336   1.719
 5507TIP3    H216465   5.297   7.213   1.724
 5508TIP3   OH216466   5.171   7.051   0.845
 5508TIP3    H116467   5.138   7.076   0.758
 5508TIP3    H216468   5.224   7.129   0.872
 5509TIP3   OH216469   4.880   7.224   0.943
 5509TIP3    H116470   4.941   7.298   0.923
 5509TIP3    H216471   4.880   7.224   1.041
 5510TIP3   OH216472   5.145   7.545   1.749
 5510TIP3    H116473   5.165   7.604   1.825
 5510TIP3    H216474   5.197   7.467   1.772
 5511TIP3   OH216475   5.022   6.957   1.056
 5511TIP3    H116476   4.991   7.041   1.094
 5511TIP3    H216477   5.078   6.990   0.981
 5512TIP3   OH216478   4.528   6.956   0.853
 5512TIP3    H116479   4.533   7.049   0.882
 5512TIP3    H216480   4.623   6.934   0.849
 5513TIP3   OH216481   5.785   7.447   1.732
 5513TIP3    H116482   5.687   7.442   1.739
 5513TIP3    H216483   5.799   7.421   1.640
 5514TIP3   OH216484   5.437   7.642   1.125
 5514TIP3    H116485   5.361   7.582   1.129
 5514TIP3    H216486   5.507   7.591   1.171
 5515TIP3   OH216487   4.161   7.866   0.600
 5515TIP3    H116488   4.188   7.957   0.621
 5515TIP3    H216489   4.154   7.873   0.504
 5516TIP3   OH216490   4.101   7.141   0.718
 5516TIP3    H116491   4.093   7.239   0.723
 5516TIP3    H216492   4.016   7.116   0.680
 5517TIP3   OH216493   4.481   6.863   1.592
 5517TIP3    H116494   4.449   6.831   1.504
 5517TIP3    H216495   4.468   6.784   1.648
 5518TIP3   OH216496   4.309   8.016   2.234
 5518TIP3    H116497   4.326   7.921   2.244
 5518TIP3    H216498   4.217   8.015   2.199
 5519TIP3   OH216499   4.932   8.096   2.048
 5519TIP3    H116500   4.896   8.109   1.958
 5519TIP3    H216501   4.965   8.004   2.040
 5520TIP3   OH216502   5.404   8.116   1.625
 5520TIP3    H116503   5.470   8.174   1.583
 5520TIP3    H216504   5.326   8.174   1.624
 5521TIP3   OH216505   4.434   7.762   2.231
 5521TIP3    H116506   4.513   7.711   2.210
 5521TIP3    H216507   4.457   7.797   2.320
 5522TIP3   OH216508   4.512   7.581   0.678
 5522TIP3    H116509   4.465   7.547   0.756
 5522TIP3    H216510   4.530   7.501   0.628
 5523TIP3   OH216511   4.764   7.651   1.890
 5523TIP3    H116512   4.684   7.708   1.893
 5523TIP3    H216513   4.811   7.686   1.811
 5524TIP3   OH216514   5.280   8.040   2.021
 5524TIP3    H116515   5.364   8.021   1.979
 5524TIP3    H216516   5.280   7.978   2.096
 5525TIP3   OH216517   4.884   7.439   2.014
 5525TIP3    H116518   4.885   7.361   1.955
 5525TIP3    H216519   4.841   7.507   1.958
 5526TIP3   OH216520   4.887   7.225   1.822
 5526TIP3    H116521   4.914   7.266   1.737
 5526TIP3    H216522   4.794   7.202   1.804
 5527TIP3   OH216523   4.911   7.765   1.694
 5527TIP3    H116524   4.993   7.777   1.645
 5527TIP3    H216525   4.852   7.831   1.652
 5528TIP3   OH216526   5.493   7.727   2.075
 5528TIP3    H116527   5.545   7.646   2.090
 5528TIP3    H216528   5.561   7.790   2.046
 5529TIP3   OH216529   5.537   7.975   1.811
 5529TIP3    H116530   5.479   8.030   1.753
 5529TIP3    H216531   5.625   7.998   1.772
 5530TIP3   OH216532   4.764   7.548   2.248
 5530TIP3    H116533   4.693   7.483   2.264
 5530TIP3    H216534   4.797   7.521   2.160
 5531TIP3   OH216535   5.018   6.985   1.892
 5531TIP3    H116536   4.971   7.068   1.868
 5531TIP3    H216537   4.948   6.918   1.880
 5532TIP3   OH216538   5.146   7.490   2.105
 5532TIP3    H116539   5.134   7.477   2.201
 5532TIP3    H216540   5.055   7.467   2.075
 5533TIP3   OH216541   5.382   7.436   1.957
 5533TIP3    H116542   5.308   7.440   2.019
 5533TIP3    H216543   5.456   7.407   2.015
 5534TIP3   OH216544   5.617   7.386   2.110
 5534TIP3    H116545   5.626   7.289   2.126
 5534TIP3    H216546   5.608   7.422   2.200
 5535TIP3   OH216547   4.600   7.329   2.301
 5535TIP3    H116548   4.627   7.245   2.262
 5535TIP3    H216549   4.637   7.320   2.392
 5536TIP3   OH216550   5.115   7.000   2.148
 5536TIP3    H116551   5.174   6.924   2.150
 5536TIP3    H216552   5.076   6.993   2.059
 5537TIP3   OH216553   5.179   7.214   2.308
 5537TIP3    H116554   5.158   7.144   2.243
 5537TIP3    H216555   5.100   7.272   2.302
 5538TIP3   OH216556   3.885   7.800   0.594
 5538TIP3    H116557   3.981   7.811   0.606
 5538TIP3    H216558   3.877   7.702   0.579
 5539TIP3   OH216559   5.763   8.401   1.857
 5539TIP3    H116560   5.688   8.385   1.919
 5539TIP3    H216561   5.805   8.479   1.896
 5540TIP3   OH216562   5.722   8.149   1.138
 5540TIP3    H116563   5.781   8.095   1.083
 5540TIP3    H216564   5.712   8.231   1.087
 5541TIP3   OH216565   5.475   7.612   0.853
 5541TIP3    H116566   5.498   7.518   0.849
 5541TIP3    H216567   5.476   7.631   0.949
 5542TIP3   OH216568   4.116   7.694   1.599
 5542TIP3    H116569   4.112   7.662   1.506
 5542TIP3    H216570   4.214   7.697   1.612
 5543TIP3   OH216571   5.779   8.041   1.707
 5543TIP3    H116572   5.855   7.981   1.697
 5543TIP3    H216573   5.806   8.117   1.650
 5544TIP3   OH216574   5.970   7.848   1.719
 5544TIP3    H116575   5.893   7.803   1.760
 5544TIP3    H216576   6.039   7.781   1.736
 5545TIP3   OH216577   5.481   7.327   0.738
 5545TIP3    H116578   5.524   7.240   0.754
 5545TIP3    H216579   5.550   7.372   0.686
 5546TIP3   OH216580   5.648   7.504   1.241
 5546TIP3    H116581   5.733   7.531   1.200
 5546TIP3    H216582   5.661   7.546   1.329
 5547TIP3   OH216583   5.717   7.653   1.470
 5547TIP3    H116584   5.640   7.688   1.521
 5547TIP3    H216585   5.747   7.734   1.424
 5548TIP3   OH216586   4.335   7.375   2.250
 5548TIP3    H116587   4.432   7.372   2.265
 5548TIP3    H216588   4.308   7.291   2.294
 5549TIP3   OH216589   6.175   7.250   2.027
 5549TIP3    H116590   6.230   7.183   1.982
 5549TIP3    H216591   6.141   7.301   1.950
 5550TIP3   OH216592   5.585   7.088   0.795
 5550TIP3    H116593   5.642   7.061   0.869
 5550TIP3    H216594   5.530   7.007   0.784
 5551TIP3   OH216595   4.298   7.073   1.603
 5551TIP3    H116596   4.359   6.997   1.610
 5551TIP3    H216597   4.361   7.147   1.593
 5552TIP3   OH216598   4.098   7.345   1.676
 5552TIP3    H116599   4.148   7.339   1.592
 5552TIP3    H216600   4.119   7.435   1.704
 5553TIP3   OH216601   6.039   7.382   1.833
 5553TIP3    H116602   5.955   7.425   1.859
 5553TIP3    H216603   6.004   7.313   1.773
 5554TIP3   OH216604   4.082   6.867   1.184
 5554TIP3    H116605   3.988   6.848   1.199
 5554TIP3    H216606   4.080   6.916   1.099
 5555TIP3   OH216607   4.299   6.910   1.992
 5555TIP3    H116608   4.250   6.924   2.075
 5555TIP3    H216609   4.240   6.957   1.929
 5556TIP3   OH216610   5.935   7.149   1.703
 5556TIP3    H116611   5.846   7.146   1.663
 5556TIP3    H216612   5.965   7.056   1.695
 5557TIP3   OH216613   5.136   7.063   1.342
 5557TIP3    H116614   5.090   6.998   1.398
 5557TIP3    H216615   5.167   7.007   1.269
 5558TIP3   OH216616   5.651   6.981   1.262
 5558TIP3    H116617   5.714   7.009   1.192
 5558TIP3    H216618   5.582   6.942   1.205
 5559TIP3   OH216619   5.762   7.038   1.016
 5559TIP3    H116620   5.832   6.987   0.970
 5559TIP3    H216621   5.790   7.129   0.990
 5560TIP3   OH216622   4.390   6.771   1.346
 5560TIP3    H116623   4.298   6.740   1.345
 5560TIP3    H216624   4.438   6.685   1.340
 5561TIP3   OH216625   4.180   6.640   1.005
 5561TIP3    H116626   4.218   6.684   0.926
 5561TIP3    H216627   4.157   6.715   1.062
 5562TIP3   OH216628   4.841   6.802   1.226
 5562TIP3    H116629   4.900   6.852   1.167
 5562TIP3    H216630   4.859   6.842   1.312
 5563TIP3   OH216631   5.388   6.945   1.225
 5563TIP3    H116632   5.371   6.939   1.129
 5563TIP3    H216633   5.362   6.854   1.255
 5564TIP3   OH216634   5.415   6.877   0.820
 5564TIP3    H116635   5.326   6.905   0.793
 5564TIP3    H216636   5.399   6.785   0.848
 5565TIP3   OH216637   4.296   6.808   0.758
 5565TIP3    H116638   4.339   6.740   0.702
 5565TIP3    H216639   4.373   6.852   0.799
 5566TIP3   OH216640   4.804   6.976   0.854
 5566TIP3    H116641   4.859   6.920   0.910
 5566TIP3    H216642   4.834   7.066   0.881
 5567TIP3   OH216643   4.609   7.043   2.222
 5567TIP3    H116644   4.578   7.021   2.311
 5567TIP3    H216645   4.706   7.041   2.239
 5568TIP3   OH216646   4.852   7.050   2.348
 5568TIP3    H116647   4.940   7.024   2.318
 5568TIP3    H216648   4.838   6.987   2.422
 5569TIP3   OH216649   5.672   7.114   2.143
 5569TIP3    H116650   5.687   7.082   2.234
 5569TIP3    H216651   5.760   7.102   2.103
 5570TIP3   OH216652   6.174   7.925   1.139
 5570TIP3    H116653   6.228   7.886   1.209
 5570TIP3    H216654   6.242   7.957   1.076
 5571TIP3   OH216655   6.053   7.619   0.950
 5571TIP3    H116656   6.144   7.594   0.974
 5571TIP3    H216657   6.043   7.585   0.860
 5572TIP3   OH216658   6.413   7.403   1.269
 5572TIP3    H116659   6.356   7.439   1.199
 5572TIP3    H216660   6.358   7.420   1.348
 5573TIP3   OH216661   6.301   7.511   1.033
 5573TIP3    H116662   6.353   7.590   1.062
 5573TIP3    H216663   6.361   7.475   0.966
 5574TIP3   OH216664   6.773   7.127   0.986
 5574TIP3    H116665   6.761   7.031   0.996
 5574TIP3    H216666   6.689   7.160   1.024
 5575TIP3   OH216667   6.281   8.057   1.403
 5575TIP3    H116668   6.267   8.146   1.436
 5575TIP3    H216669   6.191   8.021   1.417
 5576TIP3   OH216670   5.947   8.189   1.333
 5576TIP3    H116671   5.874   8.178   1.269
 5576TIP3    H216672   5.973   8.098   1.354
 5577TIP3   OH216673   6.533   7.206   1.112
 5577TIP3    H116674   6.445   7.171   1.084
 5577TIP3    H216675   6.502   7.280   1.168
 5578TIP3   OH216676   7.049   7.277   1.331
 5578TIP3    H116677   7.083   7.321   1.409
 5578TIP3    H216678   6.953   7.269   1.352
 5579TIP3   OH216679   6.458   7.712   1.123
 5579TIP3    H116680   6.411   7.742   1.204
 5579TIP3    H216681   6.488   7.795   1.084
 5580TIP3   OH216682   6.313   7.753   1.351
 5580TIP3    H116683   6.285   7.820   1.415
 5580TIP3    H216684   6.289   7.670   1.396
 5581TIP3   OH216685   5.886   7.259   0.922
 5581TIP3    H116686   5.957   7.293   0.979
 5581TIP3    H216687   5.926   7.260   0.834
 5582TIP3   OH216688   6.040   7.960   1.474
 5582TIP3    H116689   6.042   7.942   1.571
 5582TIP3    H216690   5.961   7.909   1.448
 5583TIP3   OH216691   6.261   7.488   1.481
 5583TIP3    H116692   6.164   7.491   1.493
 5583TIP3    H216693   6.288   7.430   1.555
 5584TIP3   OH216694   6.274   7.123   1.088
 5584TIP3    H116695   6.241   7.091   1.001
 5584TIP3    H216696   6.264   7.043   1.143
 5585TIP3   OH216697   6.118   8.271   1.701
 5585TIP3    H116698   6.146   8.178   1.699
 5585TIP3    H216699   6.026   8.265   1.667
 5586TIP3   OH216700   6.235   8.020   1.714
 5586TIP3    H116701   6.299   7.948   1.707
 5586TIP3    H216702   6.249   8.051   1.805
 5587TIP3   OH216703   6.653   7.709   1.499
 5587TIP3    H116704   6.684   7.621   1.471
 5587TIP3    H216705   6.593   7.734   1.429
 5588TIP3   OH216706   6.663   7.504   1.283
 5588TIP3    H116707   6.641   7.539   1.196
 5588TIP3    H216708   6.576   7.463   1.304
 5589TIP3   OH216709   6.564   7.797   1.744
 5589TIP3    H116710   6.493   7.731   1.756
 5589TIP3    H216711   6.595   7.776   1.653
 5590TIP3   OH216712   6.783   7.252   1.395
 5590TIP3    H116713   6.733   7.324   1.354
 5590TIP3    H216714   6.726   7.175   1.377
 5591TIP3   OH216715   6.397   7.582   1.787
 5591TIP3    H116716   6.401   7.490   1.754
 5591TIP3    H216717   6.430   7.569   1.878
 5592TIP3   OH216718   6.914   7.254   1.642
 5592TIP3    H116719   6.980   7.182   1.628
 5592TIP3    H216720   6.861   7.246   1.560
 5593TIP3   OH216721   7.029   7.449   1.815
 5593TIP3    H116722   6.987   7.382   1.756
 5593TIP3    H216723   6.953   7.512   1.818
 5594TIP3   OH216724   5.913   7.946   1.080
 5594TIP3    H116725   5.920   7.904   0.993
 5594TIP3    H216726   6.008   7.949   1.105
 5595TIP3   OH216727   6.131   7.632   1.752
 5595TIP3    H116728   6.228   7.628   1.760
 5595TIP3    H216729   6.106   7.548   1.795
 5596TIP3   OH216730   6.091   7.329   1.091
 5596TIP3    H116731   6.152   7.254   1.101
 5596TIP3    H216732   6.153   7.403   1.080
 5597TIP3   OH216733   5.892   7.602   1.170
 5597TIP3    H116734   5.944   7.601   1.087
 5597TIP3    H216735   5.912   7.690   1.204
 5598TIP3   OH216736   6.099   7.188   1.475
 5598TIP3    H116737   6.049   7.181   1.558
 5598TIP3    H216738   6.031   7.224   1.416
 5599TIP3   OH216739   6.180   7.029   0.853
 5599TIP3    H116740   6.089   6.995   0.846
 5599TIP3    H216741   6.230   6.948   0.830
 5600TIP3   OH216742   6.394   7.309   1.720
 5600TIP3    H116743   6.358   7.240   1.778
 5600TIP3    H216744   6.488   7.308   1.749
 5601TIP3   OH216745   6.642   7.305   1.840
 5601TIP3    H116746   6.729   7.286   1.803
 5601TIP3    H216747   6.632   7.233   1.906
 5602TIP3   OH216748   1.844   0.503   5.750
 5602TIP3    H116749   1.819   0.442   5.820
 5602TIP3    H216750   1.864   0.584   5.800
 5603TIP3   OH216751   1.486   0.955   5.765
 5603TIP3    H116752   1.545   0.888   5.723
 5603TIP3    H216753   1.484   0.924   5.856
 5604TIP3   OH216754   2.435  -0.064   6.301
 5604TIP3    H116755   2.361  -0.004   6.278
 5604TIP3    H216756   2.499  -0.005   6.342
 5605TIP3   OH216757   1.527   0.437   5.519
 5605TIP3    H116758   1.454   0.376   5.502
 5605TIP3    H216759   1.480   0.505   5.568
 5606TIP3   OH216760   1.901   0.745   5.908
 5606TIP3    H116761   1.808   0.742   5.940
 5606TIP3    H216762   1.900   0.831   5.862
 5607TIP3   OH216763   1.646   0.789   5.621
 5607TIP3    H116764   1.686   0.707   5.586
 5607TIP3    H216765   1.682   0.854   5.557
 5608TIP3   OH216766   1.765   0.577   5.492
 5608TIP3    H116767   1.696   0.511   5.470
 5608TIP3    H216768   1.803   0.537   5.573
 5609TIP3   OH216769   2.128   0.653   6.261
 5609TIP3    H116770   2.121   0.578   6.199
 5609TIP3    H216771   2.114   0.730   6.200
 5610TIP3   OH216772   2.320   0.287   6.101
 5610TIP3    H116773   2.242   0.346   6.103
 5610TIP3    H216774   2.355   0.306   6.011
 5611TIP3   OH216775   1.764   0.153   5.495
 5611TIP3    H116776   1.705   0.143   5.570
 5611TIP3    H216777   1.845   0.108   5.527
 5612TIP3   OH216778   1.652   0.756   6.013
 5612TIP3    H116779   1.643   0.839   6.063
 5612TIP3    H216780   1.645   0.687   6.081
 5613TIP3   OH216781   1.372   0.746   5.527
 5613TIP3    H116782   1.432   0.748   5.603
 5613TIP3    H216783   1.298   0.694   5.561
 5614TIP3   OH216784   1.925   0.594   4.912
 5614TIP3    H116785   1.934   0.691   4.896
 5614TIP3    H216786   2.018   0.564   4.899
 5615TIP3   OH216787   2.367   1.001   6.305
 5615TIP3    H116788   2.367   0.904   6.320
 5615TIP3    H216789   2.283   1.026   6.349
 5616TIP3   OH216790   1.498   0.816   6.402
 5616TIP3    H116791   1.488   0.899   6.452
 5616TIP3    H216792   1.425   0.762   6.440
 5617TIP3   OH216793   1.179   0.917   5.376
 5617TIP3    H116794   1.180   0.919   5.279
 5617TIP3    H216795   1.191   1.010   5.402
 5618TIP3   OH216796   1.429   0.811   5.031
 5618TIP3    H116797   1.491   0.743   4.998
 5618TIP3    H216798   1.460   0.825   5.123
 5619TIP3   OH216799   1.472   0.871   5.301
 5619TIP3    H116800   1.397   0.853   5.362
 5619TIP3    H216801   1.541   0.826   5.352
 5620TIP3   OH216802   2.260   0.114   6.581
 5620TIP3    H116803   2.176   0.161   6.570
 5620TIP3    H216804   2.237   0.022   6.563
 5621TIP3   OH216805   1.666   0.057   5.044
 5621TIP3    H116806   1.651   0.006   4.962
 5621TIP3    H216807   1.758   0.085   5.034
 5622TIP3   OH216808   2.045   1.344   6.399
 5622TIP3    H116809   2.048   1.372   6.305
 5622TIP3    H216810   2.131   1.382   6.429
 5623TIP3   OH216811   2.085   0.441   6.091
 5623TIP3    H116812   2.125   0.490   6.016
 5623TIP3    H216813   2.006   0.402   6.048
 5624TIP3   OH216814   1.376   0.399   5.218
 5624TIP3    H116815   1.322   0.476   5.246
 5624TIP3    H216816   1.375   0.346   5.300
 5625TIP3   OH216817   1.765   0.777   6.375
 5625TIP3    H116818   1.669   0.792   6.371
 5625TIP3    H216819   1.789   0.837   6.448
 5626TIP3   OH216820   2.171  -0.140   5.251
 5626TIP3    H116821   2.106  -0.196   5.202
 5626TIP3    H216822   2.149  -0.053   5.211
 5627TIP3   OH216823   2.382   0.717   6.340
 5627TIP3    H116824   2.284   0.704   6.336
 5627TIP3    H216825   2.407   0.688   6.250
 5628TIP3   OH216826   1.865   0.676   5.178
 5628TIP3    H116827   1.838   0.607   5.240
 5628TIP3    H216828   1.876   0.627   5.095
 5629TIP3   OH216829   1.868   0.295   5.995
 5629TIP3    H116830   1.780   0.274   6.029
 5629TIP3    H216831   1.887   0.219   5.938
 5630TIP3   OH216832   1.274   0.888   6.245
 5630TIP3    H116833   1.302   0.957   6.183
 5630TIP3    H216834   1.356   0.871   6.295
 5631TIP3   OH216835   1.689   0.541   6.193
 5631TIP3    H116836   1.663   0.562   6.283
 5631TIP3    H216837   1.786   0.540   6.201
 5632TIP3   OH216838   1.614   0.408   5.073
 5632TIP3    H116839   1.674   0.374   5.144
 5632TIP3    H216840   1.529   0.401   5.121
 5633TIP3   OH216841   1.888   1.037   6.242
 5633TIP3    H116842   1.806   0.987   6.227
 5633TIP3    H216843   1.881   1.105   6.171
 5634TIP3   OH216844   1.955   0.870   4.894
 5634TIP3    H116845   1.988   0.936   4.831
 5634TIP3    H216846   1.876   0.917   4.928
 5635TIP3   OH216847   1.779   0.332   5.278
 5635TIP3    H116848   1.761   0.272   5.353
 5635TIP3    H216849   1.877   0.328   5.276
 5636TIP3   OH216850   1.198   0.596   5.285
 5636TIP3    H116851   1.147   0.606   5.366
 5636TIP3    H216852   1.212   0.689   5.260
 5637TIP3   OH216853   1.913   1.015   5.828
 5637TIP3    H116854   1.871   1.054   5.749
 5637TIP3    H216855   2.007   1.042   5.812
 5638TIP3   OH216856   1.145   0.559   4.996
 5638TIP3    H116857   1.152   0.519   5.085
 5638TIP3    H216858   1.224   0.522   4.952
 5639TIP3   OH216859   1.807   0.910   6.620
 5639TIP3    H116860   1.847   0.837   6.669
 5639TIP3    H216861   1.877   0.978   6.629
 5640TIP3   OH216862   1.582   0.624   4.898
 5640TIP3    H116863   1.621   0.557   4.958
 5640TIP3    H216864   1.641   0.619   4.821
 5641TIP3   OH216865   1.915   0.550   6.400
 5641TIP3    H116866   1.999   0.580   6.360
 5641TIP3    H216867   1.865   0.634   6.396
 5642TIP3   OH216868   1.919   0.125   4.932
 5642TIP3    H116869   1.902   0.083   4.846
 5642TIP3    H216870   1.884   0.215   4.913
 5643TIP3   OH216871   2.078   0.381   6.564
 5643TIP3    H116872   2.023   0.435   6.506
 5643TIP3    H216873   2.167   0.407   6.531
 5644TIP3   OH216874   0.867   0.874   5.159
 5644TIP3    H116875   0.954   0.841   5.188
 5644TIP3    H216876   0.896   0.913   5.073
 5645TIP3   OH216877   2.159   1.120   5.788
 5645TIP3    H116878   2.189   1.142   5.878
 5645TIP3    H216879   2.240   1.135   5.737
 5646TIP3   OH216880   2.190   1.122   6.073
 5646TIP3    H116881   2.155   1.030   6.072
 5646TIP3    H216882   2.271   1.109   6.124
 5647TIP3   OH216883   2.239   0.801   6.647
 5647TIP3    H116884   2.169   0.807   6.715
 5647TIP3    H216885   2.281   0.889   6.654
 5648TIP3   OH216886   2.058   0.316   5.265
 5648TIP3    H116887   2.127   0.379   5.236
 5648TIP3    H216888   2.100   0.277   5.345
 5649TIP3   OH216889   2.180   0.187   5.470
 5649TIP3    H116890   2.119   0.146   5.534
 5649TIP3    H216891   2.254   0.220   5.526
 5650TIP3   OH216892   2.230   0.566   5.904
 5650TIP3    H116893   2.292   0.504   5.861
 5650TIP3    H216894   2.197   0.618   5.830
 5651TIP3   OH216895   2.067   0.870   6.102
 5651TIP3    H116896   1.998   0.918   6.152
 5651TIP3    H216897   2.015   0.828   6.030
 5652TIP3   OH216898   2.116   0.093   5.115
 5652TIP3    H116899   2.045   0.098   5.048
 5652TIP3    H216900   2.090   0.168   5.172
 5653TIP3   OH216901   1.997  -0.247   5.063
 5653TIP3    H116902   1.951  -0.181   5.010
 5653TIP3    H216903   1.948  -0.327   5.043
 5654TIP3   OH216904   1.998   0.034   5.627
 5654TIP3    H116905   2.021  -0.055   5.598
 5654TIP3    H216906   2.018   0.031   5.721
 5655TIP3   OH216907   2.311   0.471   6.462
 5655TIP3    H116908   2.379   0.399   6.458
 5655TIP3    H216909   2.348   0.538   6.403
 5656TIP3   OH216910   2.472   0.260   6.493
 5656TIP3    H116911   2.399   0.205   6.529
 5656TIP3    H216912   2.548   0.201   6.510
 5657TIP3   OH216913   2.142  -0.051   6.008
 5657TIP3    H116914   2.228  -0.032   5.966
 5657TIP3    H216915   2.161  -0.018   6.098
 5658TIP3   OH216916   2.204   0.085   6.244
 5658TIP3    H116917   2.122   0.126   6.275
 5658TIP3    H216918   2.249   0.159   6.197
 5659TIP3   OH216919   1.740   0.971   5.442
 5659TIP3    H116920   1.800   0.957   5.366
 5659TIP3    H216921   1.790   1.034   5.497
 5660TIP3   OH216922   1.475   1.062   6.525
 5660TIP3    H116923   1.514   1.052   6.615
 5660TIP3    H216924   1.543   1.113   6.478
 5661TIP3   OH216925   1.660   1.203   6.382
 5661TIP3    H116926   1.734   1.157   6.340
 5661TIP3    H216927   1.708   1.264   6.443
 5662TIP3   OH216928   1.372   1.074   6.058
 5662TIP3    H116929   1.297   1.093   5.998
 5662TIP3    H216930   1.388   1.162   6.097
 5663TIP3   OH216931   1.638   1.012   6.114
 5663TIP3    H116932   1.543   1.032   6.098
 5663TIP3    H216933   1.680   1.091   6.076
 5664TIP3   OH216934   1.839   1.199   6.027
 5664TIP3    H116935   1.828   1.285   5.980
 5664TIP3    H216936   1.869   1.141   5.954
 5665TIP3   OH216937   1.164   0.821   5.112
 5665TIP3    H116938   1.255   0.836   5.079
 5665TIP3    H216939   1.143   0.738   5.064
 5666TIP3   OH216940   1.900   0.942   5.219
 5666TIP3    H116941   1.896   0.844   5.209
 5666TIP3    H216942   1.854   0.970   5.137
 5667TIP3   OH216943   2.120   1.080   6.402
 5667TIP3    H116944   2.041   1.052   6.352
 5667TIP3    H216945   2.102   1.176   6.408
 5668TIP3   OH216946   3.389   0.450   5.169
 5668TIP3    H116947   3.362   0.543   5.151
 5668TIP3    H216948   3.310   0.403   5.137
 5669TIP3   OH216949   3.396   0.450   5.548
 5669TIP3    H116950   3.419   0.428   5.640
 5669TIP3    H216951   3.340   0.375   5.523
 5670TIP3   OH216952   3.631   0.758   5.235
 5670TIP3    H116953   3.614   0.690   5.302
 5670TIP3    H216954   3.661   0.833   5.289
 5671TIP3   OH216955   2.343  -0.036   5.442
 5671TIP3    H116956   2.297   0.049   5.440
 5671TIP3    H216957   2.286  -0.089   5.384
 5672TIP3   OH216958   2.418   0.255   5.591
 5672TIP3    H116959   2.460   0.174   5.630
 5672TIP3    H216960   2.493   0.291   5.542
 5673TIP3   OH216961   3.272   1.217   5.243
 5673TIP3    H116962   3.322   1.142   5.206
 5673TIP3    H216963   3.268   1.195   5.337
 5674TIP3   OH216964   3.187   0.666   5.606
 5674TIP3    H116965   3.227   0.597   5.552
 5674TIP3    H216966   3.266   0.720   5.627
 5675TIP3   OH216967   3.604   0.179   5.646
 5675TIP3    H116968   3.619   0.087   5.671
 5675TIP3    H216969   3.565   0.172   5.557
 5676TIP3   OH216970   2.914  -0.196   5.583
 5676TIP3    H116971   2.896  -0.113   5.533
 5676TIP3    H216972   2.842  -0.252   5.551
 5677TIP3   OH216973   3.591  -0.047   5.268
 5677TIP3    H116974   3.655  -0.092   5.327
 5677TIP3    H216975   3.643  -0.041   5.186
 5678TIP3   OH216976   2.541   0.038   5.695
 5678TIP3    H116977   2.632   0.039   5.736
 5678TIP3    H216978   2.561  -0.020   5.619
 5679TIP3   OH216979   3.008   0.241   5.473
 5679TIP3    H116980   3.096   0.219   5.509
 5679TIP3    H216981   2.968   0.152   5.461
 5680TIP3   OH216982   4.232   0.189   5.801
 5680TIP3    H116983   4.161   0.245   5.763
 5680TIP3    H216984   4.294   0.255   5.834
 5681TIP3   OH216985   3.281   0.675   5.037
 5681TIP3    H116986   3.235   0.654   4.955
 5681TIP3    H216987   3.235   0.757   5.064
 5682TIP3   OH216988   3.064   0.617   5.850
 5682TIP3    H116989   2.982   0.667   5.863
 5682TIP3    H216990   3.093   0.642   5.759
 5683TIP3   OH216991   2.793  -0.004   5.773
 5683TIP3    H116992   2.860   0.048   5.821
 5683TIP3    H216993   2.845  -0.079   5.742
 5684TIP3   OH216994   2.828   0.770   5.884
 5684TIP3    H116995   2.850   0.858   5.841
 5684TIP3    H216996   2.774   0.803   5.961
 5685TIP3   OH216997   2.258   0.484   5.159
 5685TIP3    H116998   2.220   0.510   5.073
 5685TIP3    H216999   2.289   0.569   5.196
 5686TIP3   OH217000   3.702   0.999   5.398
 5686TIP3    H117001   3.613   0.990   5.440
 5686TIP3    H217002   3.692   1.086   5.354
 5687TIP3   OH217003   3.401   1.042   5.071
 5687TIP3    H117004   3.453   0.961   5.051
 5687TIP3    H217005   3.461   1.109   5.032
 5688TIP3   OH217006   3.547   0.828   4.982
 5688TIP3    H117007   3.501   0.749   4.951
 5688TIP3    H217008   3.585   0.797   5.067
 5689TIP3   OH217009   3.927   0.911   5.744
 5689TIP3    H117010   3.913   0.833   5.685
 5689TIP3    H217011   3.907   0.985   5.683
 5690TIP3   OH217012   3.216   0.308   5.001
 5690TIP3    H117013   3.135   0.359   4.979
 5690TIP3    H217014   3.261   0.303   4.915
 5691TIP3   OH217015   3.178   0.080   4.717
 5691TIP3    H117016   3.242   0.132   4.768
 5691TIP3    H217017   3.239   0.035   4.656
 5692TIP3   OH217018   4.123   0.553   5.591
 5692TIP3    H117019   4.038   0.603   5.593
 5692TIP3    H217020   4.152   0.574   5.499
 5693TIP3   OH217021   3.564   0.389   4.968
 5693TIP3    H117022   3.510   0.412   5.047
 5693TIP3    H217023   3.649   0.367   5.012
 5694TIP3   OH217024   3.799   0.427   5.889
 5694TIP3    H117025   3.793   0.511   5.938
 5694TIP3    H217026   3.711   0.428   5.845
 5695TIP3   OH217027   2.801   0.389   5.367
 5695TIP3    H117028   2.764   0.317   5.312
 5695TIP3    H217029   2.873   0.343   5.416
 5696TIP3   OH217030   2.862   0.745   5.566
 5696TIP3    H117031   2.912   0.712   5.489
 5696TIP3    H217032   2.913   0.827   5.586
 5697TIP3   OH217033   3.464   0.993   5.522
 5697TIP3    H117034   3.443   1.071   5.576
 5697TIP3    H217035   3.444   0.919   5.582
 5698TIP3   OH217036   3.066   0.896   6.081
 5698TIP3    H117037   3.004   0.966   6.110
 5698TIP3    H217038   3.018   0.857   6.006
 5699TIP3   OH217039   3.401   0.247   4.797
 5699TIP3    H117040   3.462   0.308   4.845
 5699TIP3    H217041   3.427   0.260   4.704
 5700TIP3   OH217042   2.825   0.462   6.185
 5700TIP3    H117043   2.822   0.551   6.224
 5700TIP3    H217044   2.739   0.458   6.140
 5701TIP3   OH217045   3.151   0.924   5.069
 5701TIP3    H117046   3.234   0.974   5.085
 5701TIP3    H217047   3.092   0.992   5.036
 5702TIP3   OH217048   2.866   1.084   6.156
 5702TIP3    H117049   2.833   1.105   6.067
 5702TIP3    H217050   2.785   1.059   6.204
 5703TIP3   OH217051   2.666   0.213   5.180
 5703TIP3    H117052   2.596   0.262   5.133
 5703TIP3    H217053   2.621   0.130   5.200
 5704TIP3   OH217054   3.721   0.852   4.397
 5704TIP3    H117055   3.730   0.949   4.383
 5704TIP3    H217056   3.813   0.823   4.384
 5705TIP3   OH217057   2.444   0.618   6.099
 5705TIP3    H117058   2.383   0.589   6.029
 5705TIP3    H217059   2.481   0.532   6.131
 5706TIP3   OH217060   4.163   1.258   5.792
 5706TIP3    H117061   4.162   1.162   5.806
 5706TIP3    H217062   4.080   1.283   5.838
 5707TIP3   OH217063   3.289   1.037   5.939
 5707TIP3    H117064   3.276   1.133   5.957
 5707TIP3    H217065   3.198   1.006   5.941
 5708TIP3   OH217066   3.027   1.167   4.878
 5708TIP3    H117067   2.985   1.152   4.791
 5708TIP3    H217068   2.998   1.258   4.900
 5709TIP3   OH217069   2.471   1.029   5.267
 5709TIP3    H117070   2.523   1.022   5.349
 5709TIP3    H217071   2.412   0.953   5.275
 5710TIP3   OH217072   3.231   1.071   4.516
 5710TIP3    H117073   3.290   1.001   4.481
 5710TIP3    H217074   3.266   1.082   4.607
 5711TIP3   OH217075   3.281   1.121   4.786
 5711TIP3    H117076   3.194   1.128   4.831
 5711TIP3    H217077   3.335   1.084   4.858
 5712TIP3   OH217078   4.051   0.373   6.068
 5712TIP3    H117079   3.973   0.409   6.022
 5712TIP3    H217080   4.037   0.278   6.054
 5713TIP3   OH217081   2.643   0.813   6.089
 5713TIP3    H117082   2.697   0.790   6.168
 5713TIP3    H217083   2.575   0.743   6.091
 5714TIP3   OH217084   3.834   0.172   6.012
 5714TIP3    H117085   3.791   0.199   6.094
 5714TIP3    H217086   3.810   0.243   5.951
 5715TIP3   OH217087   2.985   0.156   5.894
 5715TIP3    H117088   2.931   0.158   5.976
 5715TIP3    H217089   2.953   0.236   5.849
 5716TIP3   OH217090   2.864   0.010   5.416
 5716TIP3    H117091   2.767  -0.001   5.424
 5716TIP3    H217092   2.878  -0.016   5.321
 5717TIP3   OH217093   3.349   0.108   5.133
 5717TIP3    H117094   3.301   0.182   5.091
 5717TIP3    H217095   3.413   0.083   5.063
 5718TIP3   OH217096   3.538   0.412   6.210
 5718TIP3    H117097   3.511   0.330   6.257
 5718TIP3    H217098   3.633   0.417   6.234
 5719TIP3   OH217099   3.494   0.171   5.395
 5719TIP3    H117100   3.440   0.218   5.329
 5719TIP3    H217101   3.516   0.090   5.343
 5720TIP3   OH217102   2.828   0.142   6.118
 5720TIP3    H117103   2.814   0.228   6.161
 5720TIP3    H217104   2.798   0.077   6.182
 5721TIP3   OH217105   2.436  -0.222   5.235
 5721TIP3    H117106   2.448  -0.231   5.139
 5721TIP3    H217107   2.340  -0.201   5.239
 5722TIP3   OH217108   3.523   0.385   5.798
 5722TIP3    H117109   3.559   0.314   5.740
 5722TIP3    H217110   3.497   0.331   5.875
 5723TIP3   OH217111   2.606  -0.103   5.459
 5723TIP3    H117112   2.512  -0.076   5.447
 5723TIP3    H217113   2.607  -0.181   5.402
 5724TIP3   OH217114   2.904  -0.087   5.166
 5724TIP3    H117115   2.996  -0.096   5.136
 5724TIP3    H217116   2.853  -0.093   5.083
 5725TIP3   OH217117   2.736  -0.100   4.937
 5725TIP3    H117118   2.661  -0.113   4.877
 5725TIP3    H217119   2.797  -0.053   4.877
 5726TIP3   OH217120   3.856   1.606   5.891
 5726TIP3    H117121   3.854   1.630   5.797
 5726TIP3    H217122   3.937   1.652   5.921
 5727TIP3   OH217123   2.803   0.722   6.305
 5727TIP3    H117124   2.886   0.748   6.350
 5727TIP3    H217125   2.743   0.718   6.381
 5728TIP3   OH217126   3.262   0.172   5.570
 5728TIP3    H117127   3.346   0.145   5.530
 5728TIP3    H217128   3.269   0.137   5.662
 5729TIP3   OH217129   3.268   0.094   5.833
 5729TIP3    H117130   3.176   0.104   5.864
 5729TIP3    H217131   3.319   0.140   5.901
 5730TIP3   OH217132   2.985   0.457   4.944
 5730TIP3    H117133   2.911   0.393   4.937
 5730TIP3    H217134   2.970   0.493   5.035
 5731TIP3   OH217135   3.887   0.693   5.578
 5731TIP3    H117136   3.911   0.744   5.497
 5731TIP3    H217137   3.802   0.652   5.553
 5732TIP3   OH217138   3.421  -0.184   4.780
 5732TIP3    H117139   3.365  -0.215   4.853
 5732TIP3    H217140   3.456  -0.101   4.819
 5733TIP3   OH217141   3.401   0.783   5.946
 5733TIP3    H117142   3.401   0.750   6.036
 5733TIP3    H217143   3.361   0.871   5.956
 5734TIP3   OH217144   3.520   0.031   4.926
 5734TIP3    H117145   3.617   0.042   4.935
 5734TIP3    H217146   3.495   0.106   4.869
 5735TIP3   OH217147   3.133   0.606   4.769
 5735TIP3    H117148   3.084   0.692   4.775
 5735TIP3    H217149   3.079   0.550   4.829
 5736TIP3   OH217150   2.543   0.414   6.250
 5736TIP3    H117151   2.592   0.400   6.333
 5736TIP3    H217152   2.492   0.332   6.241
 5737TIP3   OH217153   3.286   0.517   6.263
 5737TIP3    H117154   3.223   0.464   6.211
 5737TIP3    H217155   3.372   0.487   6.227
 5738TIP3   OH217156   3.555   1.041   5.845
 5738TIP3    H117157   3.459   1.032   5.860
 5738TIP3    H217158   3.579   1.093   5.924
 5739TIP3   OH217159   3.956   0.106   4.739
 5739TIP3    H117160   3.897   0.054   4.680
 5739TIP3    H217161   3.941   0.195   4.701
 5740TIP3   OH217162   4.176   0.967   5.832
 5740TIP3    H117163   4.079   0.962   5.822
 5740TIP3    H217164   4.203   0.937   5.742
 5741TIP3   OH217165   3.657   0.928   4.662
 5741TIP3    H117166   3.632   0.859   4.725
 5741TIP3    H217167   3.670   0.879   4.579
 5742TIP3   OH217168   3.655   0.558   5.494
 5742TIP3    H117169   3.562   0.530   5.509
 5742TIP3    H217170   3.690   0.479   5.448
 5743TIP3   OH217171   2.773   0.781   5.229
 5743TIP3    H117172   2.783   0.868   5.186
 5743TIP3    H217173   2.677   0.771   5.233
 5744TIP3   OH217174   2.340   0.087   4.955
 5744TIP3    H117175   2.389   0.169   4.977
 5744TIP3    H217176   2.265   0.094   5.018
 5745TIP3   OH217177   2.923   0.553   5.186
 5745TIP3    H117178   2.881   0.639   5.208
 5745TIP3    H217179   2.888   0.497   5.258
 5746TIP3   OH217180   2.694   1.033   5.098
 5746TIP3    H117181   2.611   1.041   5.151
 5746TIP3    H217182   2.730   1.124   5.107
 5747TIP3   OH217183   3.440   0.761   5.678
 5747TIP3    H117184   3.429   0.763   5.776
 5747TIP3    H217185   3.518   0.705   5.668
 5748TIP3   OH217186   3.413   0.657   4.564
 5748TIP3    H117187   3.470   0.632   4.640
 5748TIP3    H217188   3.327   0.631   4.598
 5749TIP3   OH217189   3.688   1.294   5.730
 5749TIP3    H117190   3.610   1.236   5.725
 5749TIP3    H217191   3.671   1.357   5.657
 5750TIP3   OH217192   3.753   1.129   4.381
 5750TIP3    H117193   3.791   1.203   4.332
 5750TIP3    H217194   3.672   1.173   4.415
 5751TIP3   OH217195   3.575   0.586   4.774
 5751TIP3    H117196   3.566   0.522   4.848
 5751TIP3    H217197   3.673   0.585   4.763
 5752TIP3   OH217198   2.504   0.983   5.896
 5752TIP3    H117199   2.551   0.928   5.961
 5752TIP3    H217200   2.523   1.073   5.926
 5753TIP3   OH217201   2.775   0.635   4.563
 5753TIP3    H117202   2.794   0.543   4.538
 5753TIP3    H217203   2.757   0.625   4.659
 5754TIP3   OH217204   2.721   0.640   4.837
 5754TIP3    H117205   2.796   0.611   4.890
 5754TIP3    H217206   2.727   0.738   4.845
 5755TIP3   OH217207   2.456   0.329   5.038
 5755TIP3    H117208   2.392   0.376   5.095
 5755TIP3    H217209   2.476   0.398   4.973
 5756TIP3   OH217210   2.987   0.834   4.779
 5756TIP3    H117211   2.902   0.862   4.818
 5756TIP3    H217212   3.009   0.913   4.728
 5757TIP3   OH217213   3.188  -0.107   5.162
 5757TIP3    H117214   3.243  -0.026   5.152
 5757TIP3    H217215   3.198  -0.124   5.256
 5758TIP3   OH217216   3.462   0.220   6.006
 5758TIP3    H117217   3.449   0.286   6.076
 5758TIP3    H217218   3.509   0.150   6.054
 5759TIP3   OH217219   2.732   0.913   4.852
 5759TIP3    H117220   2.706   0.984   4.789
 5759TIP3    H217221   2.718   0.958   4.939
 5760TIP3   OH217222   3.741   0.314   5.373
 5760TIP3    H117223   3.661   0.264   5.395
 5760TIP3    H217224   3.811   0.266   5.424
 5761TIP3   OH217225   2.454   0.542   4.841
 5761TIP3    H117226   2.529   0.604   4.851
 5761TIP3    H217227   2.495   0.481   4.776
 5762TIP3   OH217228   2.395  -0.184   4.955
 5762TIP3    H117229   2.386  -0.086   4.956
 5762TIP3    H217230   2.304  -0.214   4.962
 5763TIP3   OH217231   3.708   1.272   5.321
 5763TIP3    H117232   3.665   1.318   5.246
 5763TIP3    H217233   3.802   1.290   5.301
 5764TIP3   OH217234   2.322   0.761   5.235
 5764TIP3    H117235   2.237   0.793   5.267
 5764TIP3    H217236   2.321   0.797   5.145
 5765TIP3   OH217237   2.495   1.301   6.302
 5765TIP3    H117238   2.573   1.290   6.359
 5765TIP3    H217239   2.465   1.209   6.295
 5766TIP3   OH217240   2.954   1.266   6.347
 5766TIP3    H117241   3.050   1.252   6.356
 5766TIP3    H217242   2.934   1.201   6.277
 5767TIP3   OH217243   2.939   0.837   4.471
 5767TIP3    H117244   2.885   0.766   4.513
 5767TIP3    H217245   3.017   0.785   4.444
 5768TIP3   OH217246   3.595   1.175   6.085
 5768TIP3    H117247   3.590   1.102   6.151
 5768TIP3    H217248   3.676   1.223   6.113
 5769TIP3   OH217249   3.377   0.875   4.387
 5769TIP3    H117250   3.417   0.809   4.447
 5769TIP3    H217251   3.438   0.873   4.311
 5770TIP3   OH217252   2.605   0.702   6.503
 5770TIP3    H117253   2.627   0.607   6.506
 5770TIP3    H217254   2.521   0.702   6.451
 5771TIP3   OH217255   2.588   0.351   4.700
 5771TIP3    H117256   2.645   0.320   4.773
 5771TIP3    H217257   2.654   0.357   4.628
 5772TIP3   OH217258   3.217   0.790   6.282
 5772TIP3    H117259   3.172   0.812   6.198
 5772TIP3    H217260   3.245   0.697   6.269
 5773TIP3   OH217261   3.096   0.552   4.501
 5773TIP3    H117262   3.101   0.564   4.597
 5773TIP3    H217263   3.106   0.454   4.494
 5774TIP3   OH217264   3.712   0.799   5.884
 5774TIP3    H117265   3.782   0.848   5.838
 5774TIP3    H217266   3.636   0.859   5.873
 5775TIP3   OH217267   2.726   0.445   6.480
 5775TIP3    H117268   2.807   0.407   6.445
 5775TIP3    H217269   2.753   0.468   6.571
 5776TIP3   OH217270   2.786   0.262   4.913
 5776TIP3    H117271   2.768   0.226   5.002
 5776TIP3    H217272   2.828   0.185   4.868
 5777TIP3   OH217273   3.074   0.356   6.147
 5777TIP3    H117274   2.985   0.398   6.145
 5777TIP3    H217275   3.111   0.379   6.059
 5778TIP3   OH217276   2.898   0.052   4.766
 5778TIP3    H117277   2.872   0.058   4.672
 5778TIP3    H217278   2.996   0.052   4.758
 5779TIP3   OH217279   3.588   0.729   6.283
 5779TIP3    H117280   3.651   0.692   6.220
 5779TIP3    H217281   3.574   0.656   6.344
 5780TIP3   OH217282   3.731   0.381   4.406
 5780TIP3    H117283   3.678   0.328   4.343
 5780TIP3    H217284   3.689   0.469   4.391
 5781TIP3   OH217285   3.152   0.132   6.267
 5781TIP3    H117286   3.101   0.072   6.210
 5781TIP3    H217287   3.128   0.218   6.225
 5782TIP3   OH217288   3.240   0.440   5.949
 5782TIP3    H117289   3.314   0.448   5.888
 5782TIP3    H217290   3.178   0.508   5.914
 5783TIP3   OH217291   3.792   0.405   6.313
 5783TIP3    H117292   3.827   0.346   6.384
 5783TIP3    H217293   3.869   0.456   6.288
 5784TIP3   OH217294   3.841   0.655   6.070
 5784TIP3    H117295   3.782   0.708   6.012
 5784TIP3    H217296   3.928   0.678   6.030
 5785TIP3   OH217297   3.040   0.255   6.500
 5785TIP3    H117298   2.990   0.177   6.526
 5785TIP3    H217299   3.095   0.220   6.427
 5786TIP3   OH217300   3.431   0.185   6.302
 5786TIP3    H117301   3.452   0.158   6.394
 5786TIP3    H217302   3.334   0.173   6.302
 5787TIP3   OH217303   2.705   1.116   4.664
 5787TIP3    H117304   2.800   1.107   4.646
 5787TIP3    H217305   2.678   1.166   4.585
 5788TIP3   OH217306   2.185   0.499   4.879
 5788TIP3    H117307   2.280   0.520   4.865
 5788TIP3    H217308   2.179   0.410   4.838
 5789TIP3   OH217309   2.077   1.126   5.310
 5789TIP3    H117310   2.015   1.056   5.278
 5789TIP3    H217311   2.127   1.072   5.376
 5790TIP3   OH217312   2.225   0.976   5.478
 5790TIP3    H117313   2.224   0.891   5.522
 5790TIP3    H217314   2.287   1.026   5.535
 5791TIP3   OH217315   3.963   1.359   5.281
 5791TIP3    H117316   3.988   1.391   5.369
 5791TIP3    H217317   4.027   1.404   5.224
 5792TIP3   OH217318   3.990   1.380   5.563
 5792TIP3    H117319   3.945   1.292   5.560
 5792TIP3    H217320   4.066   1.357   5.620
 5793TIP3   OH217321   4.040   1.057   6.138
 5793TIP3    H117322   3.967   1.067   6.201
 5793TIP3    H217323   4.081   1.146   6.140
 5794TIP3   OH217324   3.854   0.570   4.751
 5794TIP3    H117325   3.921   0.635   4.724
 5794TIP3    H217326   3.897   0.532   4.831
 5795TIP3   OH217327   3.979   0.443   4.956
 5795TIP3    H117328   3.913   0.403   5.017
 5795TIP3    H217329   4.045   0.482   5.018
 5796TIP3   OH217330   4.038   0.832   5.392
 5796TIP3    H117331   4.090   0.765   5.343
 5796TIP3    H217332   4.030   0.904   5.326
 5797TIP3   OH217333   3.865   1.130   5.585
 5797TIP3    H117334   3.793   1.171   5.637
 5797TIP3    H217335   3.815   1.083   5.514
 5798TIP3   OH217336   3.911   0.342   4.603
 5798TIP3    H117337   3.846   0.353   4.530
 5798TIP3    H217338   3.886   0.420   4.658
 5799TIP3   OH217339   3.775   0.000   4.551
 5799TIP3    H117340   3.765   0.081   4.498
 5799TIP3    H217341   3.689  -0.041   4.536
 5800TIP3   OH217342   3.793   0.308   5.101
 5800TIP3    H117343   3.795   0.213   5.079
 5800TIP3    H217344   3.780   0.308   5.199
 5801TIP3   OH217345   2.405   0.370   5.842
 5801TIP3    H117346   2.403   0.332   5.753
 5801TIP3    H217347   2.502   0.391   5.848
 5802TIP3   OH217348   4.084   0.720   5.962
 5802TIP3    H117349   4.156   0.654   5.950
 5802TIP3    H217350   4.107   0.788   5.897
 5803TIP3   OH217351   4.264   0.520   5.976
 5803TIP3    H117352   4.190   0.465   6.013
 5803TIP3    H217353   4.339   0.459   5.994
 5804TIP3   OH217354   3.792   0.056   4.971
 5804TIP3    H117355   3.821  -0.022   5.023
 5804TIP3    H217356   3.857   0.058   4.898
 5805TIP3   OH217357   3.950   0.186   5.502
 5805TIP3    H117358   4.035   0.211   5.459
 5805TIP3    H217359   3.964   0.224   5.590
 5806TIP3   OH217360   4.016   0.338   5.727
 5806TIP3    H117361   3.938   0.373   5.774
 5806TIP3    H217362   4.049   0.418   5.680
 5807TIP3   OH217363   2.638   0.048   6.520
 5807TIP3    H117364   2.732   0.035   6.505
 5807TIP3    H217365   2.610  -0.039   6.554
 5808TIP3   OH217366   2.393   0.023   5.925
 5808TIP3    H117367   2.438   0.021   5.838
 5808TIP3    H217368   2.450   0.084   5.973
 5809TIP3   OH217369   3.542   1.228   4.935
 5809TIP3    H117370   3.597   1.217   4.855
 5809TIP3    H217371   3.594   1.292   4.986
 5810TIP3   OH217372   2.643   1.032   6.321
 5810TIP3    H117373   2.552   1.007   6.297
 5810TIP3    H217374   2.646   1.010   6.414
 5811TIP3   OH217375   3.265   1.314   6.010
 5811TIP3    H117376   3.311   1.310   6.096
 5811TIP3    H217377   3.330   1.362   5.955
 5812TIP3   OH217378   3.446   1.462   5.867
 5812TIP3    H117379   3.514   1.409   5.823
 5812TIP3    H217380   3.501   1.518   5.926
 5813TIP3   OH217381   2.487   1.291   5.905
 5813TIP3    H117382   2.401   1.333   5.882
 5813TIP3    H217383   2.522   1.357   5.966
 5814TIP3   OH217384   2.727   1.358   5.769
 5814TIP3    H117385   2.650   1.312   5.806
 5814TIP3    H217386   2.720   1.337   5.675
 5815TIP3   OH217387   3.191   1.359   5.510
 5815TIP3    H117388   3.100   1.367   5.479
 5815TIP3    H217389   3.196   1.431   5.577
 5816TIP3   OH217390   3.435   1.268   5.602
 5816TIP3    H117391   3.341   1.284   5.577
 5816TIP3    H217392   3.478   1.342   5.558
 5817TIP3   OH217393   3.641   1.459   5.515
 5817TIP3    H117394   3.626   1.543   5.466
 5817TIP3    H217395   3.666   1.398   5.442
 5818TIP3   OH217396   2.413   1.095   5.640
 5818TIP3    H117397   2.447   1.078   5.731
 5818TIP3    H217398   2.492   1.068   5.589
 5819TIP3   OH217399   2.639   0.986   5.492
 5819TIP3    H117400   2.677   0.897   5.488
 5819TIP3    H217401   2.709   1.030   5.543
 5820TIP3   OH217402   2.195   0.894   5.032
 5820TIP3    H117403   2.111   0.856   5.000
 5820TIP3    H217404   2.190   0.982   4.992
 5821TIP3   OH217405   2.972   1.071   4.611
 5821TIP3    H117406   3.060   1.094   4.575
 5821TIP3    H217407   2.950   0.996   4.552
 5822TIP3   OH217408   3.692   1.194   4.704
 5822TIP3    H117409   3.684   1.097   4.693
 5822TIP3    H217410   3.647   1.226   4.624
 5823TIP3   OH217411   2.275   0.907   4.667
 5823TIP3    H117412   2.288   0.932   4.759
 5823TIP3    H217413   2.362   0.864   4.646
 5824TIP3   OH217414   3.915   1.336   5.892
 5824TIP3    H117415   3.837   1.306   5.841
 5824TIP3    H217416   3.896   1.432   5.896
 5825TIP3   OH217417   5.183   0.708   4.657
 5825TIP3    H117418   5.155   0.799   4.637
 5825TIP3    H217419   5.107   0.659   4.619
 5826TIP3   OH217420   5.184   0.711   5.041
 5826TIP3    H117421   5.215   0.687   5.130
 5826TIP3    H217422   5.140   0.630   5.011
 5827TIP3   OH217423   4.480   0.605   5.403
 5827TIP3    H117424   4.512   0.535   5.462
 5827TIP3    H217425   4.560   0.657   5.391
 5828TIP3   OH217426   5.427   1.014   4.722
 5828TIP3    H117427   5.413   0.945   4.788
 5828TIP3    H217428   5.457   1.089   4.776
 5829TIP3   OH217429   4.455   1.015   5.125
 5829TIP3    H117430   4.446   0.917   5.127
 5829TIP3    H217431   4.552   1.023   5.121
 5830TIP3   OH217432   4.149   0.229   4.926
 5830TIP3    H117433   4.094   0.309   4.935
 5830TIP3    H217434   4.091   0.173   4.872
 5831TIP3   OH217435   4.213   0.515   5.085
 5831TIP3    H117436   4.255   0.432   5.117
 5831TIP3    H217437   4.278   0.546   5.021
 5832TIP3   OH217438   5.078   1.474   4.737
 5832TIP3    H117439   5.121   1.402   4.687
 5832TIP3    H217440   5.068   1.435   4.825
 5833TIP3   OH217441   4.980   0.936   5.087
 5833TIP3    H117442   5.020   0.859   5.042
 5833TIP3    H217443   5.063   0.982   5.112
 5834TIP3   OH217444   5.399   0.437   5.133
 5834TIP3    H117445   5.418   0.346   5.159
 5834TIP3    H217446   5.361   0.427   5.043
 5835TIP3   OH217447   4.718   0.058   5.055
 5835TIP3    H117448   4.695   0.147   5.019
 5835TIP3    H217449   4.636   0.010   5.039
 5836TIP3   OH217450   5.388   0.211   4.757
 5836TIP3    H117451   5.450   0.164   4.816
 5836TIP3    H217452   5.441   0.214   4.675
 5837TIP3   OH217453   4.341   0.296   5.183
 5837TIP3    H117454   4.434   0.299   5.217
 5837TIP3    H217455   4.356   0.235   5.108
 5838TIP3   OH217456   4.801   0.499   4.988
 5838TIP3    H117457   4.895   0.473   5.003
 5838TIP3    H217458   4.762   0.413   4.962
 5839TIP3   OH217459   6.024   0.441   5.284
 5839TIP3    H117460   5.954   0.502   5.252
 5839TIP3    H217461   6.089   0.501   5.323
 5840TIP3   OH217462   5.075   0.930   4.525
 5840TIP3    H117463   5.032   0.912   4.440
 5840TIP3    H217464   5.029   1.013   4.551
 5841TIP3   OH217465   4.835   0.855   5.311
 5841TIP3    H117466   4.774   0.922   5.347
 5841TIP3    H217467   4.877   0.904   5.237
 5842TIP3   OH217468   4.598   0.264   5.250
 5842TIP3    H117469   4.668   0.307   5.303
 5842TIP3    H217470   4.630   0.172   5.250
 5843TIP3   OH217471   4.665   1.051   5.409
 5843TIP3    H117472   4.639   1.138   5.373
 5843TIP3    H217473   4.586   1.033   5.465
 5844TIP3   OH217474   4.056   0.741   4.646
 5844TIP3    H117475   4.014   0.768   4.562
 5844TIP3    H217476   4.087   0.827   4.682
 5845TIP3   OH217477   5.496   1.256   4.885
 5845TIP3    H117478   5.406   1.247   4.925
 5845TIP3    H217479   5.487   1.343   4.841
 5846TIP3   OH217480   5.195   1.301   4.558
 5846TIP3    H117481   5.247   1.219   4.539
 5846TIP3    H217482   5.257   1.367   4.518
 5847TIP3   OH217483   5.341   1.086   4.469
 5847TIP3    H117484   5.299   1.005   4.435
 5847TIP3    H217485   5.379   1.053   4.554
 5848TIP3   OH217486   5.722   1.167   5.230
 5848TIP3    H117487   5.710   1.090   5.171
 5848TIP3    H217488   5.704   1.242   5.169
 5849TIP3   OH217489   5.014   0.567   4.486
 5849TIP3    H117490   4.932   0.616   4.465
 5849TIP3    H217491   5.057   0.560   4.399
 5850TIP3   OH217492   4.970   0.345   4.206
 5850TIP3    H117493   5.043   0.395   4.248
 5850TIP3    H217494   5.021   0.276   4.159
 5851TIP3   OH217495   5.919   0.810   5.077
 5851TIP3    H117496   5.835   0.860   5.080
 5851TIP3    H217497   5.948   0.831   4.985
 5852TIP3   OH217498   5.359   0.646   4.457
 5852TIP3    H117499   5.305   0.669   4.536
 5852TIP3    H217500   5.445   0.624   4.500
 5853TIP3   OH217501   5.595   0.683   5.378
 5853TIP3    H117502   5.590   0.765   5.431
 5853TIP3    H217503   5.508   0.687   5.332
 5854TIP3   OH217504   4.593   0.641   4.875
 5854TIP3    H117505   4.553   0.582   4.809
 5854TIP3    H217506   4.670   0.588   4.907
 5855TIP3   OH217507   4.724   1.055   5.023
 5855TIP3    H117508   4.704   1.015   4.937
 5855TIP3    H217509   4.813   1.019   5.042
 5856TIP3   OH217510   4.732   0.609   5.238
 5856TIP3    H117511   4.761   0.584   5.147
 5856TIP3    H217512   4.775   0.696   5.251
 5857TIP3   OH217513   5.256   1.251   5.008
 5857TIP3    H117514   5.242   1.330   5.062
 5857TIP3    H217515   5.240   1.178   5.071
 5858TIP3   OH217516   4.869   1.168   5.555
 5858TIP3    H117517   4.808   1.230   5.601
 5858TIP3    H217518   4.804   1.115   5.504
 5859TIP3   OH217519   5.201   0.500   4.285
 5859TIP3    H117520   5.259   0.561   4.336
 5859TIP3    H217521   5.227   0.522   4.193
 5860TIP3   OH217522   4.616   0.732   5.654
 5860TIP3    H117523   4.620   0.819   5.701
 5860TIP3    H217524   4.522   0.710   5.667
 5861TIP3   OH217525   4.948   1.178   4.560
 5861TIP3    H117526   5.029   1.231   4.571
 5861TIP3    H217527   4.886   1.242   4.521
 5862TIP3   OH217528   4.663   1.334   5.642
 5862TIP3    H117529   4.627   1.336   5.551
 5862TIP3    H217530   4.582   1.313   5.695
 5863TIP3   OH217531   4.460   0.483   4.679
 5863TIP3    H117532   4.392   0.529   4.625
 5863TIP3    H217533   4.420   0.397   4.692
 5864TIP3   OH217534   5.517   1.109   3.882
 5864TIP3    H117535   5.525   1.206   3.869
 5864TIP3    H217536   5.610   1.080   3.870
 5865TIP3   OH217537   4.241   0.869   5.588
 5865TIP3    H117538   4.173   0.850   5.520
 5865TIP3    H217539   4.278   0.781   5.608
 5866TIP3   OH217540   4.095   1.062   5.218
 5866TIP3    H117541   4.192   1.057   5.212
 5866TIP3    H217542   4.084   1.140   5.275
 5867TIP3   OH217543   5.959   1.514   5.278
 5867TIP3    H117544   5.958   1.418   5.292
 5867TIP3    H217545   5.875   1.539   5.324
 5868TIP3   OH217546   5.065   1.298   5.412
 5868TIP3    H117547   5.062   1.391   5.444
 5868TIP3    H217548   4.994   1.257   5.466
 5869TIP3   OH217549   4.829   1.427   4.364
 5869TIP3    H117550   4.780   1.409   4.281
 5869TIP3    H217551   4.795   1.514   4.390
 5870TIP3   OH217552   4.265   1.275   4.749
 5870TIP3    H117553   4.312   1.266   4.835
 5870TIP3    H217554   4.212   1.193   4.749
 5871TIP3   OH217555   5.028   1.329   4.002
 5871TIP3    H117556   5.086   1.258   3.967
 5871TIP3    H217557   5.062   1.339   4.093
 5872TIP3   OH217558   5.080   1.377   4.271
 5872TIP3    H117559   4.991   1.387   4.314
 5872TIP3    H217560   5.131   1.338   4.344
 5873TIP3   OH217561   5.847   0.634   5.548
 5873TIP3    H117562   5.767   0.665   5.503
 5873TIP3    H217563   5.837   0.538   5.541
 5874TIP3   OH217564   4.446   1.051   5.573
 5874TIP3    H117565   4.495   1.036   5.657
 5874TIP3    H217566   4.372   0.988   5.581
 5875TIP3   OH217567   5.625   0.426   5.499
 5875TIP3    H117568   5.593   0.457   5.584
 5875TIP3    H217569   5.604   0.500   5.439
 5876TIP3   OH217570   5.281   0.543   4.031
 5876TIP3    H117571   5.242   0.521   3.944
 5876TIP3    H217572   5.361   0.592   4.004
 5877TIP3   OH217573   4.796   0.394   5.396
 5877TIP3    H117574   4.734   0.413   5.470
 5877TIP3    H217575   4.780   0.473   5.339
 5878TIP3   OH217576   4.659   0.278   4.901
 5878TIP3    H117577   4.564   0.256   4.912
 5878TIP3    H217578   4.675   0.247   4.809
 5879TIP3   OH217579   5.145   0.367   4.622
 5879TIP3    H117580   5.097   0.439   4.577
 5879TIP3    H217581   5.210   0.340   4.555
 5880TIP3   OH217582   5.334   0.666   5.694
 5880TIP3    H117583   5.309   0.586   5.745
 5880TIP3    H217584   5.429   0.674   5.718
 5881TIP3   OH217585   5.289   0.429   4.881
 5881TIP3    H117586   5.235   0.473   4.813
 5881TIP3    H217587   5.313   0.347   4.831
 5882TIP3   OH217588   4.597   0.424   5.588
 5882TIP3    H117589   4.615   0.488   5.659
 5882TIP3    H217590   4.578   0.343   5.637
 5883TIP3   OH217591   4.228   0.034   4.725
 5883TIP3    H117592   4.243   0.030   4.628
 5883TIP3    H217593   4.132   0.051   4.726
 5884TIP3   OH217594   5.313   0.641   5.283
 5884TIP3    H117595   5.351   0.570   5.227
 5884TIP3    H217596   5.289   0.588   5.362
 5885TIP3   OH217597   4.408   0.152   4.944
 5885TIP3    H117598   4.316   0.185   4.932
 5885TIP3    H217599   4.404   0.074   4.887
 5886TIP3   OH217600   4.701   0.174   4.654
 5886TIP3    H117601   4.792   0.161   4.622
 5886TIP3    H217602   4.647   0.165   4.572
 5887TIP3   OH217603   4.535   0.157   4.427
 5887TIP3    H117604   4.461   0.140   4.365
 5887TIP3    H217605   4.595   0.204   4.365
 5888TIP3   OH217606   5.653   1.863   5.378
 5888TIP3    H117607   5.650   1.887   5.283
 5888TIP3    H217608   5.732   1.912   5.408
 5889TIP3   OH217609   4.606   0.974   5.798
 5889TIP3    H117610   4.687   1.003   5.845
 5889TIP3    H217611   4.542   0.975   5.872
 5890TIP3   OH217612   5.059   0.429   5.053
 5890TIP3    H117613   5.142   0.400   5.014
 5890TIP3    H217614   5.066   0.395   5.146
 5891TIP3   OH217615   5.068   0.355   5.316
 5891TIP3    H117616   4.978   0.352   5.353
 5891TIP3    H217617   5.119   0.399   5.387
 5892TIP3   OH217618   4.782   0.714   4.435
 5892TIP3    H117619   4.710   0.649   4.424
 5892TIP3    H217620   4.764   0.748   4.527
 5893TIP3   OH217621   5.683   0.951   5.064
 5893TIP3    H117622   5.707   1.000   4.983
 5893TIP3    H217623   5.598   0.909   5.039
 5894TIP3   OH217624   5.203   0.097   4.258
 5894TIP3    H117625   5.155   0.047   4.326
 5894TIP3    H217626   5.252   0.159   4.315
 5895TIP3   OH217627   5.183   1.033   5.434
 5895TIP3    H117628   5.210   1.013   5.524
 5895TIP3    H217629   5.144   1.122   5.442
 5896TIP3   OH217630   5.319   0.287   4.419
 5896TIP3    H117631   5.416   0.298   4.425
 5896TIP3    H217632   5.293   0.363   4.363
 5897TIP3   OH217633   4.479   0.737   5.112
 5897TIP3    H117634   4.517   0.708   5.026
 5897TIP3    H217635   4.519   0.674   5.174
 5898TIP3   OH217636   4.929   0.864   4.260
 5898TIP3    H117637   4.881   0.950   4.265
 5898TIP3    H217638   4.875   0.808   4.319
 5899TIP3   OH217639   4.358   0.655   5.727
 5899TIP3    H117640   4.375   0.639   5.822
 5899TIP3    H217641   4.285   0.593   5.709
 5900TIP3   OH217642   5.084   0.775   5.750
 5900TIP3    H117643   5.023   0.720   5.698
 5900TIP3    H217644   5.171   0.746   5.716
 5901TIP3   OH217645   5.342   1.293   5.330
 5901TIP3    H117646   5.246   1.291   5.344
 5901TIP3    H217647   5.370   1.345   5.409
 5902TIP3   OH217648   5.753   0.363   4.227
 5902TIP3    H117649   5.691   0.314   4.168
 5902TIP3    H217650   5.739   0.453   4.190
 5903TIP3   OH217651   5.972   1.225   5.318
 5903TIP3    H117652   5.874   1.218   5.310
 5903TIP3    H217653   5.999   1.194   5.229
 5904TIP3   OH217654   5.455   1.184   4.149
 5904TIP3    H117655   5.427   1.116   4.211
 5904TIP3    H217656   5.466   1.135   4.065
 5905TIP3   OH217657   5.449   0.815   4.981
 5905TIP3    H117658   5.356   0.789   4.995
 5905TIP3    H217659   5.484   0.736   4.936
 5906TIP3   OH217660   4.578   1.041   4.738
 5906TIP3    H117661   4.576   1.122   4.684
 5906TIP3    H217662   4.484   1.025   4.751
 5907TIP3   OH217663   4.138   0.344   4.445
 5907TIP3    H117664   4.185   0.428   4.466
 5907TIP3    H217665   4.061   0.350   4.505
 5908TIP3   OH217666   4.712   0.805   4.680
 5908TIP3    H117667   4.678   0.895   4.699
 5908TIP3    H217668   4.677   0.754   4.756
 5909TIP3   OH217669   4.848   1.383   5.206
 5909TIP3    H117670   4.890   1.456   5.156
 5909TIP3    H217671   4.925   1.348   5.254
 5910TIP3   OH217672   4.496   1.279   4.590
 5910TIP3    H117673   4.410   1.288   4.637
 5910TIP3    H217674   4.528   1.372   4.594
 5911TIP3   OH217675   5.233   1.019   5.166
 5911TIP3    H117676   5.223   1.018   5.264
 5911TIP3    H217677   5.313   0.965   5.155
 5912TIP3   OH217678   5.211   0.913   4.049
 5912TIP3    H117679   5.265   0.888   4.128
 5912TIP3    H217680   5.123   0.884   4.078
 5913TIP3   OH217681   5.483   1.550   5.217
 5913TIP3    H117682   5.404   1.493   5.211
 5913TIP3    H217683   5.466   1.614   5.144
 5914TIP3   OH217684   5.548   1.385   3.867
 5914TIP3    H117685   5.586   1.460   3.818
 5914TIP3    H217686   5.468   1.429   3.902
 5915TIP3   OH217687   5.372   0.844   4.262
 5915TIP3    H117688   5.360   0.778   4.334
 5915TIP3    H217689   5.469   0.842   4.251
 5916TIP3   OH217690   4.285   1.245   5.365
 5916TIP3    H117691   4.340   1.174   5.402
 5916TIP3    H217692   4.311   1.320   5.421
 5917TIP3   OH217693   4.574   0.891   4.049
 5917TIP3    H117694   4.588   0.798   4.022
 5917TIP3    H217695   4.554   0.881   4.144
 5918TIP3   OH217696   4.519   0.897   4.320
 5918TIP3    H117697   4.591   0.869   4.378
 5918TIP3    H217698   4.523   0.995   4.329
 5919TIP3   OH217699   4.253   0.588   4.526
 5919TIP3    H117700   4.187   0.634   4.582
 5919TIP3    H217701   4.268   0.657   4.458
 5920TIP3   OH217702   4.786   1.094   4.268
 5920TIP3    H117703   4.699   1.118   4.305
 5920TIP3    H217704   4.803   1.170   4.211
 5921TIP3   OH217705   4.988   0.146   4.645
 5921TIP3    H117706   5.040   0.229   4.640
 5921TIP3    H217707   4.994   0.125   4.739
 5922TIP3   OH217708   5.257   0.478   5.494
 5922TIP3    H117709   5.254   0.542   5.567
 5922TIP3    H217710   5.308   0.406   5.533
 5923TIP3   OH217711   4.531   1.169   4.339
 5923TIP3    H117712   4.502   1.240   4.277
 5923TIP3    H217713   4.515   1.212   4.426
 5924TIP3   OH217714   5.537   0.572   4.861
 5924TIP3    H117715   5.457   0.520   4.882
 5924TIP3    H217716   5.607   0.524   4.910
 5925TIP3   OH217717   4.249   0.795   4.329
 5925TIP3    H117718   4.319   0.863   4.338
 5925TIP3    H217719   4.292   0.738   4.263
 5926TIP3   OH217720   4.191   0.073   4.450
 5926TIP3    H117721   4.185   0.170   4.445
 5926TIP3    H217722   4.100   0.045   4.435
 5927TIP3   OH217723   5.504   1.528   4.808
 5927TIP3    H117724   5.461   1.574   4.733
 5927TIP3    H217725   5.598   1.546   4.788
 5928TIP3   OH217726   4.116   1.012   4.714
 5928TIP3    H117727   4.053   1.043   4.780
 5928TIP3    H217728   4.083   1.056   4.633
 5929TIP3   OH217729   4.279   1.560   5.787
 5929TIP3    H117730   4.364   1.562   5.836
 5929TIP3    H217731   4.260   1.465   5.787
 5930TIP3   OH217732   4.754   1.516   5.834
 5930TIP3    H117733   4.849   1.501   5.840
 5930TIP3    H217734   4.730   1.455   5.761
 5931TIP3   OH217735   4.737   1.093   3.958
 5931TIP3    H117736   4.681   1.023   3.999
 5931TIP3    H217737   4.813   1.040   3.930
 5932TIP3   OH217738   5.397   1.426   5.565
 5932TIP3    H117739   5.389   1.356   5.634
 5932TIP3    H217740   5.473   1.477   5.597
 5933TIP3   OH217741   5.173   1.133   3.874
 5933TIP3    H117742   5.213   1.067   3.934
 5933TIP3    H217743   5.233   1.130   3.797
 5934TIP3   OH217744   4.405   0.961   5.989
 5934TIP3    H117745   4.421   0.865   5.992
 5934TIP3    H217746   4.319   0.965   5.944
 5935TIP3   OH217747   4.385   0.609   4.184
 5935TIP3    H117748   4.441   0.577   4.257
 5935TIP3    H217749   4.452   0.614   4.112
 5936TIP3   OH217750   5.013   1.049   5.763
 5936TIP3    H117751   4.972   1.067   5.676
 5936TIP3    H217752   5.044   0.956   5.754
 5937TIP3   OH217753   4.898   0.812   3.990
 5937TIP3    H117754   4.899   0.825   4.087
 5937TIP3    H217755   4.900   0.714   3.985
 5938TIP3   OH217756   5.506   1.059   5.369
 5938TIP3    H117757   5.581   1.103   5.325
 5938TIP3    H217758   5.435   1.125   5.354
 5939TIP3   OH217759   4.529   0.694   5.973
 5939TIP3    H117760   4.613   0.652   5.947
 5939TIP3    H217761   4.552   0.729   6.061
 5940TIP3   OH217762   4.588   0.518   4.403
 5940TIP3    H117763   4.566   0.479   4.489
 5940TIP3    H217764   4.626   0.441   4.354
 5941TIP3   OH217765   4.861   0.610   5.632
 5941TIP3    H117766   4.778   0.662   5.628
 5941TIP3    H217767   4.906   0.637   5.548
 5942TIP3   OH217768   4.692   0.309   4.251
 5942TIP3    H117769   4.665   0.314   4.157
 5942TIP3    H217770   4.789   0.314   4.242
 5943TIP3   OH217771   5.380   0.984   5.766
 5943TIP3    H117772   5.454   0.951   5.714
 5943TIP3    H217773   5.370   0.915   5.834
 5944TIP3   OH217774   5.513   0.639   3.908
 5944TIP3    H117775   5.491   0.595   3.823
 5944TIP3    H217776   5.481   0.730   3.887
 5945TIP3   OH217777   4.948   0.388   5.754
 5945TIP3    H117778   4.901   0.328   5.694
 5945TIP3    H217779   4.922   0.475   5.712
 5946TIP3   OH217780   5.023   0.698   5.434
 5946TIP3    H117781   5.104   0.704   5.382
 5946TIP3    H217782   4.964   0.761   5.388
 5947TIP3   OH217783   5.590   0.657   5.793
 5947TIP3    H117784   5.621   0.603   5.869
 5947TIP3    H217785   5.669   0.710   5.773
 5948TIP3   OH217786   5.637   0.911   5.553
 5948TIP3    H117787   5.578   0.966   5.495
 5948TIP3    H217788   5.724   0.934   5.514
 5949TIP3   OH217789   4.826   0.513   5.983
 5949TIP3    H117790   4.787   0.433   6.019
 5949TIP3    H217791   4.887   0.477   5.915
 5950TIP3   OH217792   5.228   0.441   5.790
 5950TIP3    H117793   5.254   0.411   5.880
 5950TIP3    H217794   5.131   0.429   5.794
 5951TIP3   OH217795   4.502   1.372   4.150
 5951TIP3    H117796   4.597   1.364   4.131
 5951TIP3    H217797   4.473   1.423   4.073
 5952TIP3   OH217798   3.980   0.755   4.364
 5952TIP3    H117799   4.075   0.776   4.351
 5952TIP3    H217800   3.974   0.666   4.322
 5953TIP3   OH217801   3.896   1.365   4.782
 5953TIP3    H117802   3.829   1.303   4.744
 5953TIP3    H217803   3.940   1.306   4.847
 5954TIP3   OH217804   4.031   1.212   4.967
 5954TIP3    H117805   4.019   1.142   5.034
 5954TIP3    H217806   4.082   1.276   5.020
 5955TIP3   OH217807   5.759   1.616   4.768
 5955TIP3    H117808   5.785   1.647   4.856
 5955TIP3    H217809   5.824   1.659   4.710
 5956TIP3   OH217810   5.787   1.636   5.050
 5956TIP3    H117811   5.742   1.549   5.046
 5956TIP3    H217812   5.861   1.612   5.108
 5957TIP3   OH217813   5.833   1.314   5.622
 5957TIP3    H117814   5.761   1.323   5.688
 5957TIP3    H217815   5.875   1.402   5.627
 5958TIP3   OH217816   5.651   0.826   4.238
 5958TIP3    H117817   5.718   0.892   4.211
 5958TIP3    H217818   5.693   0.789   4.319
 5959TIP3   OH217819   5.775   0.700   4.443
 5959TIP3    H117820   5.709   0.660   4.504
 5959TIP3    H217821   5.841   0.738   4.505
 5960TIP3   OH217822   5.833   1.088   4.877
 5960TIP3    H117823   5.887   1.021   4.830
 5960TIP3    H217824   5.827   1.160   4.811
 5961TIP3   OH217825   5.661   1.387   5.071
 5961TIP3    H117826   5.590   1.428   5.123
 5961TIP3    H217827   5.611   1.340   5.001
 5962TIP3   OH217828   5.709   0.600   4.092
 5962TIP3    H117829   5.639   0.609   4.023
 5962TIP3    H217830   5.686   0.677   4.148
 5963TIP3   OH217831   5.577   0.270   4.037
 5963TIP3    H117832   5.554   0.342   3.977
 5963TIP3    H217833   5.534   0.194   3.994
 5964TIP3   OH217834   5.588   0.565   4.588
 5964TIP3    H117835   5.591   0.470   4.565
 5964TIP3    H217836   5.576   0.565   4.686
 5965TIP3   OH217837   4.215   0.623   5.340
 5965TIP3    H117838   4.212   0.593   5.246
 5965TIP3    H217839   4.313   0.625   5.355
 5966TIP3   OH217840   5.881   0.977   5.448
 5966TIP3    H117841   5.953   0.911   5.438
 5966TIP3    H217842   5.907   1.046   5.385
 5967TIP3   OH217843   6.062   0.778   5.458
 5967TIP3    H117844   5.988   0.724   5.494
 5967TIP3    H217845   6.137   0.718   5.478
 5968TIP3   OH217846   5.590   0.315   4.458
 5968TIP3    H117847   5.618   0.237   4.511
 5968TIP3    H217848   5.653   0.315   4.385
 5969TIP3   OH217849   5.745   0.444   4.988
 5969TIP3    H117850   5.830   0.468   4.946
 5969TIP3    H217851   5.760   0.481   5.077
 5970TIP3   OH217852   5.810   0.595   5.213
 5970TIP3    H117853   5.733   0.631   5.261
 5970TIP3    H217854   5.845   0.675   5.167
 5971TIP3   OH217855   4.429   0.307   6.015
 5971TIP3    H117856   4.521   0.284   5.997
 5971TIP3    H217857   4.396   0.223   6.053
 5972TIP3   OH217858   4.194   0.276   5.416
 5972TIP3    H117859   4.240   0.276   5.330
 5972TIP3    H217860   4.222   0.360   5.453
 5973TIP3   OH217861   5.340   1.484   4.423
 5973TIP3    H117862   5.394   1.472   4.342
 5973TIP3    H217863   5.392   1.550   4.472
 5974TIP3   OH217864   4.442   1.286   5.806
 5974TIP3    H117865   4.348   1.263   5.792
 5974TIP3    H217866   4.451   1.273   5.901
 5975TIP3   OH217867   4.622   1.322   5.356
 5975TIP3    H117868   4.573   1.398   5.318
 5975TIP3    H217869   4.708   1.336   5.310
 5976TIP3   OH217870   5.062   1.564   5.492
 5976TIP3    H117871   5.104   1.563   5.581
 5976TIP3    H217872   5.128   1.616   5.441
 5977TIP3   OH217873   5.242   1.718   5.354
 5977TIP3    H117874   5.313   1.666   5.313
 5977TIP3    H217875   5.294   1.775   5.415
 5978TIP3   OH217876   4.297   1.577   5.381
 5978TIP3    H117877   4.206   1.608   5.359
 5978TIP3    H217878   4.311   1.624   5.465
 5979TIP3   OH217879   4.532   1.556   5.239
 5979TIP3    H117880   4.445   1.568   5.283
 5979TIP3    H217881   4.512   1.589   5.149
 5980TIP3   OH217882   4.958   1.583   5.036
 5980TIP3    H117883   4.888   1.602   4.971
 5980TIP3    H217884   4.970   1.671   5.078
 5981TIP3   OH217885   5.227   1.523   5.088
 5981TIP3    H117886   5.133   1.539   5.069
 5981TIP3    H217887   5.270   1.598   5.044
 5982TIP3   OH217888   5.435   1.715   5.001
 5982TIP3    H117889   5.420   1.799   4.953
 5982TIP3    H217890   5.460   1.654   4.928
 5983TIP3   OH217891   4.208   1.370   5.123
 5983TIP3    H117892   4.234   1.342   5.214
 5983TIP3    H217893   4.281   1.328   5.072
 5984TIP3   OH217894   4.403   1.243   4.982
 5984TIP3    H117895   4.418   1.159   5.032
 5984TIP3    H217896   4.495   1.279   4.980
 5985TIP3   OH217897   4.670   1.335   4.987
 5985TIP3    H117898   4.700   1.243   4.977
 5985TIP3    H217899   4.717   1.358   5.070
 5986TIP3   OH217900   3.996   1.145   4.513
 5986TIP3    H117901   3.910   1.113   4.480
 5986TIP3    H217902   3.986   1.240   4.492
 5987TIP3   OH217903   4.768   1.327   4.098
 5987TIP3    H117904   4.856   1.350   4.061
 5987TIP3    H217905   4.746   1.252   4.038
 5988TIP3   OH217906   5.489   1.451   4.191
 5988TIP3    H117907   5.481   1.353   4.180
 5988TIP3    H217908   5.442   1.483   4.111
 5989TIP3   OH217909   4.071   1.167   4.153
 5989TIP3    H117910   4.073   1.187   4.247
 5989TIP3    H217911   4.159   1.124   4.139
 5990TIP3   OH217912   5.712   1.593   5.378
 5990TIP3    H117913   5.633   1.562   5.329
 5990TIP3    H217914   5.692   1.688   5.384
 5991TIP3   OH217915   6.980   0.964   4.142
 5991TIP3    H117916   6.953   1.056   4.124
 5991TIP3    H217917   6.902   0.917   4.108
 5992TIP3   OH217918   6.979   0.967   4.527
 5992TIP3    H117919   7.012   0.947   4.617
 5992TIP3    H217920   6.934   0.884   4.504
 5993TIP3   OH217921   6.275   0.860   4.889
 5993TIP3    H117922   6.307   0.791   4.950
 5993TIP3    H217923   6.355   0.914   4.882
 5994TIP3   OH217924   7.225   1.269   4.210
 5994TIP3    H117925   7.209   1.202   4.278
 5994TIP3    H217926   7.253   1.346   4.262
 5995TIP3   OH217927   6.251   1.271   4.612
 5995TIP3    H117928   6.242   1.173   4.614
 5995TIP3    H217929   6.348   1.280   4.609
 5996TIP3   OH217930   5.946   0.486   4.413
 5996TIP3    H117931   5.890   0.566   4.422
 5996TIP3    H217932   5.888   0.430   4.360
 5997TIP3   OH217933   6.009   0.771   4.572
 5997TIP3    H117934   6.050   0.688   4.605
 5997TIP3    H217935   6.075   0.803   4.509
 5998TIP3   OH217936   6.875   1.731   4.224
 5998TIP3    H117937   6.918   1.658   4.174
 5998TIP3    H217938   6.866   1.691   4.312
 5999TIP3   OH217939   6.777   1.193   4.573
 5999TIP3    H117940   6.817   1.116   4.530
 5999TIP3    H217941   6.860   1.239   4.600
 6000TIP3   OH217942   7.200   0.694   4.618
 6000TIP3    H117943   7.212   0.604   4.650
 6000TIP3    H217944   7.158   0.683   4.531
 6001TIP3   OH217945   6.516   0.312   4.535
 6001TIP3    H117946   6.493   0.403   4.507
 6001TIP3    H217947   6.431   0.268   4.527
 6002TIP3   OH217948   7.185   0.469   4.243
 6002TIP3    H117949   7.247   0.423   4.303
 6002TIP3    H217950   7.238   0.472   4.162
 6003TIP3   OH217951   6.138   0.554   4.669
 6003TIP3    H117952   6.231   0.556   4.703
 6003TIP3    H217953   6.152   0.492   4.595
 6004TIP3   OH217954   6.598   0.756   4.473
 6004TIP3    H117955   6.691   0.729   4.490
 6004TIP3    H217956   6.557   0.670   4.448
 6005TIP3   OH217957   7.824   0.700   4.770
 6005TIP3    H117958   7.751   0.758   4.741
 6005TIP3    H217959   7.887   0.763   4.807
 6006TIP3   OH217960   6.872   1.188   4.010
 6006TIP3    H117961   6.828   1.170   3.926
 6006TIP3    H217962   6.826   1.270   4.038
 6007TIP3   OH217963   6.631   1.112   4.797
 6007TIP3    H117964   6.570   1.179   4.835
 6007TIP3    H217965   6.674   1.162   4.725
 6008TIP3   OH217966   6.396   0.519   4.734
 6008TIP3    H117967   6.463   0.566   4.787
 6008TIP3    H217968   6.424   0.427   4.748
 6009TIP3   OH217969   6.460   1.308   4.897
 6009TIP3    H117970   6.434   1.395   4.861
 6009TIP3    H217971   6.382   1.290   4.953
 6010TIP3   OH217972   5.852   0.998   4.133
 6010TIP3    H117973   5.811   1.025   4.049
 6010TIP3    H217974   5.883   1.083   4.169
 6011TIP3   OH217975   7.291   1.512   4.370
 6011TIP3    H117976   7.202   1.503   4.411
 6011TIP3    H217977   7.283   1.600   4.327
 6012TIP3   OH217978   6.992   1.557   4.043
 6012TIP3    H117979   7.043   1.475   4.025
 6012TIP3    H217980   7.053   1.623   4.004
 6013TIP3   OH217981   7.137   1.341   3.957
 6013TIP3    H117982   7.091   1.263   3.926
 6013TIP3    H217983   7.176   1.309   4.042
 6014TIP3   OH217984   7.519   1.426   4.717
 6014TIP3    H117985   7.507   1.346   4.662
 6014TIP3    H217986   7.501   1.498   4.653
 6015TIP3   OH217987   6.809   0.822   3.972
 6015TIP3    H117988   6.727   0.872   3.953
 6015TIP3    H217989   6.851   0.819   3.885
 6016TIP3   OH217990   6.766   0.603   3.691
 6016TIP3    H117991   6.838   0.652   3.735
 6016TIP3    H217992   6.817   0.535   3.644
 6017TIP3   OH217993   7.705   1.052   4.552
 6017TIP3    H117994   7.627   1.110   4.564
 6017TIP3    H217995   7.741   1.087   4.468
 6018TIP3   OH217996   7.156   0.902   3.943
 6018TIP3    H117997   7.101   0.925   4.022
 6018TIP3    H217998   7.241   0.880   3.988
 6019TIP3   OH217999   7.385   0.925   4.852
 6019TIP3    H118000   7.395   1.003   4.912
 6019TIP3    H218001   7.298   0.945   4.814
 6020TIP3   OH218002   6.390   0.898   4.362
 6020TIP3    H118003   6.350   0.838   4.295
 6020TIP3    H218004   6.466   0.845   4.394
 6021TIP3   OH218005   6.521   1.312   4.509
 6021TIP3    H118006   6.501   1.271   4.424
 6021TIP3    H218007   6.610   1.276   4.529
 6022TIP3   OH218008   6.528   0.866   4.724
 6022TIP3    H118009   6.558   0.842   4.634
 6022TIP3    H218010   6.571   0.953   4.739
 6023TIP3   OH218011   7.052   1.507   4.495
 6023TIP3    H118012   7.039   1.586   4.550
 6023TIP3    H218013   7.037   1.433   4.558
 6024TIP3   OH218014   6.665   1.428   5.040
 6024TIP3    H118015   6.603   1.488   5.088
 6024TIP3    H218016   6.600   1.373   4.991
 6025TIP3   OH218017   6.998   0.756   3.771
 6025TIP3    H118018   7.055   0.819   3.822
 6025TIP3    H218019   7.024   0.778   3.679
 6026TIP3   OH218020   6.411   0.991   5.138
 6026TIP3    H118021   6.417   1.075   5.188
 6026TIP3    H218022   6.318   0.967   5.154
 6027TIP3   OH218023   6.744   1.435   4.047
 6027TIP3    H118024   6.825   1.488   4.058
 6027TIP3    H218025   6.682   1.498   4.008
 6028TIP3   OH218026   6.457   1.594   5.129
 6028TIP3    H118027   6.423   1.593   5.038
 6028TIP3    H218028   6.377   1.572   5.181
 6029TIP3   OH218029   6.258   0.739   4.164
 6029TIP3    H118030   6.189   0.785   4.111
 6029TIP3    H218031   6.216   0.654   4.180
 6030TIP3   OH218032   7.307   1.367   3.370
 6030TIP3    H118033   7.317   1.464   3.356
 6030TIP3    H218034   7.400   1.337   3.358
 6031TIP3   OH218035   6.037   1.126   5.075
 6031TIP3    H118036   5.970   1.104   5.007
 6031TIP3    H218037   6.075   1.038   5.097
 6032TIP3   OH218038   5.892   1.318   4.705
 6032TIP3    H118039   5.988   1.312   4.699
 6032TIP3    H218040   5.881   1.396   4.762
 6033TIP3   OH218041   7.760   1.773   4.766
 6033TIP3    H118042   7.760   1.676   4.781
 6033TIP3    H218043   7.675   1.796   4.811
 6034TIP3   OH218044   6.860   1.557   4.897
 6034TIP3    H118045   6.857   1.649   4.932
 6034TIP3    H218046   6.790   1.514   4.951
 6035TIP3   OH218047   6.625   1.683   3.851
 6035TIP3    H118048   6.577   1.665   3.768
 6035TIP3    H218049   6.591   1.771   3.876
 6036TIP3   OH218050   6.061   1.532   4.235
 6036TIP3    H118051   6.108   1.523   4.322
 6036TIP3    H218052   6.008   1.450   4.235
 6037TIP3   OH218053   6.824   1.585   3.489
 6037TIP3    H118054   6.882   1.515   3.453
 6037TIP3    H218055   6.859   1.595   3.580
 6038TIP3   OH218056   6.876   1.634   3.758
 6038TIP3    H118057   6.787   1.643   3.801
 6038TIP3    H218058   6.927   1.596   3.831
 6039TIP3   OH218059   7.647   0.883   5.048
 6039TIP3    H118060   7.571   0.936   5.019
 6039TIP3    H218061   7.619   0.794   5.023
 6040TIP3   OH218062   6.242   1.309   5.062
 6040TIP3    H118063   6.292   1.292   5.144
 6040TIP3    H218064   6.168   1.245   5.069
 6041TIP3   OH218065   7.422   0.683   4.986
 6041TIP3    H118066   7.387   0.717   5.069
 6041TIP3    H218067   7.401   0.755   4.924
 6042TIP3   OH218068   7.077   0.795   3.516
 6042TIP3    H118069   7.039   0.777   3.428
 6042TIP3    H218070   7.155   0.848   3.491
 6043TIP3   OH218071   6.590   0.651   4.882
 6043TIP3    H118072   6.530   0.670   4.957
 6043TIP3    H218073   6.576   0.730   4.826
 6044TIP3   OH218074   6.455   0.535   4.387
 6044TIP3    H118075   6.361   0.512   4.399
 6044TIP3    H218076   6.471   0.503   4.295
 6045TIP3   OH218077   6.940   0.623   4.109
 6045TIP3    H118078   6.892   0.696   4.064
 6045TIP3    H218079   7.007   0.598   4.042
 6046TIP3   OH218080   7.125   0.918   5.176
 6046TIP3    H118081   7.107   0.838   5.231
 6046TIP3    H218082   7.219   0.935   5.200
 6047TIP3   OH218083   7.084   0.685   4.369
 6047TIP3    H118084   7.030   0.731   4.302
 6047TIP3    H218085   7.108   0.605   4.317
 6048TIP3   OH218086   6.392   0.680   5.076
 6048TIP3    H118087   6.414   0.743   5.147
 6048TIP3    H218088   6.375   0.598   5.125
 6049TIP3   OH218089   6.025   0.290   4.213
 6049TIP3    H118090   6.039   0.282   4.117
 6049TIP3    H218091   5.929   0.309   4.214
 6050TIP3   OH218092   7.100   0.897   4.766
 6050TIP3    H118093   7.145   0.827   4.713
 6050TIP3    H218094   7.082   0.845   4.847
 6051TIP3   OH218095   6.205   0.408   4.431
 6051TIP3    H118096   6.113   0.441   4.419
 6051TIP3    H218097   6.199   0.330   4.374
 6052TIP3   OH218098   6.499   0.430   4.139
 6052TIP3    H118099   6.589   0.417   4.104
 6052TIP3    H218100   6.443   0.422   4.060
 6053TIP3   OH218101   6.333   0.411   3.914
 6053TIP3    H118102   6.258   0.396   3.854
 6053TIP3    H218103   6.392   0.460   3.852
 6054TIP3   OH218104   7.448   2.121   4.865
 6054TIP3    H118105   7.446   2.142   4.770
 6054TIP3    H218106   7.528   2.168   4.894
 6055TIP3   OH218107   6.402   1.233   5.284
 6055TIP3    H118108   6.483   1.259   5.332
 6055TIP3    H218109   6.339   1.229   5.358
 6056TIP3   OH218110   6.854   0.685   4.540
 6056TIP3    H118111   6.938   0.657   4.502
 6056TIP3    H218112   6.861   0.652   4.633
 6057TIP3   OH218113   6.865   0.612   4.802
 6057TIP3    H118114   6.775   0.609   4.840
 6057TIP3    H218115   6.916   0.656   4.873
 6058TIP3   OH218116   6.579   0.970   3.922
 6058TIP3    H118117   6.506   0.906   3.911
 6058TIP3    H218118   6.560   1.004   4.014
 6059TIP3   OH218119   7.479   1.208   4.552
 6059TIP3    H118120   7.503   1.258   4.471
 6059TIP3    H218121   7.393   1.167   4.527
 6060TIP3   OH218122   7.017   0.352   3.743
 6060TIP3    H118123   6.956   0.302   3.801
 6060TIP3    H218124   7.052   0.417   3.808
 6061TIP3   OH218125   6.974   1.286   4.922
 6061TIP3    H118126   7.020   1.267   5.005
 6061TIP3    H218127   6.941   1.377   4.935
 6062TIP3   OH218128   7.116   0.546   3.906
 6062TIP3    H118129   7.214   0.558   3.914
 6062TIP3    H218130   7.090   0.623   3.852
 6063TIP3   OH218131   6.274   0.993   4.598
 6063TIP3    H118132   6.314   0.964   4.514
 6063TIP3    H218133   6.316   0.932   4.661
 6064TIP3   OH218134   6.726   1.120   3.747
 6064TIP3    H118135   6.677   1.206   3.752
 6064TIP3    H218136   6.671   1.065   3.807
 6065TIP3   OH218137   6.154   0.913   5.214
 6065TIP3    H118138   6.173   0.898   5.308
 6065TIP3    H218139   6.083   0.849   5.197
 6066TIP3   OH218140   6.880   1.032   5.237
 6066TIP3    H118141   6.820   0.976   5.185
 6066TIP3    H218142   6.968   1.004   5.204
 6067TIP3   OH218143   7.137   1.554   4.817
 6067TIP3    H118144   7.041   1.550   4.831
 6067TIP3    H218145   7.165   1.603   4.897
 6068TIP3   OH218146   7.550   0.617   3.713
 6068TIP3    H118147   7.489   0.568   3.653
 6068TIP3    H218148   7.537   0.708   3.678
 6069TIP3   OH218149   7.769   1.488   4.805
 6069TIP3    H118150   7.672   1.474   4.796
 6069TIP3    H218151   7.798   1.454   4.717
 6070TIP3   OH218152   7.249   1.441   3.636
 6070TIP3    H118153   7.223   1.372   3.698
 6070TIP3    H218154   7.260   1.393   3.552
 6071TIP3   OH218155   7.244   1.074   4.464
 6071TIP3    H118156   7.152   1.047   4.481
 6071TIP3    H218157   7.279   0.993   4.422
 6072TIP3   OH218158   6.374   1.297   4.224
 6072TIP3    H118159   6.372   1.379   4.170
 6072TIP3    H218160   6.280   1.281   4.238
 6073TIP3   OH218161   5.935   0.600   3.933
 6073TIP3    H118162   5.982   0.684   3.953
 6073TIP3    H218163   5.858   0.606   3.994
 6074TIP3   OH218164   6.508   1.062   4.166
 6074TIP3    H118165   6.474   1.151   4.186
 6074TIP3    H218166   6.473   1.011   4.242
 6075TIP3   OH218167   6.645   1.640   4.693
 6075TIP3    H118168   6.687   1.712   4.643
 6075TIP3    H218169   6.721   1.603   4.741
 6076TIP3   OH218170   6.292   1.536   4.076
 6076TIP3    H118171   6.206   1.544   4.123
 6076TIP3    H218172   6.324   1.629   4.080
 6077TIP3   OH218173   7.030   1.276   4.655
 6077TIP3    H118174   7.016   1.274   4.752
 6077TIP3    H218175   7.113   1.227   4.647
 6078TIP3   OH218176   7.006   1.168   3.536
 6078TIP3    H118177   7.060   1.143   3.615
 6078TIP3    H218178   6.918   1.142   3.565
 6079TIP3   OH218179   7.279   1.807   4.705
 6079TIP3    H118180   7.201   1.749   4.699
 6079TIP3    H218181   7.262   1.870   4.631
 6080TIP3   OH218182   7.344   1.644   3.354
 6080TIP3    H118183   7.377   1.719   3.303
 6080TIP3    H218184   7.263   1.685   3.391
 6081TIP3   OH218185   7.168   1.098   3.747
 6081TIP3    H118186   7.158   1.034   3.821
 6081TIP3    H218187   7.265   1.098   3.737
 6082TIP3   OH218188   6.082   1.502   4.851
 6082TIP3    H118189   6.135   1.429   4.887
 6082TIP3    H218190   6.108   1.574   4.910
 6083TIP3   OH218191   6.371   1.148   3.536
 6083TIP3    H118192   6.384   1.055   3.509
 6083TIP3    H218193   6.351   1.138   3.631
 6084TIP3   OH218194   6.315   1.153   3.807
 6084TIP3    H118195   6.387   1.126   3.866
 6084TIP3    H218196   6.319   1.251   3.816
 6085TIP3   OH218197   6.049   0.845   4.012
 6085TIP3    H118198   5.984   0.891   4.069
 6085TIP3    H218199   6.064   0.914   3.945
 6086TIP3   OH218200   6.583   1.350   3.755
 6086TIP3    H118201   6.496   1.375   3.792
 6086TIP3    H218202   6.599   1.426   3.697
 6087TIP3   OH218203   6.790   0.399   4.130
 6087TIP3    H118204   6.840   0.484   4.128
 6087TIP3    H218205   6.784   0.384   4.226
 6088TIP3   OH218206   7.053   0.735   4.980
 6088TIP3    H118207   7.053   0.803   5.050
 6088TIP3    H218208   7.103   0.665   5.024
 6089TIP3   OH218209   6.328   1.426   3.825
 6089TIP3    H118210   6.298   1.496   3.763
 6089TIP3    H218211   6.311   1.469   3.912
 6090TIP3   OH218212   7.333   0.827   4.346
 6090TIP3    H118213   7.253   0.778   4.371
 6090TIP3    H218214   7.403   0.780   4.398
 6091TIP3   OH218215   6.045   1.052   3.816
 6091TIP3    H118216   6.114   1.120   3.825
 6091TIP3    H218217   6.089   0.995   3.749
 6092TIP3   OH218218   5.992   0.328   3.933
 6092TIP3    H118219   5.981   0.425   3.932
 6092TIP3    H218220   5.901   0.297   3.922
 6093TIP3   OH218221   7.299   1.784   4.294
 6093TIP3    H118222   7.257   1.831   4.219
 6093TIP3    H218223   7.394   1.805   4.275
 6094TIP3   OH218224   5.912   1.269   4.201
 6094TIP3    H118225   5.848   1.299   4.267
 6094TIP3    H218226   5.879   1.313   4.119
 6095TIP3   OH218227   6.074   1.815   5.275
 6095TIP3    H118228   6.160   1.814   5.321
 6095TIP3    H218229   6.053   1.720   5.273
 6096TIP3   OH218230   6.554   1.773   5.319
 6096TIP3    H118231   6.647   1.749   5.325
 6096TIP3    H218232   6.525   1.713   5.247
 6097TIP3   OH218233   6.533   1.350   3.445
 6097TIP3    H118234   6.478   1.279   3.485
 6097TIP3    H218235   6.609   1.298   3.414
 6098TIP3   OH218236   7.188   1.684   5.055
 6098TIP3    H118237   7.182   1.612   5.122
 6098TIP3    H218238   7.269   1.731   5.083
 6099TIP3   OH218239   6.970   1.390   3.359
 6099TIP3    H118240   7.012   1.326   3.420
 6099TIP3    H218241   7.028   1.388   3.281
 6100TIP3   OH218242   6.202   1.221   5.476
 6100TIP3    H118243   6.220   1.125   5.481
 6100TIP3    H218244   6.115   1.221   5.430
 6101TIP3   OH218245   6.181   0.866   3.670
 6101TIP3    H118246   6.237   0.835   3.744
 6101TIP3    H218247   6.248   0.871   3.599
 6102TIP3   OH218248   6.807   1.305   5.250
 6102TIP3    H118249   6.771   1.321   5.161
 6102TIP3    H218250   6.842   1.213   5.243
 6103TIP3   OH218251   6.695   1.069   3.478
 6103TIP3    H118252   6.695   1.082   3.575
 6103TIP3    H218253   6.695   0.971   3.472
 6104TIP3   OH218254   7.297   1.317   4.851
 6104TIP3    H118255   7.379   1.357   4.816
 6104TIP3    H218256   7.233   1.390   4.837
 6105TIP3   OH218257   6.325   0.959   5.457
 6105TIP3    H118258   6.401   0.902   5.440
 6105TIP3    H218259   6.345   0.988   5.548
 6106TIP3   OH218260   6.384   0.775   3.890
 6106TIP3    H118261   6.361   0.737   3.976
 6106TIP3    H218262   6.421   0.698   3.842
 6107TIP3   OH218263   6.655   0.864   5.116
 6107TIP3    H118264   6.573   0.918   5.113
 6107TIP3    H218265   6.702   0.892   5.034
 6108TIP3   OH218266   6.487   0.566   3.738
 6108TIP3    H118267   6.460   0.571   3.644
 6108TIP3    H218268   6.585   0.571   3.728
 6109TIP3   OH218269   7.179   1.241   5.241
 6109TIP3    H118270   7.277   1.247   5.236
 6109TIP3    H218271   7.170   1.177   5.313
 6110TIP3   OH218272   7.309   0.894   3.395
 6110TIP3    H118273   7.288   0.852   3.309
 6110TIP3    H218274   7.277   0.985   3.375
 6111TIP3   OH218275   6.745   0.643   5.238
 6111TIP3    H118276   6.697   0.584   5.178
 6111TIP3    H218277   6.719   0.730   5.199
 6112TIP3   OH218278   6.818   0.952   4.919
 6112TIP3    H118279   6.901   0.961   4.871
 6112TIP3    H218280   6.761   1.018   4.874
 6113TIP3   OH218281   7.380   0.919   5.285
 6113TIP3    H118282   7.424   0.867   5.356
 6113TIP3    H218283   7.443   0.992   5.269
 6114TIP3   OH218284   7.428   1.133   5.013
 6114TIP3    H118285   7.367   1.201   4.977
 6114TIP3    H218286   7.514   1.178   4.996
 6115TIP3   OH218287   6.636   0.774   5.463
 6115TIP3    H118288   6.582   0.710   5.510
 6115TIP3    H218289   6.686   0.721   5.399
 6116TIP3   OH218290   7.025   0.690   5.276
 6116TIP3    H118291   7.047   0.667   5.368
 6116TIP3    H218292   6.928   0.684   5.279
 6117TIP3   OH218293   6.298   1.629   3.637
 6117TIP3    H118294   6.393   1.621   3.618
 6117TIP3    H218295   6.269   1.679   3.559
 6118TIP3   OH218296   5.776   1.011   3.850
 6118TIP3    H118297   5.871   1.032   3.838
 6118TIP3    H218298   5.770   0.922   3.809
 6119TIP3   OH218299   5.693   1.621   4.268
 6119TIP3    H118300   5.626   1.560   4.231
 6119TIP3    H218301   5.737   1.562   4.333
 6120TIP3   OH218302   5.827   1.468   4.454
 6120TIP3    H118303   5.814   1.398   4.520
 6120TIP3    H218304   5.879   1.532   4.507
 6121TIP3   OH218305   7.553   1.875   4.254
 6121TIP3    H118306   7.583   1.906   4.341
 6121TIP3    H218307   7.624   1.906   4.195
 6122TIP3   OH218308   7.582   1.894   4.537
 6122TIP3    H118309   7.537   1.807   4.533
 6122TIP3    H218310   7.660   1.869   4.590
 6123TIP3   OH218311   7.634   1.569   5.105
 6123TIP3    H118312   7.563   1.565   5.172
 6123TIP3    H218313   7.669   1.659   5.118
 6124TIP3   OH218314   7.447   1.083   3.723
 6124TIP3    H118315   7.514   1.149   3.695
 6124TIP3    H218316   7.489   1.048   3.805
 6125TIP3   OH218317   7.568   0.964   3.935
 6125TIP3    H118318   7.500   0.918   3.989
 6125TIP3    H218319   7.624   1.004   4.004
 6126TIP3   OH218320   7.628   1.344   4.362
 6126TIP3    H118321   7.678   1.282   4.307
 6126TIP3    H218322   7.622   1.422   4.304
 6127TIP3   OH218323   7.456   1.644   4.555
 6127TIP3    H118324   7.386   1.683   4.610
 6127TIP3    H218325   7.405   1.597   4.487
 6128TIP3   OH218326   7.503   0.855   3.580
 6128TIP3    H118327   7.434   0.866   3.510
 6128TIP3    H218328   7.482   0.934   3.634
 6129TIP3   OH218329   7.376   0.516   3.518
 6129TIP3    H118330   7.358   0.600   3.474
 6129TIP3    H218331   7.320   0.455   3.468
 6130TIP3   OH218332   7.386   0.820   4.075
 6130TIP3    H118333   7.389   0.725   4.054
 6130TIP3    H218334   7.372   0.821   4.172
 6131TIP3   OH218335   6.011   0.882   4.826
 6131TIP3    H118336   6.009   0.851   4.733
 6131TIP3    H218337   6.109   0.882   4.842
 6132TIP3   OH218338   7.668   1.226   4.923
 6132TIP3    H118339   7.747   1.168   4.926
 6132TIP3    H218340   7.705   1.311   4.895
 6133TIP3   OH218341   7.854   1.030   4.949
 6133TIP3    H118342   7.782   0.979   4.991
 6133TIP3    H218343   7.929   0.969   4.964
 6134TIP3   OH218344   7.388   0.569   3.945
 6134TIP3    H118345   7.416   0.490   3.996
 6134TIP3    H218346   7.454   0.572   3.873
 6135TIP3   OH218347   7.543   0.701   4.472
 6135TIP3    H118348   7.628   0.727   4.430
 6135TIP3    H218349   7.557   0.738   4.562
 6136TIP3   OH218350   7.606   0.846   4.701
 6136TIP3    H118351   7.528   0.879   4.750
 6136TIP3    H218352   7.637   0.927   4.655
 6137TIP3   OH218353   6.224   0.565   5.502
 6137TIP3    H118354   6.319   0.554   5.509
 6137TIP3    H218355   6.193   0.475   5.526
 6138TIP3   OH218356   5.989   0.533   4.902
 6138TIP3    H118357   6.037   0.534   4.816
 6138TIP3    H218358   6.020   0.614   4.942
 6139TIP3   OH218359   7.136   1.741   3.909
 6139TIP3    H118360   7.190   1.729   3.829
 6139TIP3    H218361   7.188   1.806   3.959
 6140TIP3   OH218362   6.237   1.548   5.294
 6140TIP3    H118363   6.145   1.520   5.278
 6140TIP3    H218364   6.249   1.523   5.386
 6141TIP3   OH218365   6.418   1.579   4.844
 6141TIP3    H118366   6.370   1.655   4.804
 6141TIP3    H218367   6.504   1.592   4.798
 6142TIP3   OH218368   6.860   1.823   4.983
 6142TIP3    H118369   6.903   1.821   5.071
 6142TIP3    H218370   6.926   1.872   4.930
 6143TIP3   OH218371   7.039   1.974   4.841
 6143TIP3    H118372   7.109   1.922   4.799
 6143TIP3    H218373   7.092   2.031   4.901
 6144TIP3   OH218374   6.093   1.835   4.866
 6144TIP3    H118375   6.002   1.866   4.844
 6144TIP3    H218376   6.104   1.875   4.953
 6145TIP3   OH218377   6.329   1.814   4.726
 6145TIP3    H118378   6.242   1.825   4.770
 6145TIP3    H218379   6.309   1.845   4.635
 6146TIP3   OH218380   6.755   1.840   4.523
 6146TIP3    H118381   6.684   1.859   4.458
 6146TIP3    H218382   6.766   1.928   4.565
 6147TIP3   OH218383   7.024   1.779   4.575
 6147TIP3    H118384   6.930   1.797   4.554
 6147TIP3    H218385   7.067   1.854   4.530
 6148TIP3   OH218386   7.229   1.971   4.488
 6148TIP3    H118387   7.215   2.055   4.439
 6148TIP3    H218388   7.256   1.910   4.415
 6149TIP3   OH218389   6.004   1.627   4.610
 6149TIP3    H118390   6.030   1.599   4.701
 6149TIP3    H218391   6.077   1.584   4.559
 6150TIP3   OH218392   6.200   1.500   4.470
 6150TIP3    H118393   6.214   1.415   4.519
 6150TIP3    H218394   6.291   1.535   4.467
 6151TIP3   OH218395   6.467   1.592   4.475
 6151TIP3    H118396   6.496   1.499   4.464
 6151TIP3    H218397   6.514   1.615   4.557
 6152TIP3   OH218398   5.792   1.402   3.999
 6152TIP3    H118399   5.706   1.369   3.967
 6152TIP3    H218400   5.782   1.496   3.978
 6153TIP3   OH218401   6.565   1.584   3.585
 6153TIP3    H118402   6.652   1.607   3.548
 6153TIP3    H218403   6.542   1.509   3.525
 6154TIP3   OH218404   7.285   1.707   3.678
 6154TIP3    H118405   7.276   1.610   3.667
 6154TIP3    H218406   7.238   1.739   3.598
 6155TIP3   OH218407   5.867   1.423   3.639
 6155TIP3    H118408   5.869   1.444   3.734
 6155TIP3    H218409   5.955   1.380   3.625
 6156TIP3   OH218410   7.510   1.851   4.863
 6156TIP3    H118411   7.432   1.818   4.815
 6156TIP3    H218412   7.488   1.946   4.870
 6157TIP3   OH218413   8.023   1.514   4.134
 6157TIP3    H118414   7.994   1.436   4.085
 6157TIP3    H218415   8.118   1.517   4.109
 6158TIP3   OH218416   7.751   0.758   3.918
 6158TIP3    H118417   7.680   0.824   3.907
 6158TIP3    H218418   7.720   0.687   3.861
 6159TIP3   OH218419   7.833   1.018   4.058
 6159TIP3    H118420   7.841   0.923   4.041
 6159TIP3    H218421   7.870   1.055   3.976
 6160TIP3   OH218422   7.648   1.249   3.620
 6160TIP3    H118423   7.604   1.278   3.538
 6160TIP3    H218424   7.673   1.337   3.659
 6161TIP3   OH218425   8.212   1.885   4.591
 6161TIP3    H118426   8.179   1.883   4.501
 6161TIP3    H218427   8.132   1.876   4.645
 6162TIP3   OH218428   7.840   1.387   4.559
 6162TIP3    H118429   7.766   1.358   4.502
 6162TIP3    H218430   7.873   1.302   4.597
 6163TIP3   OH218431   7.694   1.575   4.196
 6163TIP3    H118432   7.791   1.578   4.194
 6163TIP3    H218433   7.676   1.652   4.252
 6164TIP3   OH218434   7.827   1.782   3.716
 6164TIP3    H118435   7.912   1.793   3.762
 6164TIP3    H218436   7.785   1.716   3.772
 6165TIP3   OH218437   8.045   1.567   4.534
 6165TIP3    H118438   8.097   1.535   4.611
 6165TIP3    H218439   7.967   1.508   4.540
 6166TIP3   OH218440   7.814   0.537   3.686
 6166TIP3    H118441   7.828   0.555   3.592
 6166TIP3    H218442   7.719   0.557   3.696
 6167TIP3   OH218443   8.186   1.462   4.743
 6167TIP3    H118444   8.252   1.530   4.767
 6167TIP3    H218445   8.135   1.456   4.826
 6168TIP3   OH218446   7.936   1.175   4.699
 6168TIP3    H118447   7.981   1.176   4.786
 6168TIP3    H218448   7.872   1.103   4.711
 6169TIP3   OH218449   7.727   0.844   3.418
 6169TIP3    H118450   7.774   0.930   3.435
 6169TIP3    H218451   7.651   0.855   3.479
 6170TIP3   OH218452   7.875   1.758   4.341
 6170TIP3    H118453   7.933   1.691   4.381
 6170TIP3    H218454   7.905   1.840   4.384
 6171TIP3   OH218455   7.823   1.088   3.482
 6171TIP3    H118456   7.767   1.137   3.546
 6171TIP3    H218457   7.846   1.158   3.418
 6172TIP3   OH218458   7.832   1.295   3.285
 6172TIP3    H118459   7.899   1.359   3.317
 6172TIP3    H218460   7.862   1.279   3.193
 6173TIP3   OH218461   7.790   0.581   3.412
 6173TIP3    H118462   7.781   0.679   3.414
 6173TIP3    H218463   7.699   0.553   3.404
 6174TIP3   OH218464   7.691   1.507   3.690
 6174TIP3    H118465   7.636   1.554   3.754
 6174TIP3    H218466   7.685   1.565   3.612
 6175TIP3   OH218467   7.866   2.066   4.763
 6175TIP3    H118468   7.954   2.059   4.805
 6175TIP3    H218469   7.838   1.973   4.762
 6176TIP3   OH218470   8.000   1.480   4.960
 6176TIP3    H118471   8.008   1.385   4.979
 6176TIP3    H218472   7.911   1.483   4.920
 6177TIP3   OH218473   8.108   1.210   4.944
 6177TIP3    H118474   8.178   1.146   4.928
 6177TIP3    H218475   8.132   1.243   5.033
 6178TIP3   OH218476   7.563   1.264   3.337
 6178TIP3    H118477   7.659   1.281   3.324
 6178TIP3    H218478   7.555   1.174   3.300
 6179TIP3   OH218479   7.488   1.878   3.756
 6179TIP3    H118480   7.421   1.817   3.720
 6179TIP3    H218481   7.536   1.819   3.818
 6180TIP3   OH218482   7.627   1.721   3.937
 6180TIP3    H118483   7.615   1.654   4.007
 6180TIP3    H218484   7.678   1.788   3.987
 6181TIP3   OH218485   7.818   1.134   4.308
 6181TIP3    H118486   7.816   1.094   4.219
 6181TIP3    H218487   7.910   1.162   4.315
 6182TIP3   OH218488   8.023   0.818   4.983
 6182TIP3    H118489   8.118   0.808   4.998
 6182TIP3    H218490   7.988   0.740   5.030
 6183TIP3   OH218491   7.790   0.786   4.379
 6183TIP3    H118492   7.861   0.781   4.315
 6183TIP3    H218493   7.803   0.872   4.421
 6184TIP3   OH218494   8.037   1.798   4.791
 6184TIP3    H118495   7.948   1.769   4.764
 6184TIP3    H218496   8.038   1.769   4.884
 6185TIP3   OH218497   7.876   2.076   4.360
 6185TIP3    H118498   7.791   2.117   4.336
 6185TIP3    H218499   7.902   2.132   4.434
 6186TIP3   OH218500   8.132   2.061   4.230
 6186TIP3    H118501   8.039   2.071   4.257
 6186TIP3    H218502   8.128   2.095   4.138
 6187TIP3   OH218503   7.792   1.886   4.099
 6187TIP3    H118504   7.825   1.865   4.189
 6187TIP3    H218505   7.865   1.845   4.047
 6188TIP3   OH218506   7.978   1.750   3.958
 6188TIP3    H118507   7.990   1.662   3.998
 6188TIP3    H218508   8.069   1.769   3.928
 6189TIP3   OH218509   7.597   1.653   3.474
 6189TIP3    H118510   7.507   1.628   3.448
 6189TIP3    H218511   7.589   1.750   3.474
 6190TIP3   OH218512   7.663   1.688   3.143
 6190TIP3    H118513   7.629   1.723   3.226
 6190TIP3    H218514   7.733   1.628   3.173
 6191TIP3   OH218515   1.228   2.009   5.318
 6191TIP3    H118516   1.200   2.101   5.300
 6191TIP3    H218517   1.150   1.961   5.285
 6192TIP3   OH218518   1.230   2.009   5.703
 6192TIP3    H118519   1.263   1.990   5.793
 6192TIP3    H218520   1.186   1.926   5.680
 6193TIP3   OH218521   0.535   1.907   6.075
 6193TIP3    H118522   0.565   1.907   6.167
 6193TIP3    H218523   0.605   1.958   6.031
 6194TIP3   OH218524   1.473   2.313   5.387
 6194TIP3    H118525   1.458   2.250   5.458
 6194TIP3    H218526   1.502   2.392   5.435
 6195TIP3   OH218527   0.500   2.314   5.789
 6195TIP3    H118528   0.495   2.217   5.793
 6195TIP3    H218529   0.597   2.327   5.782
 6196TIP3   OH218530   0.259   1.817   5.758
 6196TIP3    H118531   0.318   1.750   5.799
 6196TIP3    H218532   0.311   1.848   5.684
 6197TIP3   OH218533   1.119   2.773   5.399
 6197TIP3    H118534   1.164   2.700   5.352
 6197TIP3    H218535   1.113   2.739   5.489
 6198TIP3   OH218536   1.025   2.233   5.753
 6198TIP3    H118537   1.068   2.162   5.703
 6198TIP3    H218538   1.106   2.282   5.780
 6199TIP3   OH218539   2.037   1.569   5.745
 6199TIP3    H118540   2.069   1.636   5.810
 6199TIP3    H218541   2.039   1.622   5.664
 6200TIP3   OH218542   1.438   1.737   5.781
 6200TIP3    H118543   1.478   1.651   5.802
 6200TIP3    H218544   1.405   1.721   5.691
 6201TIP3   OH218545   0.790   1.404   5.733
 6201TIP3    H118546   0.771   1.476   5.669
 6201TIP3    H218547   0.751   1.328   5.686
 6202TIP3   OH218548   1.480   1.489   5.373
 6202TIP3    H118549   1.553   1.469   5.435
 6202TIP3    H218550   1.529   1.527   5.297
 6203TIP3   OH218551   0.417   1.619   5.866
 6203TIP3    H118552   0.495   1.577   5.907
 6203TIP3    H218553   0.395   1.558   5.794
 6204TIP3   OH218554   0.852   1.799   5.651
 6204TIP3    H118555   0.946   1.776   5.662
 6204TIP3    H218556   0.816   1.717   5.611
 6205TIP3   OH218557   2.102   1.757   5.930
 6205TIP3    H118558   2.023   1.814   5.914
 6205TIP3    H218559   2.144   1.803   6.006
 6206TIP3   OH218560   0.791   1.374   6.167
 6206TIP3    H118561   0.734   1.418   6.100
 6206TIP3    H218562   0.729   1.368   6.242
 6207TIP3   OH218563   1.115   2.229   5.189
 6207TIP3    H118564   1.078   2.219   5.101
 6207TIP3    H218565   1.074   2.314   5.217
 6208TIP3   OH218566   0.880   2.154   5.978
 6208TIP3    H118567   0.820   2.225   6.012
 6208TIP3    H218568   0.927   2.202   5.906
 6209TIP3   OH218569   1.694   1.476   5.557
 6209TIP3    H118570   1.645   1.458   5.639
 6209TIP3    H218571   1.736   1.562   5.579
 6210TIP3   OH218572   0.660   1.495   5.955
 6210TIP3    H118573   0.707   1.575   5.989
 6210TIP3    H218574   0.719   1.471   5.881
 6211TIP3   OH218575   0.706   2.351   6.072
 6211TIP3    H118576   0.684   2.439   6.034
 6211TIP3    H218577   0.629   2.340   6.131
 6212TIP3   OH218578   0.116   2.036   5.311
 6212TIP3    H118579   0.063   2.059   5.233
 6212TIP3    H218580   0.137   2.124   5.348
 6213TIP3   OH218581   1.540   2.556   5.546
 6213TIP3    H118582   1.450   2.548   5.587
 6213TIP3    H218583   1.533   2.643   5.503
 6214TIP3   OH218584   1.834   1.445   5.903
 6214TIP3    H118585   1.749   1.488   5.884
 6214TIP3    H218586   1.894   1.489   5.839
 6215TIP3   OH218587   1.144   1.122   5.894
 6215TIP3    H118588   1.117   1.028   5.888
 6215TIP3    H218589   1.062   1.160   5.932
 6216TIP3   OH218590   1.241   2.600   5.222
 6216TIP3    H118591   1.292   2.519   5.200
 6216TIP3    H218592   1.301   2.667   5.183
 6217TIP3   OH218593   1.385   2.384   5.134
 6217TIP3    H118594   1.350   2.304   5.094
 6217TIP3    H218595   1.422   2.351   5.218
 6218TIP3   OH218596   1.765   2.468   5.894
 6218TIP3    H118597   1.755   2.391   5.834
 6218TIP3    H218598   1.747   2.544   5.834
 6219TIP3   OH218599   1.057   1.860   5.153
 6219TIP3    H118600   0.978   1.914   5.133
 6219TIP3    H218601   1.104   1.862   5.067
 6220TIP3   OH218602   1.017   1.648   4.867
 6220TIP3    H118603   1.084   1.701   4.915
 6220TIP3    H218604   1.076   1.586   4.818
 6221TIP3   OH218605   1.960   2.097   5.734
 6221TIP3    H118606   1.880   2.154   5.740
 6221TIP3    H218607   1.994   2.128   5.647
 6222TIP3   OH218608   1.406   1.944   5.122
 6222TIP3    H118609   1.351   1.970   5.200
 6222TIP3    H218610   1.491   1.923   5.166
 6223TIP3   OH218611   1.641   1.983   6.040
 6223TIP3    H118612   1.643   2.064   6.095
 6223TIP3    H218613   1.556   1.996   5.993
 6224TIP3   OH218614   0.637   1.941   5.542
 6224TIP3    H118615   0.599   1.884   5.472
 6224TIP3    H218616   0.715   1.890   5.570
 6225TIP3   OH218617   0.766   2.350   5.689
 6225TIP3    H118618   0.751   2.318   5.599
 6225TIP3    H218619   0.856   2.317   5.708
 6226TIP3   OH218620   0.776   1.915   5.894
 6226TIP3    H118621   0.809   1.894   5.804
 6226TIP3    H218622   0.819   2.002   5.912
 6227TIP3   OH218623   1.301   2.551   5.672
 6227TIP3    H118624   1.286   2.634   5.721
 6227TIP3    H218625   1.283   2.482   5.739
 6228TIP3   OH218626   0.914   2.469   6.218
 6228TIP3    H118627   0.855   2.532   6.265
 6228TIP3    H218628   0.847   2.417   6.168
 6229TIP3   OH218629   1.246   1.802   4.949
 6229TIP3    H118630   1.305   1.863   4.999
 6229TIP3    H218631   1.271   1.824   4.856
 6230TIP3   OH218632   0.992   2.480   5.224
 6230TIP3    H118633   1.074   2.532   5.236
 6230TIP3    H218634   0.932   2.545   5.186
 6231TIP3   OH218635   0.710   2.636   6.305
 6231TIP3    H118636   0.672   2.641   6.215
 6231TIP3    H218637   0.631   2.616   6.360
 6232TIP3   OH218638   1.764   1.043   5.001
 6232TIP3    H118639   1.680   1.062   5.047
 6232TIP3    H218640   1.776   1.123   4.945
 6233TIP3   OH218641   0.508   1.785   5.341
 6233TIP3    H118642   0.442   1.832   5.286
 6233TIP3    H218643   0.465   1.701   5.357
 6234TIP3   OH218644   1.562   2.409   4.548
 6234TIP3    H118645   1.570   2.506   4.532
 6234TIP3    H218646   1.655   2.381   4.535
 6235TIP3   OH218647   0.303   2.154   6.245
 6235TIP3    H118648   0.242   2.160   6.171
 6235TIP3    H218649   0.276   2.070   6.286
 6236TIP3   OH218650   0.148   2.385   5.868
 6236TIP3    H118651   0.235   2.344   5.855
 6236TIP3    H218652   0.169   2.447   5.940
 6237TIP3   OH218653   2.005   2.815   5.942
 6237TIP3    H118654   2.003   2.719   5.956
 6237TIP3    H218655   1.921   2.841   5.985
 6238TIP3   OH218656   1.110   2.598   6.074
 6238TIP3    H118657   1.108   2.691   6.107
 6238TIP3    H218658   1.040   2.558   6.130
 6239TIP3   OH218659   0.873   2.726   5.029
 6239TIP3    H118660   0.827   2.711   4.944
 6239TIP3    H218661   0.841   2.814   5.055
 6240TIP3   OH218662   0.309   2.577   5.412
 6240TIP3    H118663   0.358   2.570   5.497
 6240TIP3    H218664   0.256   2.496   5.415
 6241TIP3   OH218665   1.072   2.629   4.666
 6241TIP3    H118666   1.131   2.559   4.630
 6241TIP3    H218667   1.108   2.641   4.757
 6242TIP3   OH218668   1.124   2.679   4.935
 6242TIP3    H118669   1.036   2.688   4.978
 6242TIP3    H218670   1.178   2.646   5.008
 6243TIP3   OH218671   1.897   1.943   6.219
 6243TIP3    H118672   1.812   1.956   6.173
 6243TIP3    H218673   1.909   1.846   6.211
 6244TIP3   OH218674   0.494   2.352   6.245
 6244TIP3    H118675   0.549   2.330   6.324
 6244TIP3    H218676   0.425   2.283   6.251
 6245TIP3   OH218677   0.892   1.179   5.999
 6245TIP3    H118678   0.805   1.139   5.979
 6245TIP3    H218679   0.867   1.253   6.058
 6246TIP3   OH218680   1.460   1.292   6.207
 6246TIP3    H118681   1.524   1.265   6.275
 6246TIP3    H218682   1.374   1.277   6.251
 6247TIP3   OH218683   1.653   1.718   6.130
 6247TIP3    H118684   1.611   1.716   6.219
 6247TIP3    H218685   1.636   1.810   6.102
 6248TIP3   OH218686   1.322   1.843   4.693
 6248TIP3    H118687   1.288   1.823   4.604
 6248TIP3    H218688   1.404   1.891   4.671
 6249TIP3   OH218689   1.035   1.223   4.993
 6249TIP3    H118690   1.008   1.217   5.087
 6249TIP3    H218691   0.995   1.142   4.957
 6250TIP3   OH218692   0.818   1.701   6.052
 6250TIP3    H118693   0.807   1.750   6.135
 6250TIP3    H218694   0.804   1.773   5.987
 6251TIP3   OH218695   0.719   1.582   5.542
 6251TIP3    H118696   0.627   1.550   5.556
 6251TIP3    H218697   0.736   1.540   5.455
 6252TIP3   OH218698   1.196   1.662   5.284
 6252TIP3    H118699   1.144   1.734   5.243
 6252TIP3    H218700   1.251   1.632   5.209
 6253TIP3   OH218701   1.369   1.937   6.365
 6253TIP3    H118702   1.349   1.870   6.434
 6253TIP3    H218703   1.458   1.964   6.392
 6254TIP3   OH218704   1.350   1.689   5.525
 6254TIP3    H118705   1.291   1.724   5.455
 6254TIP3    H218706   1.383   1.609   5.479
 6255TIP3   OH218707   0.699   1.188   4.963
 6255TIP3    H118708   0.684   1.192   5.060
 6255TIP3    H218709   0.625   1.245   4.931
 6256TIP3   OH218710   1.355   1.934   5.945
 6256TIP3    H118711   1.393   1.864   5.887
 6256TIP3    H218712   1.332   1.881   6.024
 6257TIP3   OH218713   1.049   1.401   5.614
 6257TIP3    H118714   0.969   1.399   5.671
 6257TIP3    H218715   1.120   1.393   5.680
 6258TIP3   OH218716   0.494   1.435   5.585
 6258TIP3    H118717   0.398   1.439   5.604
 6258TIP3    H218718   0.518   1.347   5.619
 6259TIP3   OH218719   0.741   1.437   5.308
 6259TIP3    H118720   0.832   1.464   5.287
 6259TIP3    H218721   0.689   1.468   5.230
 6260TIP3   OH218722   1.521   1.473   5.808
 6260TIP3    H118723   1.498   1.486   5.903
 6260TIP3    H218724   1.448   1.414   5.781
 6261TIP3   OH218725   0.578   1.484   5.096
 6261TIP3    H118726   0.507   1.438   5.047
 6261TIP3    H218727   0.630   1.520   5.021
 6262TIP3   OH218728   1.697   3.160   6.042
 6262TIP3    H118729   1.697   3.190   5.950
 6262TIP3    H218730   1.775   3.208   6.078
 6263TIP3   OH218731   0.647   2.273   6.463
 6263TIP3    H118732   0.731   2.297   6.508
 6263TIP3    H218733   0.585   2.279   6.538
 6264TIP3   OH218734   1.116   1.728   5.715
 6264TIP3    H118735   1.190   1.691   5.664
 6264TIP3    H218736   1.127   1.684   5.802
 6265TIP3   OH218737   0.706   1.188   5.558
 6265TIP3    H118738   0.735   1.122   5.623
 6265TIP3    H218739   0.791   1.200   5.512
 6266TIP3   OH218740   1.095   1.629   6.001
 6266TIP3    H118741   1.008   1.669   6.016
 6266TIP3    H218742   1.156   1.687   6.052
 6267TIP3   OH218743   0.829   2.012   5.101
 6267TIP3    H118744   0.754   1.951   5.088
 6267TIP3    H218745   0.810   2.048   5.191
 6268TIP3   OH218746   1.730   2.250   5.727
 6268TIP3    H118747   1.756   2.302   5.648
 6268TIP3    H218748   1.644   2.212   5.701
 6269TIP3   OH218749   1.289   1.323   4.972
 6269TIP3    H118750   1.192   1.309   4.973
 6269TIP3    H218751   1.298   1.420   4.987
 6270TIP3   OH218752   1.221   2.328   6.103
 6270TIP3    H118753   1.259   2.318   6.192
 6270TIP3    H218754   1.188   2.419   6.105
 6271TIP3   OH218755   1.356   1.576   5.067
 6271TIP3    H118756   1.452   1.587   5.079
 6271TIP3    H218757   1.333   1.655   5.014
 6272TIP3   OH218758   0.524   2.035   5.777
 6272TIP3    H118759   0.559   2.015   5.688
 6272TIP3    H218760   0.566   1.967   5.830
 6273TIP3   OH218761   0.975   2.164   4.923
 6273TIP3    H118762   0.926   2.250   4.927
 6273TIP3    H218763   0.921   2.110   4.985
 6274TIP3   OH218764   0.496   1.895   6.427
 6274TIP3    H118765   0.475   1.973   6.480
 6274TIP3    H218766   0.406   1.874   6.395
 6275TIP3   OH218767   1.107   2.074   6.372
 6275TIP3    H118768   1.112   2.034   6.284
 6275TIP3    H218769   1.194   2.053   6.408
 6276TIP3   OH218770   1.386   2.584   5.999
 6276TIP3    H118771   1.289   2.591   6.010
 6276TIP3    H218772   1.416   2.640   6.074
 6277TIP3   OH218773   1.795   1.668   4.902
 6277TIP3    H118774   1.734   1.623   4.838
 6277TIP3    H218775   1.793   1.757   4.861
 6278TIP3   OH218776   2.014   2.523   5.983
 6278TIP3    H118777   1.916   2.517   5.973
 6278TIP3    H218778   2.041   2.495   5.893
 6279TIP3   OH218779   1.498   2.486   4.811
 6279TIP3    H118780   1.473   2.415   4.872
 6279TIP3    H218781   1.513   2.440   4.727
 6280TIP3   OH218782   1.494   2.116   5.644
 6280TIP3    H118783   1.400   2.091   5.659
 6280TIP3    H218784   1.527   2.035   5.599
 6281TIP3   OH218785   0.625   2.341   5.400
 6281TIP3    H118786   0.626   2.424   5.347
 6281TIP3    H218787   0.530   2.332   5.417
 6282TIP3   OH218788   0.170   1.649   5.123
 6282TIP3    H118789   0.238   1.720   5.123
 6282TIP3    H218790   0.107   1.689   5.185
 6283TIP3   OH218791   0.754   2.104   5.344
 6283TIP3    H118792   0.723   2.195   5.360
 6283TIP3    H218793   0.718   2.058   5.422
 6284TIP3   OH218794   0.893   2.684   5.869
 6284TIP3    H118795   0.933   2.758   5.820
 6284TIP3    H218796   0.970   2.652   5.919
 6285TIP3   OH218797   0.542   2.581   5.254
 6285TIP3    H118798   0.456   2.591   5.300
 6285TIP3    H218799   0.576   2.673   5.258
 6286TIP3   OH218800   1.275   2.318   5.834
 6286TIP3    H118801   1.265   2.317   5.932
 6286TIP3    H218802   1.362   2.276   5.824
 6287TIP3   OH218803   1.256   2.211   4.714
 6287TIP3    H118804   1.309   2.187   4.793
 6287TIP3    H218805   1.167   2.188   4.744
 6288TIP3   OH218806   1.528   2.849   5.877
 6288TIP3    H118807   1.445   2.798   5.868
 6288TIP3    H218808   1.515   2.917   5.806
 6289TIP3   OH218809   1.592   2.685   4.531
 6289TIP3    H118810   1.630   2.757   4.478
 6289TIP3    H218811   1.513   2.731   4.566
 6290TIP3   OH218812   1.416   2.144   4.929
 6290TIP3    H118813   1.408   2.078   5.000
 6290TIP3    H218814   1.513   2.143   4.915
 6291TIP3   OH218815   0.323   2.544   6.033
 6291TIP3    H118816   0.390   2.484   6.070
 6291TIP3    H218817   0.346   2.628   6.076
 6292TIP3   OH218818   0.620   2.192   4.712
 6292TIP3    H118819   0.634   2.099   4.686
 6292TIP3    H218820   0.601   2.183   4.808
 6293TIP3   OH218821   0.565   2.198   4.985
 6293TIP3    H118822   0.639   2.175   5.043
 6293TIP3    H218823   0.566   2.296   4.991
 6294TIP3   OH218824   0.303   1.885   5.183
 6294TIP3    H118825   0.240   1.934   5.240
 6294TIP3    H218826   0.319   1.955   5.116
 6295TIP3   OH218827   1.458   1.528   6.068
 6295TIP3    H118828   1.531   1.579   6.106
 6295TIP3    H218829   1.457   1.448   6.125
 6296TIP3   OH218830   1.336   1.278   5.246
 6296TIP3    H118831   1.318   1.299   5.152
 6296TIP3    H218832   1.373   1.363   5.280
 6297TIP3   OH218833   0.830   2.393   4.932
 6297TIP3    H118834   0.743   2.420   4.968
 6297TIP3    H218835   0.850   2.470   4.876
 6298TIP3   OH218836   1.020   1.461   5.346
 6298TIP3    H118837   1.083   1.534   5.327
 6298TIP3    H218838   1.029   1.453   5.443
 6299TIP3   OH218839   1.287   1.773   6.157
 6299TIP3    H118840   1.312   1.831   6.233
 6299TIP3    H218841   1.344   1.697   6.172
 6300TIP3   OH218842   1.172   1.187   5.450
 6300TIP3    H118843   1.159   1.263   5.510
 6300TIP3    H218844   1.235   1.224   5.385
 6301TIP3   OH218845   0.574   2.469   5.002
 6301TIP3    H118846   0.546   2.539   4.939
 6301TIP3    H218847   0.560   2.514   5.088
 6302TIP3   OH218848   0.708   1.156   5.235
 6302TIP3    H118849   0.687   1.245   5.269
 6302TIP3    H218850   0.806   1.161   5.244
 6303TIP3   OH218851   1.921   1.676   6.148
 6303TIP3    H118852   1.823   1.670   6.140
 6303TIP3    H218853   1.950   1.655   6.059
 6304TIP3   OH218854   1.579   1.869   5.522
 6304TIP3    H118855   1.501   1.813   5.540
 6304TIP3    H218856   1.649   1.823   5.574
 6305TIP3   OH218857   0.297   2.097   4.992
 6305TIP3    H118858   0.363   2.168   5.002
 6305TIP3    H218859   0.342   2.044   4.924
 6306TIP3   OH218860   0.281   1.403   5.041
 6306TIP3    H118861   0.272   1.489   5.085
 6306TIP3    H218862   0.214   1.352   5.090
 6307TIP3   OH218863   1.549   2.827   5.470
 6307TIP3    H118864   1.506   2.873   5.395
 6307TIP3    H218865   1.643   2.846   5.450
 6308TIP3   OH218866   0.160   2.313   5.378
 6308TIP3    H118867   0.096   2.347   5.442
 6308TIP3    H218868   0.131   2.358   5.296
 6309TIP3   OH218869   0.348   2.875   6.424
 6309TIP3    H118870   0.425   2.880   6.485
 6309TIP3    H218871   0.305   2.795   6.455
 6310TIP3   OH218872   0.798   2.819   6.499
 6310TIP3    H118873   0.894   2.806   6.506
 6310TIP3    H218874   0.777   2.758   6.425
 6311TIP3   OH218875   0.782   2.396   4.621
 6311TIP3    H118876   0.729   2.324   4.661
 6311TIP3    H218877   0.858   2.346   4.586
 6312TIP3   OH218878   1.443   2.724   6.228
 6312TIP3    H118879   1.435   2.656   6.298
 6312TIP3    H218880   1.517   2.779   6.259
 6313TIP3   OH218881   1.217   2.434   4.536
 6313TIP3    H118882   1.265   2.373   4.594
 6313TIP3    H218883   1.273   2.434   4.455
 6314TIP3   OH218884   0.447   2.259   6.658
 6314TIP3    H118885   0.477   2.189   6.718
 6314TIP3    H218886   0.352   2.246   6.655
 6315TIP3   OH218887   0.430   1.907   4.848
 6315TIP3    H118888   0.489   1.882   4.921
 6315TIP3    H218889   0.495   1.914   4.775
 6316TIP3   OH218890   1.061   2.354   6.427
 6316TIP3    H118891   1.018   2.373   6.342
 6316TIP3    H218892   1.084   2.259   6.418
 6317TIP3   OH218893   0.941   2.111   4.654
 6317TIP3    H118894   0.943   2.124   4.751
 6317TIP3    H218895   0.941   2.013   4.650
 6318TIP3   OH218896   1.549   2.358   6.030
 6318TIP3    H118897   1.626   2.401   5.987
 6318TIP3    H218898   1.481   2.428   6.019
 6319TIP3   OH218899   0.630   1.818   5.063
 6319TIP3    H118900   0.609   1.779   5.149
 6319TIP3    H218901   0.670   1.743   5.015
 6320TIP3   OH218902   0.848   1.891   6.288
 6320TIP3    H118903   0.875   1.963   6.348
 6320TIP3    H218904   0.913   1.908   6.217
 6321TIP3   OH218905   0.739   1.610   4.910
 6321TIP3    H118906   0.711   1.616   4.816
 6321TIP3    H218907   0.836   1.617   4.900
 6322TIP3   OH218908   1.415   2.278   6.429
 6322TIP3    H118909   1.503   2.259   6.395
 6322TIP3    H218910   1.412   2.220   6.508
 6323TIP3   OH218911   1.557   1.938   4.575
 6323TIP3    H118912   1.537   1.895   4.490
 6323TIP3    H218913   1.526   2.030   4.554
 6324TIP3   OH218914   1.047   1.659   6.421
 6324TIP3    H118915   1.054   1.579   6.364
 6324TIP3    H218916   1.008   1.723   6.360
 6325TIP3   OH218917   1.046   1.462   6.224
 6325TIP3    H118918   1.070   1.502   6.138
 6325TIP3    H218919   0.956   1.428   6.205
 6326TIP3   OH218920   1.044   1.976   6.113
 6326TIP3    H118921   1.130   1.987   6.071
 6326TIP3    H218922   0.993   2.048   6.070
 6327TIP3   OH218923   1.644   1.952   6.476
 6327TIP3    H118924   1.699   1.874   6.493
 6327TIP3    H218925   1.709   2.018   6.448
 6328TIP3   OH218926   1.681   2.207   6.211
 6328TIP3    H118927   1.622   2.264   6.157
 6328TIP3    H218928   1.769   2.233   6.173
 6329TIP3   OH218929   0.827   1.781   6.571
 6329TIP3    H118930   0.819   1.799   6.668
 6329TIP3    H218931   0.920   1.752   6.564
 6330TIP3   OH218932   1.201   1.242   6.275
 6330TIP3    H118933   1.154   1.326   6.256
 6330TIP3    H218934   1.124   1.182   6.285
 6331TIP3   OH218935   1.300   1.721   6.517
 6331TIP3    H118936   1.291   1.716   6.613
 6331TIP3    H218937   1.209   1.694   6.489
 6332TIP3   OH218938   1.527   1.663   6.362
 6332TIP3    H118939   1.454   1.676   6.427
 6332TIP3    H218940   1.602   1.640   6.421
 6333TIP3   OH218941   1.757   1.615   6.517
 6333TIP3    H118942   1.770   1.520   6.536
 6333TIP3    H218943   1.752   1.654   6.607
 6334TIP3   OH218944   1.241   1.206   6.544
 6334TIP3    H118945   1.322   1.151   6.546
 6334TIP3    H218946   1.234   1.223   6.448
 6335TIP3   OH218947   1.322   1.441   6.694
 6335TIP3    H118948   1.287   1.367   6.639
 6335TIP3    H218949   1.245   1.501   6.700
 6336TIP3   OH218950   0.545   2.668   4.812
 6336TIP3    H118951   0.641   2.664   4.795
 6336TIP3    H218952   0.517   2.722   4.736
 6337TIP3   OH218953   0.034   2.042   5.035
 6337TIP3    H118954   0.126   2.070   5.020
 6337TIP3    H218955   0.030   1.958   4.985
 6338TIP3   OH218956  -0.073   2.666   5.453
 6338TIP3    H118957  -0.120   2.602   5.398
 6338TIP3    H218958  -0.027   2.609   5.518
 6339TIP3   OH218959   0.069   2.516   5.635
 6339TIP3    H118960   0.076   2.449   5.706
 6339TIP3    H218961   0.122   2.586   5.677
 6340TIP3   OH218962   1.805   2.914   5.432
 6340TIP3    H118963   1.828   2.947   5.520
 6340TIP3    H218964   1.867   2.961   5.374
 6341TIP3   OH218965   1.831   2.938   5.713
 6341TIP3    H118966   1.788   2.850   5.710
 6341TIP3    H218967   1.907   2.918   5.770
 6342TIP3   OH218968   1.886   2.619   6.291
 6342TIP3    H118969   1.810   2.625   6.353
 6342TIP3    H218970   1.925   2.706   6.299
 6343TIP3   OH218971   1.695   2.127   4.904
 6343TIP3    H118972   1.760   2.193   4.873
 6343TIP3    H218973   1.742   2.089   4.982
 6344TIP3   OH218974   1.825   1.992   5.106
 6344TIP3    H118975   1.758   1.956   5.167
 6344TIP3    H218976   1.891   2.031   5.166
 6345TIP3   OH218977   1.878   2.388   5.540
 6345TIP3    H118978   1.932   2.324   5.490
 6345TIP3    H218979   1.874   2.464   5.478
 6346TIP3   OH218980   1.706   2.687   5.735
 6346TIP3    H118981   1.635   2.732   5.786
 6346TIP3    H218982   1.655   2.642   5.665
 6347TIP3   OH218983   1.759   1.901   4.756
 6347TIP3    H118984   1.688   1.905   4.688
 6347TIP3    H218985   1.734   1.980   4.809
 6348TIP3   OH218986   1.629   1.575   4.712
 6348TIP3    H118987   1.590   1.617   4.634
 6348TIP3    H218988   1.603   1.481   4.697
 6349TIP3   OH218989   1.634   1.855   5.254
 6349TIP3    H118990   1.641   1.758   5.248
 6349TIP3    H218991   1.619   1.870   5.350
 6350TIP3   OH218992   0.264   1.913   6.023
 6350TIP3    H118993   0.250   1.902   5.927
 6350TIP3    H218994   0.361   1.926   6.027
 6351TIP3   OH218995   1.925   2.278   6.111
 6351TIP3    H118996   1.997   2.212   6.102
 6351TIP3    H218997   1.954   2.349   6.051
 6352TIP3   OH218998   2.108   2.082   6.121
 6352TIP3    H118999   2.036   2.031   6.164
 6352TIP3    H219000   2.183   2.021   6.136
 6353TIP3   OH219001   1.574   1.309   4.696
 6353TIP3    H119002   1.645   1.273   4.753
 6353TIP3    H219003   1.498   1.250   4.713
 6354TIP3   OH219004   1.636   1.569   5.149
 6354TIP3    H119005   1.679   1.480   5.157
 6354TIP3    H219006   1.688   1.607   5.076
 6355TIP3   OH219007   1.789   1.734   5.644
 6355TIP3    H119008   1.873   1.765   5.602
 6355TIP3    H219009   1.801   1.775   5.732
 6356TIP3   OH219010   1.856   1.884   5.873
 6356TIP3    H119011   1.783   1.921   5.925
 6356TIP3    H219012   1.891   1.965   5.828
 6357TIP3   OH219013   2.291   1.442   6.426
 6357TIP3    H119014   2.369   1.396   6.388
 6357TIP3    H219015   2.306   1.534   6.400
 6358TIP3   OH219016   1.750   1.311   5.192
 6358TIP3    H119017   1.767   1.289   5.284
 6358TIP3    H219018   1.680   1.245   5.172
 6359TIP3   OH219019   2.182   1.627   6.238
 6359TIP3    H119020   2.090   1.658   6.252
 6359TIP3    H219021   2.164   1.542   6.194
 6360TIP3   OH219022   1.825   1.248   4.828
 6360TIP3    H119023   1.858   1.182   4.763
 6360TIP3    H219024   1.884   1.324   4.813
 6361TIP3   OH219025   1.385   2.783   5.087
 6361TIP3    H119026   1.440   2.774   5.006
 6361TIP3    H219027   1.432   2.852   5.136
 6362TIP3   OH219028   0.494   2.586   6.476
 6362TIP3    H119029   0.419   2.527   6.463
 6362TIP3    H219030   0.509   2.583   6.571
 6363TIP3   OH219031   0.666   2.620   6.015
 6363TIP3    H119032   0.618   2.698   5.979
 6363TIP3    H219033   0.752   2.635   5.972
 6364TIP3   OH219034   1.108   2.864   6.154
 6364TIP3    H119035   1.148   2.865   6.244
 6364TIP3    H219036   1.173   2.917   6.104
 6365TIP3   OH219037   1.289   3.018   6.018
 6365TIP3    H119038   1.362   2.969   5.979
 6365TIP3    H219039   1.338   3.077   6.080
 6366TIP3   OH219040   2.085   1.379   6.116
 6366TIP3    H119041   1.994   1.372   6.082
 6366TIP3    H219042   2.117   1.287   6.104
 6367TIP3   OH219043   0.338   2.870   6.048
 6367TIP3    H119044   0.247   2.902   6.026
 6367TIP3    H219045   0.355   2.920   6.129
 6368TIP3   OH219046   0.575   2.853   5.902
 6368TIP3    H119047   0.489   2.868   5.947
 6368TIP3    H219048   0.557   2.890   5.813
 6369TIP3   OH219049   1.003   2.883   5.699
 6369TIP3    H119050   0.933   2.904   5.634
 6369TIP3    H219051   1.016   2.971   5.741
 6370TIP3   OH219052   1.272   2.821   5.749
 6370TIP3    H119053   1.177   2.840   5.733
 6370TIP3    H219054   1.314   2.899   5.709
 6371TIP3   OH219055   1.480   3.016   5.665
 6371TIP3    H119056   1.463   3.101   5.620
 6371TIP3    H219057   1.504   2.958   5.590
 6372TIP3   OH219058   0.251   2.671   5.779
 6372TIP3    H119059   0.268   2.651   5.873
 6372TIP3    H219060   0.327   2.625   5.737
 6373TIP3   OH219061   0.449   2.541   5.643
 6373TIP3    H119062   0.465   2.459   5.695
 6373TIP3    H219063   0.539   2.581   5.643
 6374TIP3   OH219064   0.713   2.636   5.652
 6374TIP3    H119065   0.746   2.545   5.643
 6374TIP3    H219066   0.759   2.663   5.734
 6375TIP3   OH219067   1.295   1.300   5.735
 6375TIP3    H119068   1.249   1.235   5.792
 6375TIP3    H219069   1.364   1.246   5.693
 6376TIP3   OH219070   1.809   1.171   5.619
 6376TIP3    H119071   1.837   1.263   5.609
 6376TIP3    H219072   1.712   1.181   5.630
 6377TIP3   OH219073   0.951   1.081   5.618
 6377TIP3    H119074   1.034   1.095   5.571
 6377TIP3    H219075   0.981   1.035   5.697
 6378TIP3   OH219076   1.528   1.174   5.616
 6378TIP3    H119077   1.522   1.134   5.529
 6378TIP3    H219078   1.512   1.096   5.674
 6379TIP3   OH219079   1.556   1.109   5.179
 6379TIP3    H119080   1.470   1.153   5.193
 6379TIP3    H219081   1.540   1.025   5.225
 6380TIP3   OH219082   0.031   2.449   5.183
 6380TIP3    H119083  -0.039   2.403   5.136
 6380TIP3    H219084   0.024   2.539   5.143
 6381TIP3   OH219085   0.971   1.207   5.263
 6381TIP3    H119086   1.034   1.169   5.327
 6381TIP3    H219087   0.985   1.303   5.283
 6382TIP3   OH219088   0.814   2.629   4.763
 6382TIP3    H119089   0.901   2.653   4.726
 6382TIP3    H219090   0.792   2.554   4.702
 6383TIP3   OH219091   1.534   2.753   4.855
 6383TIP3    H119092   1.525   2.655   4.842
 6383TIP3    H219093   1.487   2.785   4.775
 6384TIP3   OH219094   0.115   2.462   4.820
 6384TIP3    H119095   0.121   2.506   4.906
 6384TIP3    H219096   0.205   2.424   4.808
 6385TIP3   OH219097   1.818   1.345   6.553
 6385TIP3    H119098   1.843   1.316   6.643
 6385TIP3    H219099   1.906   1.343   6.507
 6386TIP3   OH219100   1.758   2.893   6.041
 6386TIP3    H119101   1.679   2.863   5.993
 6386TIP3    H219102   1.740   2.989   6.047
 6387TIP3   OH219103   3.024   2.265   4.806
 6387TIP3    H119104   2.995   2.357   4.786
 6387TIP3    H219105   2.948   2.216   4.771
 6388TIP3   OH219106   3.023   2.269   5.193
 6388TIP3    H119107   3.058   2.243   5.280
 6388TIP3    H219108   2.983   2.187   5.161
 6389TIP3   OH219109   2.320   2.160   5.558
 6389TIP3    H119110   2.352   2.092   5.621
 6389TIP3    H219111   2.398   2.216   5.550
 6390TIP3   OH219112   3.268   2.567   4.874
 6390TIP3    H119113   3.256   2.502   4.944
 6390TIP3    H219114   3.301   2.645   4.922
 6391TIP3   OH219115   2.295   2.570   5.276
 6391TIP3    H119116   2.286   2.473   5.278
 6391TIP3    H219117   2.392   2.579   5.268
 6392TIP3   OH219118   1.995   1.763   5.067
 6392TIP3    H119119   1.956   1.850   5.085
 6392TIP3    H219120   1.924   1.724   5.012
 6393TIP3   OH219121   2.061   2.059   5.236
 6393TIP3    H119122   2.114   1.985   5.272
 6393TIP3    H219123   2.126   2.107   5.182
 6394TIP3   OH219124   2.918   3.029   4.890
 6394TIP3    H119125   2.959   2.959   4.834
 6394TIP3    H219126   2.914   2.985   4.976
 6395TIP3   OH219127   2.821   2.493   5.238
 6395TIP3    H119128   2.863   2.417   5.193
 6395TIP3    H219129   2.903   2.541   5.263
 6396TIP3   OH219130   3.837   1.813   5.235
 6396TIP3    H119131   3.866   1.896   5.278
 6396TIP3    H219132   3.860   1.832   5.142
 6397TIP3   OH219133   3.233   1.993   5.268
 6397TIP3    H119134   3.277   1.909   5.289
 6397TIP3    H219135   3.202   1.976   5.176
 6398TIP3   OH219136   2.569   1.646   5.234
 6398TIP3    H119137   2.554   1.721   5.172
 6398TIP3    H219138   2.521   1.574   5.189
 6399TIP3   OH219139   3.268   1.745   4.854
 6399TIP3    H119140   3.340   1.731   4.920
 6399TIP3    H219141   3.320   1.781   4.780
 6400TIP3   OH219142   2.205   1.849   5.344
 6400TIP3    H119143   2.287   1.830   5.395
 6400TIP3    H219144   2.225   1.800   5.262
 6401TIP3   OH219145   2.647   2.053   5.137
 6401TIP3    H119146   2.742   2.031   5.149
 6401TIP3    H219147   2.611   1.968   5.105
 6402TIP3   OH219148   3.910   2.021   5.405
 6402TIP3    H119149   3.826   2.068   5.388
 6402TIP3    H219150   3.931   2.054   5.494
 6403TIP3   OH219151   2.563   1.632   5.661
 6403TIP3    H119152   2.503   1.675   5.597
 6403TIP3    H219153   2.515   1.650   5.745
 6404TIP3   OH219154   2.905   2.482   4.679
 6404TIP3    H119155   2.875   2.474   4.588
 6404TIP3    H219156   2.865   2.568   4.705
 6405TIP3   OH219157   2.675   2.412   5.460
 6405TIP3    H119158   2.615   2.481   5.496
 6405TIP3    H219159   2.720   2.461   5.387
 6406TIP3   OH219160   3.474   1.751   5.032
 6406TIP3    H119161   3.462   1.706   5.117
 6406TIP3    H219162   3.527   1.829   5.057
 6407TIP3   OH219163   2.441   1.759   5.449
 6407TIP3    H119164   2.505   1.830   5.474
 6407TIP3    H219165   2.491   1.714   5.378
 6408TIP3   OH219166   2.506   2.609   5.560
 6408TIP3    H119167   2.481   2.696   5.523
 6408TIP3    H219168   2.427   2.592   5.615
 6409TIP3   OH219169   1.895   2.298   4.797
 6409TIP3    H119170   1.857   2.324   4.711
 6409TIP3    H219171   1.926   2.384   4.832
 6410TIP3   OH219172   3.335   2.815   5.038
 6410TIP3    H119173   3.245   2.807   5.074
 6410TIP3    H219174   3.330   2.900   4.990
 6411TIP3   OH219175   3.629   1.712   5.399
 6411TIP3    H119176   3.542   1.743   5.368
 6411TIP3    H219177   3.690   1.746   5.329
 6412TIP3   OH219178   2.922   1.358   5.377
 6412TIP3    H119179   2.931   1.268   5.413
 6412TIP3    H219180   2.843   1.390   5.425
 6413TIP3   OH219181   3.033   2.857   4.708
 6413TIP3    H119182   3.084   2.776   4.686
 6413TIP3    H219183   3.094   2.925   4.670
 6414TIP3   OH219184   3.175   2.641   4.623
 6414TIP3    H119185   3.156   2.560   4.574
 6414TIP3    H219186   3.213   2.606   4.707
 6415TIP3   OH219187   3.563   2.724   5.382
 6415TIP3    H119188   3.552   2.647   5.321
 6415TIP3    H219189   3.546   2.799   5.321
 6416TIP3   OH219190   2.854   2.118   4.639
 6416TIP3    H119191   2.775   2.173   4.618
 6416TIP3    H219192   2.901   2.118   4.554
 6417TIP3   OH219193   2.813   1.904   4.355
 6417TIP3    H119194   2.880   1.956   4.402
 6417TIP3    H219195   2.871   1.842   4.306
 6418TIP3   OH219196   3.757   2.363   5.228
 6418TIP3    H119197   3.674   2.415   5.231
 6418TIP3    H219198   3.789   2.387   5.138
 6419TIP3   OH219199   3.202   2.200   4.609
 6419TIP3    H119200   3.148   2.226   4.688
 6419TIP3    H219201   3.287   2.177   4.653
 6420TIP3   OH219202   3.437   2.239   5.526
 6420TIP3    H119203   3.435   2.323   5.575
 6420TIP3    H219204   3.351   2.245   5.478
 6421TIP3   OH219205   2.434   2.197   5.029
 6421TIP3    H119206   2.395   2.139   4.960
 6421TIP3    H219207   2.512   2.146   5.058
 6422TIP3   OH219208   2.562   2.608   5.175
 6422TIP3    H119209   2.546   2.576   5.085
 6422TIP3    H219210   2.653   2.574   5.192
 6423TIP3   OH219211   2.565   2.173   5.378
 6423TIP3    H119212   2.603   2.148   5.292
 6423TIP3    H219213   2.612   2.257   5.399
 6424TIP3   OH219214   3.093   2.810   5.158
 6424TIP3    H119215   3.082   2.889   5.214
 6424TIP3    H219216   3.080   2.736   5.221
 6425TIP3   OH219217   2.709   2.727   5.706
 6425TIP3    H119218   2.648   2.789   5.751
 6425TIP3    H219219   2.645   2.673   5.655
 6426TIP3   OH219220   3.041   2.059   4.437
 6426TIP3    H119221   3.100   2.119   4.488
 6426TIP3    H219222   3.067   2.081   4.345
 6427TIP3   OH219223   2.465   2.282   5.806
 6427TIP3    H119224   2.471   2.370   5.850
 6427TIP3    H219225   2.370   2.263   5.819
 6428TIP3   OH219226   2.786   2.738   4.715
 6428TIP3    H119227   2.870   2.787   4.721
 6428TIP3    H219228   2.728   2.801   4.670
 6429TIP3   OH219229   2.504   2.893   5.793
 6429TIP3    H119230   2.469   2.895   5.702
 6429TIP3    H219231   2.424   2.870   5.845
 6430TIP3   OH219232   3.558   1.299   4.485
 6430TIP3    H119233   3.477   1.321   4.536
 6430TIP3    H219234   3.572   1.382   4.435
 6431TIP3   OH219235   2.301   2.040   4.831
 6431TIP3    H119236   2.238   2.091   4.776
 6431TIP3    H219237   2.257   1.955   4.836
 6432TIP3   OH219238   3.360   2.669   4.034
 6432TIP3    H119239   3.367   2.766   4.021
 6432TIP3    H219240   3.453   2.641   4.022
 6433TIP3   OH219241   2.081   2.427   5.740
 6433TIP3    H119242   2.016   2.405   5.670
 6433TIP3    H219243   2.120   2.340   5.762
 6434TIP3   OH219244   1.937   2.617   5.374
 6434TIP3    H119245   2.033   2.616   5.364
 6434TIP3    H219246   1.924   2.698   5.426
 6435TIP3   OH219247   3.801   3.073   5.431
 6435TIP3    H119248   3.799   2.976   5.441
 6435TIP3    H219249   3.716   3.097   5.474
 6436TIP3   OH219250   2.907   2.855   5.563
 6436TIP3    H119251   2.903   2.948   5.595
 6436TIP3    H219252   2.835   2.815   5.617
 6437TIP3   OH219253   2.666   2.982   4.516
 6437TIP3    H119254   2.626   2.962   4.430
 6437TIP3    H219255   2.635   3.072   4.535
 6438TIP3   OH219256   2.105   2.834   4.900
 6438TIP3    H119257   2.153   2.824   4.985
 6438TIP3    H219258   2.051   2.754   4.900
 6439TIP3   OH219259   2.868   2.885   4.153
 6439TIP3    H119260   2.926   2.816   4.116
 6439TIP3    H219261   2.906   2.897   4.242
 6440TIP3   OH219262   2.920   2.938   4.422
 6440TIP3    H119263   2.833   2.944   4.468
 6440TIP3    H219264   2.976   2.901   4.491
 6441TIP3   OH219265   3.689   2.201   5.703
 6441TIP3    H119266   3.608   2.211   5.651
 6441TIP3    H219267   3.706   2.105   5.694
 6442TIP3   OH219268   2.287   2.609   5.722
 6442TIP3    H119269   2.336   2.595   5.806
 6442TIP3    H219270   2.212   2.546   5.732
 6443TIP3   OH219271   2.683   1.429   5.501
 6443TIP3    H119272   2.593   1.412   5.470
 6443TIP3    H219273   2.667   1.505   5.561
 6444TIP3   OH219274   3.224   1.548   5.709
 6444TIP3    H119275   3.291   1.517   5.772
 6444TIP3    H219276   3.139   1.524   5.753
 6445TIP3   OH219277   3.456   1.975   5.623
 6445TIP3    H119278   3.407   1.974   5.709
 6445TIP3    H219279   3.434   2.064   5.588
 6446TIP3   OH219280   3.121   2.100   4.183
 6446TIP3    H119281   3.085   2.078   4.095
 6446TIP3    H219282   3.200   2.151   4.159
 6447TIP3   OH219283   2.830   1.480   4.484
 6447TIP3    H119284   2.797   1.477   4.576
 6447TIP3    H219285   2.792   1.397   4.450
 6448TIP3   OH219286   2.618   1.952   5.529
 6448TIP3    H119287   2.570   1.972   5.612
 6448TIP3    H219288   2.600   2.033   5.477
 6449TIP3   OH219289   2.503   1.831   5.046
 6449TIP3    H119290   2.408   1.813   5.061
 6449TIP3    H219291   2.515   1.795   4.956
 6450TIP3   OH219292   2.989   1.917   4.772
 6450TIP3    H119293   2.939   1.990   4.729
 6450TIP3    H219294   3.047   1.887   4.698
 6451TIP3   OH219295   3.167   2.195   5.858
 6451TIP3    H119296   3.144   2.122   5.920
 6451TIP3    H219297   3.261   2.208   5.879
 6452TIP3   OH219298   3.147   1.945   5.010
 6452TIP3    H119299   3.087   1.976   4.940
 6452TIP3    H219300   3.182   1.866   4.965
 6453TIP3   OH219301   2.436   1.977   5.741
 6453TIP3    H119302   2.472   2.039   5.806
 6453TIP3    H219303   2.431   1.894   5.793
 6454TIP3   OH219304   2.486   1.452   4.450
 6454TIP3    H119305   2.476   1.454   4.547
 6454TIP3    H219306   2.410   1.508   4.422
 6455TIP3   OH219307   2.003   1.475   4.856
 6455TIP3    H119308   2.045   1.509   4.774
 6455TIP3    H219309   1.939   1.548   4.870
 6456TIP3   OH219310   3.156   2.192   5.432
 6456TIP3    H119311   3.190   2.121   5.373
 6456TIP3    H219312   3.128   2.139   5.509
 6457TIP3   OH219313   2.830   1.658   5.105
 6457TIP3    H119314   2.755   1.655   5.168
 6457TIP3    H219315   2.907   1.645   5.164
 6458TIP3   OH219316   2.259   1.710   5.109
 6458TIP3    H119317   2.164   1.722   5.086
 6458TIP3    H219318   2.278   1.621   5.077
 6459TIP3   OH219319   2.528   1.702   4.805
 6459TIP3    H119320   2.623   1.721   4.788
 6459TIP3    H219321   2.484   1.730   4.721
 6460TIP3   OH219322   3.324   1.734   5.310
 6460TIP3    H119323   3.290   1.745   5.401
 6460TIP3    H219324   3.261   1.670   5.274
 6461TIP3   OH219325   2.378   1.738   4.578
 6461TIP3    H119326   2.311   1.695   4.522
 6461TIP3    H219327   2.432   1.781   4.508
 6462TIP3   OH219328   3.493   3.421   5.528
 6462TIP3    H119329   3.491   3.441   5.432
 6462TIP3    H219330   3.575   3.468   5.555
 6463TIP3   OH219331   2.451   2.531   5.944
 6463TIP3    H119332   2.530   2.560   5.994
 6463TIP3    H219333   2.385   2.529   6.016
 6464TIP3   OH219334   2.912   1.985   5.201
 6464TIP3    H119335   2.986   1.947   5.152
 6464TIP3    H219336   2.920   1.941   5.288
 6465TIP3   OH219337   2.435   1.452   5.075
 6465TIP3    H119338   2.469   1.362   5.087
 6465TIP3    H219339   2.482   1.478   4.995
 6466TIP3   OH219340   2.887   1.883   5.492
 6466TIP3    H119341   2.798   1.921   5.508
 6466TIP3    H219342   2.946   1.942   5.543
 6467TIP3   OH219343   2.624   2.271   4.587
 6467TIP3    H119344   2.550   2.207   4.574
 6467TIP3    H219345   2.605   2.305   4.677
 6468TIP3   OH219346   3.522   2.506   5.218
 6468TIP3    H119347   3.551   2.556   5.138
 6468TIP3    H219348   3.437   2.466   5.189
 6469TIP3   OH219349   3.083   1.582   4.454
 6469TIP3    H119350   2.986   1.566   4.461
 6469TIP3    H219351   3.092   1.677   4.476
 6470TIP3   OH219352   3.019   2.587   5.586
 6470TIP3    H119353   3.054   2.574   5.675
 6470TIP3    H219354   2.985   2.678   5.590
 6471TIP3   OH219355   3.151   1.831   4.554
 6471TIP3    H119356   3.248   1.839   4.569
 6471TIP3    H219357   3.131   1.912   4.503
 6472TIP3   OH219358   2.312   2.286   5.263
 6472TIP3    H119359   2.354   2.264   5.177
 6472TIP3    H219360   2.369   2.236   5.324
 6473TIP3   OH219361   2.773   2.421   4.413
 6473TIP3    H119362   2.724   2.507   4.416
 6473TIP3    H219363   2.718   2.366   4.473
 6474TIP3   OH219364   2.199   2.216   5.877
 6474TIP3    H119365   2.224   2.205   5.971
 6474TIP3    H219366   2.133   2.145   5.867
 6475TIP3   OH219367   2.926   2.330   5.896
 6475TIP3    H119368   2.866   2.271   5.848
 6475TIP3    H219369   3.014   2.295   5.869
 6476TIP3   OH219370   3.183   2.847   5.485
 6476TIP3    H119371   3.086   2.849   5.495
 6476TIP3    H219372   3.211   2.902   5.561
 6477TIP3   OH219373   3.593   1.924   4.389
 6477TIP3    H119374   3.531   1.879   4.326
 6477TIP3    H219375   3.588   2.014   4.349
 6478TIP3   OH219376   3.813   2.782   5.470
 6478TIP3    H119377   3.716   2.775   5.460
 6478TIP3    H219378   3.840   2.752   5.380
 6479TIP3   OH219379   3.281   2.740   4.293
 6479TIP3    H119380   3.275   2.666   4.354
 6479TIP3    H219381   3.307   2.699   4.209
 6480TIP3   OH219382   3.289   2.371   5.132
 6480TIP3    H119383   3.195   2.346   5.145
 6480TIP3    H219384   3.323   2.291   5.088
 6481TIP3   OH219385   2.421   2.600   4.892
 6481TIP3    H119386   2.423   2.680   4.836
 6481TIP3    H219387   2.327   2.584   4.897
 6482TIP3   OH219388   1.987   1.900   4.596
 6482TIP3    H119389   2.031   1.986   4.613
 6482TIP3    H219390   1.908   1.907   4.654
 6483TIP3   OH219391   2.549   2.361   4.831
 6483TIP3    H119392   2.520   2.452   4.849
 6483TIP3    H219393   2.515   2.314   4.909
 6484TIP3   OH219394   2.689   2.941   5.356
 6484TIP3    H119395   2.730   3.014   5.305
 6484TIP3    H219396   2.766   2.905   5.403
 6485TIP3   OH219397   2.338   2.838   4.741
 6485TIP3    H119398   2.252   2.847   4.787
 6485TIP3    H219399   2.370   2.931   4.744
 6486TIP3   OH219400   3.074   2.578   5.317
 6486TIP3    H119401   3.064   2.574   5.415
 6486TIP3    H219402   3.154   2.526   5.303
 6487TIP3   OH219403   3.053   2.466   4.201
 6487TIP3    H119404   3.105   2.444   4.281
 6487TIP3    H219405   2.964   2.442   4.230
 6488TIP3   OH219406   3.322   3.111   5.367
 6488TIP3    H119407   3.243   3.056   5.357
 6488TIP3    H219408   3.310   3.175   5.294
 6489TIP3   OH219409   3.386   2.942   4.011
 6489TIP3    H119410   3.448   3.016   3.997
 6489TIP3    H219411   3.307   2.992   4.038
 6490TIP3   OH219412   2.415   1.717   5.884
 6490TIP3    H119413   2.322   1.724   5.910
 6490TIP3    H219414   2.452   1.666   5.958
 6491TIP3   OH219415   3.213   2.405   4.420
 6491TIP3    H119416   3.203   2.335   4.488
 6491TIP3    H219417   3.309   2.400   4.404
 6492TIP3   OH219418   2.127   2.804   5.515
 6492TIP3    H119419   2.182   2.733   5.551
 6492TIP3    H219420   2.151   2.878   5.572
 6493TIP3   OH219421   2.415   2.451   4.201
 6493TIP3    H119422   2.425   2.360   4.168
 6493TIP3    H219423   2.395   2.436   4.295
 6494TIP3   OH219424   2.358   2.454   4.476
 6494TIP3    H119425   2.438   2.430   4.526
 6494TIP3    H219426   2.362   2.552   4.479
 6495TIP3   OH219427   2.095   2.146   4.676
 6495TIP3    H119428   2.029   2.194   4.731
 6495TIP3    H219429   2.111   2.214   4.607
 6496TIP3   OH219430   3.246   1.784   5.568
 6496TIP3    H119431   3.328   1.822   5.605
 6496TIP3    H219432   3.235   1.703   5.623
 6497TIP3   OH219433   3.128   1.533   4.734
 6497TIP3    H119434   3.116   1.556   4.640
 6497TIP3    H219435   3.169   1.615   4.770
 6498TIP3   OH219436   2.627   2.649   4.421
 6498TIP3    H119437   2.540   2.678   4.455
 6498TIP3    H219438   2.645   2.719   4.357
 6499TIP3   OH219439   2.808   1.718   4.835
 6499TIP3    H119440   2.874   1.787   4.815
 6499TIP3    H219441   2.820   1.708   4.932
 6500TIP3   OH219442   3.085   2.030   5.640
 6500TIP3    H119443   3.110   2.081   5.719
 6500TIP3    H219444   3.140   1.950   5.650
 6501TIP3   OH219445   2.959   1.435   4.932
 6501TIP3    H119446   2.966   1.505   5.000
 6501TIP3    H219447   3.020   1.471   4.864
 6502TIP3   OH219448   2.371   2.726   4.488
 6502TIP3    H119449   2.343   2.797   4.425
 6502TIP3    H219450   2.356   2.771   4.574
 6503TIP3   OH219451   2.470   1.441   4.728
 6503TIP3    H119452   2.472   1.535   4.755
 6503TIP3    H219453   2.566   1.421   4.733
 6504TIP3   OH219454   3.723   1.934   5.624
 6504TIP3    H119455   3.625   1.932   5.629
 6504TIP3    H219456   3.737   1.891   5.539
 6505TIP3   OH219457   3.376   2.127   5.011
 6505TIP3    H119458   3.300   2.067   5.024
 6505TIP3    H219459   3.447   2.080   5.059
 6506TIP3   OH219460   2.090   2.353   4.481
 6506TIP3    H119461   2.160   2.420   4.489
 6506TIP3    H219462   2.132   2.296   4.413
 6507TIP3   OH219463   2.023   1.626   4.626
 6507TIP3    H119464   2.034   1.723   4.620
 6507TIP3    H219465   1.955   1.611   4.559
 6508TIP3   OH219466   3.346   3.088   4.959
 6508TIP3    H119467   3.303   3.136   4.885
 6508TIP3    H219468   3.440   3.107   4.938
 6509TIP3   OH219469   1.956   2.567   4.865
 6509TIP3    H119470   1.891   2.601   4.928
 6509TIP3    H219471   1.926   2.612   4.782
 6510TIP3   OH219472   2.119   3.122   5.933
 6510TIP3    H119473   2.203   3.126   5.985
 6510TIP3    H219474   2.101   3.026   5.937
 6511TIP3   OH219475   2.601   3.075   5.983
 6511TIP3    H119476   2.695   3.052   5.986
 6511TIP3    H219477   2.570   3.015   5.912
 6512TIP3   OH219478   2.580   2.653   4.111
 6512TIP3    H119479   2.527   2.579   4.148
 6512TIP3    H219480   2.655   2.604   4.071
 6513TIP3   OH219481   3.233   2.986   5.719
 6513TIP3    H119482   3.229   2.914   5.786
 6513TIP3    H219483   3.313   3.036   5.747
 6514TIP3   OH219484   3.015   2.691   4.022
 6514TIP3    H119485   3.063   2.635   4.085
 6514TIP3    H219486   3.074   2.693   3.945
 6515TIP3   OH219487   2.248   2.513   6.131
 6515TIP3    H119488   2.268   2.418   6.131
 6515TIP3    H219489   2.160   2.516   6.088
 6516TIP3   OH219490   2.223   2.166   4.335
 6516TIP3    H119491   2.285   2.139   4.405
 6516TIP3    H219492   2.285   2.169   4.259
 6517TIP3   OH219493   2.852   2.606   5.913
 6517TIP3    H119494   2.813   2.626   5.826
 6517TIP3    H219495   2.885   2.514   5.902
 6518TIP3   OH219496   2.738   2.367   4.144
 6518TIP3    H119497   2.740   2.380   4.241
 6518TIP3    H219498   2.736   2.269   4.138
 6519TIP3   OH219499   3.347   2.618   5.521
 6519TIP3    H119500   3.423   2.658   5.475
 6519TIP3    H219501   3.279   2.686   5.504
 6520TIP3   OH219502   2.367   2.256   6.121
 6520TIP3    H119503   2.431   2.185   6.110
 6520TIP3    H219504   2.388   2.283   6.212
 6521TIP3   OH219505   2.428   2.075   4.551
 6521TIP3    H119506   2.407   2.032   4.635
 6521TIP3    H219507   2.468   2.002   4.499
 6522TIP3   OH219508   2.699   2.134   5.779
 6522TIP3    H119509   2.624   2.197   5.784
 6522TIP3    H219510   2.750   2.169   5.704
 6523TIP3   OH219511   2.536   1.868   4.397
 6523TIP3    H119512   2.509   1.873   4.303
 6523TIP3    H219513   2.633   1.874   4.388
 6524TIP3   OH219514   3.219   2.540   5.915
 6524TIP3    H119515   3.296   2.511   5.865
 6524TIP3    H219516   3.215   2.473   5.987
 6525TIP3   OH219517   3.355   2.197   4.060
 6525TIP3    H119518   3.332   2.153   3.976
 6525TIP3    H219519   3.324   2.288   4.040
 6526TIP3   OH219520   2.826   1.925   5.906
 6526TIP3    H119521   2.825   1.846   5.848
 6526TIP3    H219522   2.782   1.992   5.849
 6527TIP3   OH219523   2.822   1.716   5.717
 6527TIP3    H119524   2.851   1.755   5.632
 6527TIP3    H219525   2.730   1.687   5.696
 6528TIP3   OH219526   2.852   2.248   5.590
 6528TIP3    H119527   2.938   2.259   5.547
 6528TIP3    H219528   2.797   2.314   5.544
 6529TIP3   OH219529   3.437   2.214   5.969
 6529TIP3    H119530   3.482   2.129   5.976
 6529TIP3    H219531   3.506   2.271   5.932
 6530TIP3   OH219532   3.475   2.470   5.706
 6530TIP3    H119533   3.419   2.525   5.647
 6530TIP3    H219534   3.564   2.489   5.667
 6531TIP3   OH219535   2.715   2.035   6.140
 6531TIP3    H119536   2.634   1.984   6.158
 6531TIP3    H219537   2.740   2.002   6.052
 6532TIP3   OH219538   2.967   1.486   5.789
 6532TIP3    H119539   2.915   1.566   5.766
 6532TIP3    H219540   2.896   1.418   5.783
 6533TIP3   OH219541   3.084   1.979   6.001
 6533TIP3    H119542   3.068   1.966   6.097
 6533TIP3    H219543   2.995   1.955   5.967
 6534TIP3   OH219544   3.325   1.933   5.856
 6534TIP3    H119545   3.249   1.931   5.918
 6534TIP3    H219546   3.399   1.901   5.912
 6535TIP3   OH219547   3.551   1.872   6.006
 6535TIP3    H119548   3.566   1.776   6.021
 6535TIP3    H219549   3.550   1.908   6.098
 6536TIP3   OH219550   2.534   1.820   6.173
 6536TIP3    H119551   2.545   1.727   6.148
 6536TIP3    H219552   2.581   1.818   6.260
 6537TIP3   OH219553   3.044   1.482   6.051
 6537TIP3    H119554   3.115   1.416   6.043
 6537TIP3    H219555   3.011   1.483   5.958
 6538TIP3   OH219556   3.119   1.698   6.205
 6538TIP3    H119557   3.096   1.629   6.139
 6538TIP3    H219558   3.043   1.760   6.197
 6539TIP3   OH219559   2.343   2.929   4.301
 6539TIP3    H119560   2.438   2.922   4.283
 6539TIP3    H219561   2.315   2.980   4.223
 6540TIP3   OH219562   1.821   2.310   4.517
 6540TIP3    H119563   1.916   2.333   4.502
 6540TIP3    H219564   1.816   2.222   4.474
 6541TIP3   OH219565   1.738   2.924   4.931
 6541TIP3    H119566   1.671   2.863   4.893
 6541TIP3    H219567   1.781   2.864   4.996
 6542TIP3   OH219568   1.872   2.770   5.117
 6542TIP3    H119569   1.858   2.701   5.183
 6542TIP3    H219570   1.924   2.834   5.170
 6543TIP3   OH219571   3.601   3.174   4.912
 6543TIP3    H119572   3.641   3.212   4.992
 6543TIP3    H219573   3.671   3.190   4.846
 6544TIP3   OH219574   3.626   3.198   5.207
 6544TIP3    H119575   3.583   3.111   5.193
 6544TIP3    H219576   3.708   3.169   5.251
 6545TIP3   OH219577   3.675   2.871   5.774
 6545TIP3    H119578   3.602   2.881   5.839
 6545TIP3    H219579   3.716   2.960   5.777
 6546TIP3   OH219580   3.490   2.382   4.391
 6546TIP3    H119581   3.555   2.449   4.361
 6546TIP3    H219582   3.536   2.346   4.469
 6547TIP3   OH219583   3.619   2.249   4.594
 6547TIP3    H119584   3.553   2.210   4.655
 6547TIP3    H219585   3.685   2.288   4.656
 6548TIP3   OH219586   3.673   2.637   5.034
 6548TIP3    H119587   3.725   2.575   4.980
 6548TIP3    H219588   3.681   2.720   4.980
 6549TIP3   OH219589   3.502   2.943   5.224
 6549TIP3    H119590   3.429   2.987   5.271
 6549TIP3    H219591   3.456   2.897   5.151
 6550TIP3   OH219592   3.556   2.159   4.242
 6550TIP3    H119593   3.484   2.163   4.174
 6550TIP3    H219594   3.530   2.236   4.297
 6551TIP3   OH219595   3.429   1.830   4.194
 6551TIP3    H119596   3.380   1.872   4.122
 6551TIP3    H219597   3.404   1.736   4.181
 6552TIP3   OH219598   3.430   2.110   4.741
 6552TIP3    H119599   3.440   2.014   4.736
 6552TIP3    H219600   3.417   2.125   4.838
 6553TIP3   OH219601   2.058   2.180   5.489
 6553TIP3    H119602   2.057   2.150   5.396
 6553TIP3    H219603   2.155   2.182   5.506
 6554TIP3   OH219604   3.721   2.533   5.600
 6554TIP3    H119605   3.793   2.467   5.589
 6554TIP3    H219606   3.745   2.601   5.535
 6555TIP3   OH219607   3.905   2.336   5.611
 6555TIP3    H119608   3.830   2.286   5.651
 6555TIP3    H219609   3.978   2.273   5.626
 6556TIP3   OH219610   3.372   1.563   4.176
 6556TIP3    H119611   3.445   1.535   4.235
 6556TIP3    H219612   3.297   1.507   4.203
 6557TIP3   OH219613   3.428   1.825   4.634
 6557TIP3    H119614   3.470   1.737   4.648
 6557TIP3    H219615   3.486   1.860   4.564
 6558TIP3   OH219616   3.589   1.996   5.131
 6558TIP3    H119617   3.674   2.021   5.090
 6558TIP3    H219618   3.603   2.034   5.220
 6559TIP3   OH219619   3.659   2.143   5.362
 6559TIP3    H119620   3.582   2.178   5.410
 6559TIP3    H219621   3.692   2.224   5.317
 6560TIP3   OH219622   2.269   1.863   6.137
 6560TIP3    H119623   2.366   1.868   6.152
 6560TIP3    H219624   2.249   1.783   6.190
 6561TIP3   OH219625   4.106   1.732   5.917
 6561TIP3    H119626   4.169   1.669   5.875
 6561TIP3    H219627   4.080   1.788   5.842
 6562TIP3   OH219628   3.538   1.575   4.673
 6562TIP3    H119629   3.586   1.559   4.757
 6562TIP3    H219630   3.477   1.498   4.672
 6563TIP3   OH219631   2.038   1.822   5.567
 6563TIP3    H119632   2.091   1.832   5.485
 6563TIP3    H219633   2.056   1.906   5.611
 6564TIP3   OH219634   3.979   1.872   5.722
 6564TIP3    H119635   3.892   1.913   5.740
 6564TIP3    H219636   3.950   1.798   5.665
 6565TIP3   OH219637   3.615   1.508   4.308
 6565TIP3    H119638   3.656   1.438   4.254
 6565TIP3    H219639   3.681   1.579   4.304
 6566TIP3   OH219640   2.025   1.348   5.094
 6566TIP3    H119641   1.927   1.337   5.099
 6566TIP3    H219642   2.030   1.404   5.012
 6567TIP3   OH219643   3.173   3.049   4.582
 6567TIP3    H119644   3.217   3.031   4.495
 6567TIP3    H219645   3.239   3.107   4.623
 6568TIP3   OH219646   2.241   1.417   5.880
 6568TIP3    H119647   2.194   1.418   5.964
 6568TIP3    H219648   2.175   1.455   5.819
 6569TIP3   OH219649   2.284   2.843   5.953
 6569TIP3    H119650   2.189   2.820   5.941
 6569TIP3    H219651   2.293   2.841   6.048
 6570TIP3   OH219652   2.464   2.880   5.506
 6570TIP3    H119653   2.415   2.956   5.468
 6570TIP3    H219654   2.549   2.893   5.461
 6571TIP3   OH219655   2.904   3.122   5.643
 6571TIP3    H119656   2.946   3.122   5.732
 6571TIP3    H219657   2.969   3.173   5.591
 6572TIP3   OH219658   3.082   3.277   5.504
 6572TIP3    H119659   3.151   3.226   5.459
 6572TIP3    H219660   3.136   3.332   5.564
 6573TIP3   OH219661   3.880   1.634   5.603
 6573TIP3    H119662   3.789   1.623   5.570
 6573TIP3    H219663   3.914   1.542   5.592
 6574TIP3   OH219664   2.137   3.135   5.531
 6574TIP3    H119665   2.046   3.167   5.510
 6574TIP3    H219666   2.151   3.177   5.617
 6575TIP3   OH219667   2.374   3.114   5.390
 6575TIP3    H119668   2.286   3.126   5.434
 6575TIP3    H219669   2.355   3.145   5.299
 6576TIP3   OH219670   2.799   3.140   5.189
 6576TIP3    H119671   2.731   3.157   5.120
 6576TIP3    H219672   2.811   3.230   5.227
 6577TIP3   OH219673   3.069   3.082   5.241
 6577TIP3    H119674   2.975   3.097   5.220
 6577TIP3    H219675   3.113   3.152   5.191
 6578TIP3   OH219676   3.275   3.274   5.151
 6578TIP3    H119677   3.259   3.358   5.102
 6578TIP3    H219678   3.303   3.214   5.078
 6579TIP3   OH219679   2.049   2.929   5.273
 6579TIP3    H119680   2.075   2.901   5.364
 6579TIP3    H219681   2.122   2.886   5.222
 6580TIP3   OH219682   2.244   2.800   5.133
 6580TIP3    H119683   2.259   2.716   5.182
 6580TIP3    H219684   2.335   2.837   5.130
 6581TIP3   OH219685   2.509   2.894   5.139
 6581TIP3    H119686   2.541   2.803   5.125
 6581TIP3    H219687   2.558   2.916   5.221
 6582TIP3   OH219688   3.074   1.545   5.207
 6582TIP3    H119689   3.042   1.478   5.270
 6582TIP3    H219690   3.157   1.505   5.175
 6583TIP3   OH219691   3.604   1.429   5.125
 6583TIP3    H119692   3.641   1.482   5.050
 6583TIP3    H219693   3.510   1.452   5.121
 6584TIP3   OH219694   3.702   1.530   4.890
 6584TIP3    H119695   3.776   1.478   4.852
 6584TIP3    H219696   3.736   1.621   4.876
 6585TIP3   OH219697   2.135   1.130   4.887
 6585TIP3    H119698   2.164   1.176   4.806
 6585TIP3    H219699   2.084   1.199   4.931
 6586TIP3   OH219700   2.776   1.300   5.127
 6586TIP3    H119701   2.831   1.342   5.059
 6586TIP3    H219702   2.821   1.327   5.208
 6587TIP3   OH219703   3.320   1.441   5.105
 6587TIP3    H119704   3.326   1.401   5.017
 6587TIP3    H219705   3.306   1.361   5.161
 6588TIP3   OH219706   3.354   1.363   4.666
 6588TIP3    H119707   3.268   1.407   4.681
 6588TIP3    H219708   3.339   1.277   4.712
 6589TIP3   OH219709   1.835   2.704   4.665
 6589TIP3    H119710   1.750   2.671   4.632
 6589TIP3    H219711   1.828   2.798   4.640
 6590TIP3   OH219712   2.240   1.282   4.656
 6590TIP3    H119713   2.286   1.223   4.594
 6590TIP3    H219714   2.313   1.339   4.686
 6591TIP3   OH219715   2.746   1.466   4.750
 6591TIP3    H119716   2.811   1.422   4.808
 6591TIP3    H219717   2.767   1.559   4.773
 6592TIP3   OH219718   2.610   2.886   4.251
 6592TIP3    H119719   2.698   2.909   4.214
 6592TIP3    H219720   2.588   2.812   4.190
 6593TIP3   OH219721   3.301   3.008   4.349
 6593TIP3    H119722   3.305   2.911   4.331
 6593TIP3    H219723   3.287   3.042   4.259
 6594TIP3   OH219724   2.544   1.538   6.119
 6594TIP3    H119725   2.506   1.470   6.178
 6594TIP3    H219726   2.637   1.537   6.149
 6595TIP3   OH219727   2.797   1.521   6.243
 6595TIP3    H119728   2.875   1.524   6.186
 6595TIP3    H219729   2.811   1.436   6.286
 6596TIP3   OH219730   1.912   2.721   4.303
 6596TIP3    H119731   1.919   2.746   4.395
 6596TIP3    H219732   2.000   2.679   4.286
 6597TIP3   OH219733   3.617   1.602   6.035
 6597TIP3    H119734   3.636   1.570   6.126
 6597TIP3    H219735   3.706   1.597   5.993
 6598TIP3   OH219736   3.550   3.150   5.532
 6598TIP3    H119737   3.474   3.119   5.478
 6598TIP3    H219738   3.532   3.246   5.533
 6599TIP3   OH219739   4.821   2.526   4.291
 6599TIP3    H119740   4.791   2.617   4.270
 6599TIP3    H219741   4.744   2.475   4.261
 6600TIP3   OH219742   4.824   2.523   4.677
 6600TIP3    H119743   4.856   2.498   4.766
 6600TIP3    H219744   4.779   2.443   4.648
 6601TIP3   OH219745   4.119   2.416   5.042
 6601TIP3    H119746   4.151   2.349   5.105
 6601TIP3    H219747   4.195   2.474   5.036
 6602TIP3   OH219748   5.066   2.825   4.359
 6602TIP3    H119749   5.047   2.758   4.427
 6602TIP3    H219750   5.094   2.901   4.412
 6603TIP3   OH219751   4.095   2.825   4.770
 6603TIP3    H119752   4.086   2.728   4.769
 6603TIP3    H219753   4.190   2.836   4.754
 6604TIP3   OH219754   3.798   2.029   4.547
 6604TIP3    H119755   3.751   2.113   4.566
 6604TIP3    H219756   3.726   1.979   4.504
 6605TIP3   OH219757   3.854   2.318   4.724
 6605TIP3    H119758   3.906   2.242   4.759
 6605TIP3    H219759   3.917   2.359   4.663
 6606TIP3   OH219760   4.708   3.273   4.370
 6606TIP3    H119761   4.770   3.212   4.326
 6606TIP3    H219762   4.707   3.241   4.461
 6607TIP3   OH219763   4.618   2.749   4.724
 6607TIP3    H119764   4.658   2.674   4.676
 6607TIP3    H219765   4.700   2.796   4.749
 6608TIP3   OH219766   5.634   2.070   4.722
 6608TIP3    H119767   5.663   2.153   4.764
 6608TIP3    H219768   5.654   2.088   4.628
 6609TIP3   OH219769   5.032   2.250   4.754
 6609TIP3    H119770   5.074   2.164   4.774
 6609TIP3    H219771   4.999   2.234   4.664
 6610TIP3   OH219772   4.372   1.910   4.719
 6610TIP3    H119773   4.351   1.983   4.657
 6610TIP3    H219774   4.322   1.837   4.677
 6611TIP3   OH219775   5.065   2.001   4.341
 6611TIP3    H119776   5.137   1.987   4.407
 6611TIP3    H219777   5.117   2.037   4.267
 6612TIP3   OH219778   4.003   2.112   4.829
 6612TIP3    H119779   4.086   2.093   4.876
 6612TIP3    H219780   4.016   2.057   4.749
 6613TIP3   OH219781   4.443   2.310   4.622
 6613TIP3    H119782   4.537   2.285   4.636
 6613TIP3    H219783   4.404   2.226   4.590
 6614TIP3   OH219784   5.707   2.279   4.890
 6614TIP3    H119785   5.622   2.325   4.871
 6614TIP3    H219786   5.720   2.305   4.983
 6615TIP3   OH219787   4.366   1.893   5.155
 6615TIP3    H119788   4.307   1.931   5.087
 6615TIP3    H219789   4.313   1.911   5.236
 6616TIP3   OH219790   4.712   2.747   4.160
 6616TIP3    H119791   4.667   2.731   4.077
 6616TIP3    H219792   4.672   2.833   4.186
 6617TIP3   OH219793   4.471   2.670   4.948
 6617TIP3    H119794   4.410   2.738   4.984
 6617TIP3    H219795   4.513   2.719   4.874
 6618TIP3   OH219796   5.271   2.007   4.519
 6618TIP3    H119797   5.253   1.964   4.603
 6618TIP3    H219798   5.323   2.085   4.546
 6619TIP3   OH219799   4.238   2.008   4.938
 6619TIP3    H119800   4.299   2.082   4.962
 6619TIP3    H219801   4.288   1.968   4.864
 6620TIP3   OH219802   4.302   2.865   5.049
 6620TIP3    H119803   4.276   2.950   5.007
 6620TIP3    H219804   4.222   2.850   5.104
 6621TIP3   OH219805   3.685   2.556   4.280
 6621TIP3    H119806   3.647   2.579   4.193
 6621TIP3    H219807   3.706   2.644   4.316
 6622TIP3   OH219808   5.136   3.073   4.524
 6622TIP3    H119809   5.047   3.061   4.565
 6622TIP3    H219810   5.123   3.157   4.477
 6623TIP3   OH219811   5.427   1.969   4.887
 6623TIP3    H119812   5.339   1.997   4.856
 6623TIP3    H219813   5.486   2.001   4.816
 6624TIP3   OH219814   4.719   1.611   4.871
 6624TIP3    H119815   4.705   1.516   4.890
 6624TIP3    H219816   4.642   1.650   4.918
 6625TIP3   OH219817   4.862   3.130   4.194
 6625TIP3    H119818   4.903   3.044   4.168
 6625TIP3    H219819   4.917   3.192   4.144
 6626TIP3   OH219820   4.980   2.899   4.106
 6626TIP3    H119821   4.930   2.823   4.075
 6626TIP3    H219822   5.015   2.864   4.191
 6627TIP3   OH219823   5.360   2.981   4.867
 6627TIP3    H119824   5.347   2.904   4.808
 6627TIP3    H219825   5.341   3.056   4.807
 6628TIP3   OH219826   4.651   2.374   4.127
 6628TIP3    H119827   4.570   2.427   4.109
 6628TIP3    H219828   4.696   2.376   4.041
 6629TIP3   OH219829   4.609   2.164   3.837
 6629TIP3    H119830   4.675   2.213   3.889
 6629TIP3    H219831   4.667   2.100   3.791
 6630TIP3   OH219832   5.555   2.622   4.715
 6630TIP3    H119833   5.470   2.672   4.718
 6630TIP3    H219834   5.584   2.644   4.624
 6631TIP3   OH219835   4.999   2.458   4.096
 6631TIP3    H119836   4.944   2.483   4.173
 6631TIP3    H219837   5.083   2.434   4.140
 6632TIP3   OH219838   5.233   2.496   5.011
 6632TIP3    H119839   5.229   2.581   5.060
 6632TIP3    H219840   5.147   2.499   4.966
 6633TIP3   OH219841   4.231   2.453   4.513
 6633TIP3    H119842   4.191   2.396   4.444
 6633TIP3    H219843   4.308   2.401   4.542
 6634TIP3   OH219844   4.359   2.864   4.662
 6634TIP3    H119845   4.338   2.832   4.573
 6634TIP3    H219846   4.449   2.829   4.676
 6635TIP3   OH219847   4.368   2.427   4.868
 6635TIP3    H119848   4.400   2.405   4.778
 6635TIP3    H219849   4.409   2.514   4.886
 6636TIP3   OH219850   4.897   3.065   4.646
 6636TIP3    H119851   4.877   3.145   4.697
 6636TIP3    H219852   4.877   2.993   4.709
 6637TIP3   OH219853   4.505   2.983   5.194
 6637TIP3    H119854   4.444   3.046   5.237
 6637TIP3    H219855   4.441   2.931   5.141
 6638TIP3   OH219856   4.840   2.315   3.923
 6638TIP3    H119857   4.898   2.376   3.974
 6638TIP3    H219858   4.865   2.338   3.830
 6639TIP3   OH219859   4.261   2.537   5.296
 6639TIP3    H119860   4.265   2.625   5.338
 6639TIP3    H219861   4.165   2.518   5.307
 6640TIP3   OH219862   4.592   2.998   4.190
 6640TIP3    H119863   4.650   3.066   4.228
 6640TIP3    H219864   4.520   3.052   4.153
 6641TIP3   OH219865   4.300   3.152   5.279
 6641TIP3    H119866   4.269   3.153   5.187
 6641TIP3    H219867   4.218   3.129   5.329
 6642TIP3   OH219868   5.354   1.555   3.972
 6642TIP3    H119869   5.273   1.577   4.023
 6642TIP3    H219870   5.368   1.639   3.922
 6643TIP3   OH219871   4.100   2.298   4.312
 6643TIP3    H119872   4.031   2.346   4.261
 6643TIP3    H219873   4.055   2.215   4.330
 6644TIP3   OH219874   5.153   2.923   3.518
 6644TIP3    H119875   5.160   3.021   3.507
 6644TIP3    H219876   5.247   2.897   3.506
 6645TIP3   OH219877   3.878   2.683   5.227
 6645TIP3    H119878   3.813   2.665   5.156
 6645TIP3    H219879   3.916   2.595   5.246
 6646TIP3   OH219880   3.741   2.859   4.891
 6646TIP3    H119881   3.815   2.867   4.829
 6646TIP3    H219882   3.713   2.951   4.900
 6647TIP3   OH219883   5.596   3.330   4.915
 6647TIP3    H119884   5.595   3.233   4.928
 6647TIP3    H219885   5.512   3.354   4.961
 6648TIP3   OH219886   4.705   3.110   5.052
 6648TIP3    H119887   4.700   3.203   5.082
 6648TIP3    H219888   4.631   3.071   5.103
 6649TIP3   OH219889   4.465   3.238   4.001
 6649TIP3    H119890   4.416   3.227   3.917
 6649TIP3    H219891   4.437   3.327   4.030
 6650TIP3   OH219892   4.661   3.138   3.639
 6650TIP3    H119893   4.723   3.070   3.606
 6650TIP3    H219894   4.699   3.159   3.727
 6651TIP3   OH219895   4.716   3.181   3.914
 6651TIP3    H119896   4.628   3.205   3.951
 6651TIP3    H219897   4.751   3.129   3.987
 6652TIP3   OH219898   5.486   2.458   5.189
 6652TIP3    H119899   5.403   2.469   5.141
 6652TIP3    H219900   5.502   2.362   5.180
 6653TIP3   OH219901   4.085   2.865   5.215
 6653TIP3    H119902   4.134   2.844   5.297
 6653TIP3    H219903   4.009   2.804   5.220
 6654TIP3   OH219904   4.482   1.689   5.000
 6654TIP3    H119905   4.393   1.658   4.972
 6654TIP3    H219906   4.456   1.770   5.048
 6655TIP3   OH219907   5.017   1.803   5.194
 6655TIP3    H119908   5.085   1.776   5.258
 6655TIP3    H219909   4.933   1.783   5.241
 6656TIP3   OH219910   5.255   2.234   5.114
 6656TIP3    H119911   5.204   2.231   5.198
 6656TIP3    H219912   5.229   2.321   5.077
 6657TIP3   OH219913   4.913   2.355   3.664
 6657TIP3    H119914   4.882   2.334   3.574
 6657TIP3    H219915   4.993   2.407   3.644
 6658TIP3   OH219916   4.628   1.736   3.970
 6658TIP3    H119917   4.594   1.735   4.062
 6658TIP3    H219918   4.588   1.654   3.937
 6659TIP3   OH219919   4.415   2.204   5.017
 6659TIP3    H119920   4.364   2.224   5.099
 6659TIP3    H219921   4.398   2.286   4.964
 6660TIP3   OH219922   4.298   2.090   4.531
 6660TIP3    H119923   4.205   2.066   4.550
 6660TIP3    H219924   4.309   2.049   4.442
 6661TIP3   OH219925   4.788   2.176   4.261
 6661TIP3    H119926   4.736   2.247   4.218
 6661TIP3    H219927   4.843   2.144   4.186
 6662TIP3   OH219928   4.963   2.452   5.344
 6662TIP3    H119929   4.939   2.380   5.407
 6662TIP3    H219930   5.057   2.465   5.367
 6663TIP3   OH219931   4.945   2.203   4.497
 6663TIP3    H119932   4.883   2.232   4.428
 6663TIP3    H219933   4.979   2.122   4.453
 6664TIP3   OH219934   4.235   2.232   5.226
 6664TIP3    H119935   4.261   2.296   5.294
 6664TIP3    H219936   4.223   2.151   5.278
 6665TIP3   OH219937   4.283   1.711   3.936
 6665TIP3    H119938   4.274   1.709   4.033
 6665TIP3    H219939   4.206   1.765   3.911
 6666TIP3   OH219940   3.827   1.753   4.807
 6666TIP3    H119941   3.900   1.787   4.862
 6666TIP3    H219942   3.871   1.725   4.726
 6667TIP3   OH219943   3.792   1.735   4.324
 6667TIP3    H119944   3.838   1.774   4.246
 6667TIP3    H219945   3.732   1.809   4.346
 6668TIP3   OH219946   4.958   2.449   4.919
 6668TIP3    H119947   4.990   2.377   4.860
 6668TIP3    H219948   4.926   2.396   4.995
 6669TIP3   OH219949   4.629   1.909   4.591
 6669TIP3    H119950   4.547   1.910   4.645
 6669TIP3    H219951   4.697   1.908   4.660
 6670TIP3   OH219952   4.060   1.970   4.599
 6670TIP3    H119953   3.965   1.977   4.572
 6670TIP3    H219954   4.083   1.878   4.576
 6671TIP3   OH219955   4.326   1.962   4.290
 6671TIP3    H119956   4.419   1.980   4.269
 6671TIP3    H219957   4.278   1.986   4.208
 6672TIP3   OH219958   5.118   1.987   4.793
 6672TIP3    H119959   5.087   2.000   4.886
 6672TIP3    H219960   5.049   1.928   4.760
 6673TIP3   OH219961   4.174   1.996   4.066
 6673TIP3    H119962   4.101   1.954   4.018
 6673TIP3    H219963   4.226   2.035   3.992
 6674TIP3   OH219964   5.291   3.676   5.015
 6674TIP3    H119965   5.288   3.698   4.920
 6674TIP3    H219966   5.368   3.727   5.045
 6675TIP3   OH219967   4.245   2.785   5.435
 6675TIP3    H119968   4.324   2.816   5.483
 6675TIP3    H219969   4.180   2.784   5.508
 6676TIP3   OH219970   4.708   2.242   4.691
 6676TIP3    H119971   4.781   2.201   4.643
 6676TIP3    H219972   4.713   2.199   4.778
 6677TIP3   OH219973   4.227   1.727   4.572
 6677TIP3    H119974   4.192   1.649   4.621
 6677TIP3    H219975   4.275   1.686   4.499
 6678TIP3   OH219976   4.684   2.141   4.977
 6678TIP3    H119977   4.594   2.175   4.993
 6678TIP3    H219978   4.740   2.202   5.029
 6679TIP3   OH219979   4.424   2.525   4.076
 6679TIP3    H119980   4.349   2.464   4.063
 6679TIP3    H219981   4.402   2.562   4.165
 6680TIP3   OH219982   5.320   2.764   4.702
 6680TIP3    H119983   5.344   2.814   4.621
 6680TIP3    H219984   5.235   2.722   4.676
 6681TIP3   OH219985   4.878   1.840   3.936
 6681TIP3    H119986   4.782   1.822   3.947
 6681TIP3    H219987   4.887   1.934   3.964
 6682TIP3   OH219988   4.822   2.848   5.072
 6682TIP3    H119989   4.843   2.829   5.164
 6682TIP3    H219990   4.782   2.936   5.077
 6683TIP3   OH219991   4.947   2.087   4.042
 6683TIP3    H119992   5.043   2.095   4.057
 6683TIP3    H219993   4.927   2.168   3.991
 6684TIP3   OH219994   4.112   2.544   4.749
 6684TIP3    H119995   4.152   2.521   4.663
 6684TIP3    H219996   4.160   2.486   4.810
 6685TIP3   OH219997   4.565   2.677   3.895
 6685TIP3    H119998   4.518   2.764   3.899
 6685TIP3    H219999   4.511   2.623   3.957
 6686TIP3   OH220000   3.997   2.468   5.363
 6686TIP3    H120001   4.014   2.455   5.458
 6686TIP3    H220002   3.926   2.404   5.346
 6687TIP3   OH220003   4.721   2.588   5.381
 6687TIP3    H120004   4.659   2.527   5.337
 6687TIP3    H220005   4.807   2.551   5.352
 6688TIP3   OH220006   4.982   3.106   4.970
 6688TIP3    H120007   4.885   3.104   4.981
 6688TIP3    H220008   5.007   3.160   5.048
 6689TIP3   OH220009   5.390   2.181   3.876
 6689TIP3    H120010   5.328   2.136   3.813
 6689TIP3    H220011   5.385   2.270   3.836
 6690TIP3   OH220012   5.610   3.040   4.955
 6690TIP3    H120013   5.512   3.033   4.947
 6690TIP3    H220014   5.636   3.009   4.866
 6691TIP3   OH220015   5.081   2.994   3.784
 6691TIP3    H120016   5.059   2.924   3.847
 6691TIP3    H220017   5.098   2.946   3.701
 6692TIP3   OH220018   5.087   2.627   4.619
 6692TIP3    H120019   4.993   2.602   4.633
 6692TIP3    H220020   5.120   2.547   4.574
 6693TIP3   OH220021   4.210   2.855   4.375
 6693TIP3    H120022   4.209   2.938   4.323
 6693TIP3    H220023   4.116   2.847   4.393
 6694TIP3   OH220024   3.780   2.159   4.081
 6694TIP3    H120025   3.824   2.244   4.101
 6694TIP3    H220026   3.702   2.164   4.141
 6695TIP3   OH220027   4.348   2.621   4.318
 6695TIP3    H120028   4.311   2.710   4.334
 6695TIP3    H220029   4.311   2.572   4.394
 6696TIP3   OH220030   4.485   3.197   4.846
 6696TIP3    H120031   4.522   3.269   4.790
 6696TIP3    H220032   4.565   3.165   4.890
 6697TIP3   OH220033   4.131   3.087   4.232
 6697TIP3    H120034   4.035   3.082   4.258
 6697TIP3    H220035   4.148   3.183   4.240
 6698TIP3   OH220036   4.870   2.833   4.804
 6698TIP3    H120037   4.860   2.832   4.902
 6698TIP3    H220038   4.950   2.779   4.792
 6699TIP3   OH220039   4.848   2.723   3.686
 6699TIP3    H120040   4.901   2.698   3.766
 6699TIP3    H220041   4.759   2.702   3.717
 6700TIP3   OH220042   5.120   3.364   4.854
 6700TIP3    H120043   5.040   3.309   4.846
 6700TIP3    H220044   5.105   3.429   4.781
 6701TIP3   OH220045   5.187   3.199   3.503
 6701TIP3    H120046   5.227   3.279   3.463
 6701TIP3    H220047   5.109   3.241   3.546
 6702TIP3   OH220048   4.205   1.976   5.369
 6702TIP3    H120049   4.109   1.979   5.383
 6702TIP3    H220050   4.234   1.921   5.444
 6703TIP3   OH220051   5.009   2.654   3.898
 6703TIP3    H120052   4.999   2.592   3.973
 6703TIP3    H220053   5.107   2.655   3.889
 6704TIP3   OH220054   3.922   3.075   5.011
 6704TIP3    H120055   3.958   2.985   5.021
 6704TIP3    H220056   3.979   3.125   5.070
 6705TIP3   OH220057   4.213   2.704   3.684
 6705TIP3    H120058   4.226   2.610   3.661
 6705TIP3    H220059   4.195   2.698   3.780
 6706TIP3   OH220060   4.160   2.711   3.954
 6706TIP3    H120061   4.225   2.687   4.022
 6706TIP3    H220062   4.158   2.809   3.964
 6707TIP3   OH220063   3.889   2.405   4.164
 6707TIP3    H120064   3.823   2.451   4.219
 6707TIP3    H220065   3.902   2.472   4.094
 6708TIP3   OH220066   5.047   2.038   5.053
 6708TIP3    H120067   5.125   2.078   5.095
 6708TIP3    H220068   5.031   1.958   5.107
 6709TIP3   OH220069   4.927   1.789   4.220
 6709TIP3    H120070   4.911   1.813   4.127
 6709TIP3    H220071   4.966   1.871   4.257
 6710TIP3   OH220072   4.424   2.908   3.904
 6710TIP3    H120073   4.337   2.932   3.941
 6710TIP3    H220074   4.444   2.990   3.855
 6711TIP3   OH220075   4.610   1.972   4.321
 6711TIP3    H120076   4.674   2.045   4.304
 6711TIP3    H220077   4.616   1.964   4.419
 6712TIP3   OH220078   4.882   2.288   5.127
 6712TIP3    H120079   4.903   2.342   5.206
 6712TIP3    H220080   4.935   2.208   5.141
 6713TIP3   OH220081   4.754   1.694   4.422
 6713TIP3    H120082   4.745   1.772   4.480
 6713TIP3    H220083   4.817   1.730   4.355
 6714TIP3   OH220084   4.169   2.982   3.976
 6714TIP3    H120085   4.137   3.053   3.916
 6714TIP3    H220086   4.148   3.022   4.064
 6715TIP3   OH220087   4.268   1.697   4.212
 6715TIP3    H120088   4.264   1.787   4.249
 6715TIP3    H220089   4.364   1.680   4.220
 6716TIP3   OH220090   5.521   2.190   5.108
 6716TIP3    H120091   5.423   2.190   5.118
 6716TIP3    H220092   5.529   2.144   5.024
 6717TIP3   OH220093   5.172   2.383   4.497
 6717TIP3    H120094   5.095   2.325   4.510
 6717TIP3    H220095   5.243   2.335   4.546
 6718TIP3   OH220096   3.884   2.608   3.968
 6718TIP3    H120097   3.942   2.685   3.981
 6718TIP3    H220098   3.935   2.560   3.900
 6719TIP3   OH220099   3.828   1.888   4.098
 6719TIP3    H120100   3.831   1.986   4.098
 6719TIP3    H220101   3.742   1.871   4.059
 6720TIP3   OH220102   5.135   3.349   4.439
 6720TIP3    H120103   5.093   3.365   4.353
 6720TIP3    H220104   5.229   3.369   4.419
 6721TIP3   OH220105   4.218   1.608   4.971
 6721TIP3    H120106   4.186   1.574   4.885
 6721TIP3    H220107   4.207   1.530   5.029
 6722TIP3   OH220108   3.914   3.373   5.427
 6722TIP3    H120109   4.001   3.371   5.472
 6722TIP3    H220110   3.893   3.278   5.422
 6723TIP3   OH220111   4.392   3.328   5.474
 6723TIP3    H120112   4.488   3.312   5.474
 6723TIP3    H220113   4.365   3.270   5.399
 6724TIP3   OH220114   4.372   2.908   3.592
 6724TIP3    H120115   4.317   2.839   3.635
 6724TIP3    H220116   4.451   2.857   3.569
 6725TIP3   OH220117   5.031   3.242   5.205
 6725TIP3    H120118   5.025   3.171   5.273
 6725TIP3    H220119   5.109   3.293   5.236
 6726TIP3   OH220120   4.812   2.946   3.509
 6726TIP3    H120121   4.856   2.886   3.572
 6726TIP3    H220122   4.873   2.947   3.434
 6727TIP3   OH220123   4.042   2.778   5.627
 6727TIP3    H120124   4.060   2.682   5.631
 6727TIP3    H220125   3.956   2.780   5.580
 6728TIP3   OH220126   4.024   2.423   3.819
 6728TIP3    H120127   4.079   2.396   3.895
 6728TIP3    H220128   4.092   2.429   3.749
 6729TIP3   OH220129   4.649   2.863   5.400
 6729TIP3    H120130   4.606   2.883   5.314
 6729TIP3    H220131   4.680   2.771   5.389
 6730TIP3   OH220132   4.536   2.625   3.626
 6730TIP3    H120133   4.535   2.639   3.723
 6730TIP3    H220134   4.532   2.527   3.622
 6731TIP3   OH220135   5.144   2.872   5.008
 6731TIP3    H120136   5.218   2.917   4.962
 6731TIP3    H220137   5.072   2.937   4.994
 6732TIP3   OH220138   4.162   2.514   5.608
 6732TIP3    H120139   4.236   2.456   5.585
 6732TIP3    H220140   4.189   2.543   5.698
 6733TIP3   OH220141   4.226   2.332   4.039
 6733TIP3    H120142   4.198   2.295   4.125
 6733TIP3    H220143   4.263   2.254   3.993
 6734TIP3   OH220144   4.499   2.395   5.270
 6734TIP3    H120145   4.420   2.453   5.272
 6734TIP3    H220146   4.547   2.430   5.191
 6735TIP3   OH220147   4.331   2.124   3.881
 6735TIP3    H120148   4.304   2.133   3.787
 6735TIP3    H220149   4.428   2.131   3.873
 6736TIP3   OH220150   5.016   2.797   5.403
 6736TIP3    H120151   5.091   2.764   5.352
 6736TIP3    H220152   5.010   2.731   5.475
 6737TIP3   OH220153   5.150   2.453   3.547
 6737TIP3    H120154   5.128   2.409   3.462
 6737TIP3    H220155   5.119   2.544   3.526
 6738TIP3   OH220156   4.623   2.184   5.393
 6738TIP3    H120157   4.622   2.105   5.335
 6738TIP3    H220158   4.578   2.251   5.337
 6739TIP3   OH220159   4.625   1.970   5.201
 6739TIP3    H120160   4.651   2.011   5.117
 6739TIP3    H220161   4.531   1.947   5.184
 6740TIP3   OH220162   4.649   2.506   5.075
 6740TIP3    H120163   4.733   2.519   5.030
 6740TIP3    H220164   4.591   2.571   5.030
 6741TIP3   OH220165   5.231   2.470   5.455
 6741TIP3    H120166   5.278   2.387   5.469
 6741TIP3    H220167   5.300   2.527   5.417
 6742TIP3   OH220168   5.273   2.726   5.194
 6742TIP3    H120169   5.215   2.780   5.135
 6742TIP3    H220170   5.360   2.746   5.154
 6743TIP3   OH220171   4.503   2.291   5.626
 6743TIP3    H120172   4.432   2.226   5.644
 6743TIP3    H220173   4.534   2.262   5.538
 6744TIP3   OH220174   4.756   1.732   5.272
 6744TIP3    H120175   4.707   1.814   5.248
 6744TIP3    H220176   4.686   1.664   5.261
 6745TIP3   OH220177   4.881   2.235   5.486
 6745TIP3    H120178   4.866   2.221   5.582
 6745TIP3    H220179   4.792   2.212   5.453
 6746TIP3   OH220180   5.120   2.185   5.342
 6746TIP3    H120181   5.044   2.187   5.403
 6746TIP3    H220182   5.193   2.155   5.400
 6747TIP3   OH220183   5.354   2.129   5.491
 6747TIP3    H120184   5.365   2.033   5.508
 6747TIP3    H220185   5.347   2.166   5.582
 6748TIP3   OH220186   4.337   2.072   5.680
 6748TIP3    H120187   4.344   1.980   5.649
 6748TIP3    H220188   4.374   2.063   5.770
 6749TIP3   OH220189   4.849   1.742   5.530
 6749TIP3    H120190   4.916   1.671   5.523
 6749TIP3    H220191   4.809   1.737   5.441
 6750TIP3   OH220192   4.917   1.958   5.686
 6750TIP3    H120193   4.893   1.887   5.623
 6750TIP3    H220194   4.838   2.017   5.683
 6751TIP3   OH220195   4.136   3.182   3.784
 6751TIP3    H120196   4.232   3.177   3.769
 6751TIP3    H220197   4.111   3.237   3.708
 6752TIP3   OH220198   3.617   2.565   4.003
 6752TIP3    H120199   3.712   2.588   3.989
 6752TIP3    H220200   3.612   2.477   3.958
 6753TIP3   OH220201   5.395   3.428   4.405
 6753TIP3    H120202   5.424   3.462   4.491
 6753TIP3    H220203   5.456   3.472   4.343
 6754TIP3   OH220204   5.426   3.453   4.689
 6754TIP3    H120205   5.378   3.367   4.682
 6754TIP3    H220206   5.500   3.425   4.746
 6755TIP3   OH220207   5.472   3.128   5.260
 6755TIP3    H120208   5.399   3.136   5.325
 6755TIP3    H220209   5.513   3.217   5.265
 6756TIP3   OH220210   5.289   2.639   3.878
 6756TIP3    H120211   5.355   2.706   3.850
 6756TIP3    H220212   5.333   2.602   3.957
 6757TIP3   OH220213   5.416   2.507   4.082
 6757TIP3    H120214   5.348   2.466   4.141
 6757TIP3    H220215   5.479   2.545   4.146
 6758TIP3   OH220216   5.472   2.902   4.517
 6758TIP3    H120217   5.523   2.835   4.467
 6758TIP3    H220218   5.467   2.976   4.453
 6759TIP3   OH220219   5.299   3.202   4.709
 6759TIP3    H120220   5.226   3.243   4.760
 6759TIP3    H220221   5.250   3.155   4.639
 6760TIP3   OH220222   5.352   2.416   3.728
 6760TIP3    H120223   5.280   2.419   3.661
 6760TIP3    H220224   5.326   2.492   3.783
 6761TIP3   OH220225   5.225   2.087   3.681
 6761TIP3    H120226   5.176   2.127   3.607
 6761TIP3    H220227   5.201   1.992   3.670
 6762TIP3   OH220228   5.228   2.366   4.228
 6762TIP3    H120229   5.235   2.270   4.222
 6762TIP3    H220230   5.213   2.380   4.324
 6763TIP3   OH220231   3.854   2.432   4.979
 6763TIP3    H120232   3.851   2.404   4.885
 6763TIP3    H220233   3.952   2.437   4.992
 6764TIP3   OH220234   5.518   2.790   5.087
 6764TIP3    H120235   5.589   2.724   5.075
 6764TIP3    H220236   5.541   2.858   5.021
 6765TIP3   OH220237   5.702   2.592   5.095
 6765TIP3    H120238   5.626   2.544   5.135
 6765TIP3    H220239   5.774   2.528   5.113
 6766TIP3   OH220240   5.168   1.820   3.663
 6766TIP3    H120241   5.240   1.791   3.721
 6766TIP3    H220242   5.093   1.764   3.689
 6767TIP3   OH220243   5.224   2.082   4.121
 6767TIP3    H120244   5.266   1.994   4.136
 6767TIP3    H220245   5.282   2.116   4.051
 6768TIP3   OH220246   5.385   2.251   4.618
 6768TIP3    H120247   5.470   2.277   4.577
 6768TIP3    H220248   5.398   2.290   4.707
 6769TIP3   OH220249   5.456   2.400   4.848
 6769TIP3    H120250   5.378   2.433   4.898
 6769TIP3    H220251   5.487   2.481   4.804
 6770TIP3   OH220252   4.071   2.123   5.646
 6770TIP3    H120253   4.169   2.120   5.653
 6770TIP3    H220254   4.048   2.037   5.688
 6771TIP3   OH220255   5.909   1.994   5.405
 6771TIP3    H120256   5.967   1.928   5.362
 6771TIP3    H220257   5.878   2.046   5.328
 6772TIP3   OH220258   5.334   1.832   4.159
 6772TIP3    H120259   5.381   1.815   4.244
 6772TIP3    H220260   5.272   1.756   4.158
 6773TIP3   OH220261   4.033   1.817   4.980
 6773TIP3    H120262   4.096   1.743   4.990
 6773TIP3    H220263   4.095   1.892   4.973
 6774TIP3   OH220264   3.834   2.090   5.052
 6774TIP3    H120265   3.884   2.087   4.969
 6774TIP3    H220266   3.859   2.177   5.085
 6775TIP3   OH220267   5.775   2.128   5.210
 6775TIP3    H120268   5.689   2.170   5.229
 6775TIP3    H220269   5.745   2.055   5.152
 6776TIP3   OH220270   5.411   1.765   3.794
 6776TIP3    H120271   5.452   1.694   3.740
 6776TIP3    H220272   5.478   1.836   3.791
 6777TIP3   OH220273   3.819   1.591   4.551
 6777TIP3    H120274   3.727   1.589   4.582
 6777TIP3    H220275   3.814   1.651   4.474
 6778TIP3   OH220276   4.039   1.672   5.367
 6778TIP3    H120277   3.988   1.668   5.450
 6778TIP3    H220278   3.973   1.712   5.307
 6779TIP3   OH220279   4.079   3.105   5.444
 6779TIP3    H120280   3.987   3.079   5.425
 6779TIP3    H220281   4.087   3.082   5.537
 6780TIP3   OH220282   4.260   3.139   4.997
 6780TIP3    H120283   4.209   3.210   4.955
 6780TIP3    H220284   4.345   3.153   4.949
 6781TIP3   OH220285   4.700   3.376   5.132
 6781TIP3    H120286   4.743   3.379   5.220
 6781TIP3    H220287   4.763   3.429   5.078
 6782TIP3   OH220288   4.881   3.529   4.996
 6782TIP3    H120289   4.951   3.479   4.951
 6782TIP3    H220290   4.935   3.586   5.056
 6783TIP3   OH220291   5.676   1.891   5.089
 6783TIP3    H120292   5.585   1.882   5.056
 6783TIP3    H220293   5.709   1.798   5.079
 6784TIP3   OH220294   3.940   3.400   5.018
 6784TIP3    H120295   3.851   3.427   4.987
 6784TIP3    H220296   3.937   3.432   5.109
 6785TIP3   OH220297   4.173   3.371   4.875
 6785TIP3    H120298   4.086   3.384   4.920
 6785TIP3    H220299   4.151   3.399   4.784
 6786TIP3   OH220300   4.595   3.387   4.671
 6786TIP3    H120301   4.526   3.407   4.606
 6786TIP3    H220302   4.608   3.475   4.713
 6787TIP3   OH220303   4.864   3.337   4.725
 6787TIP3    H120304   4.768   3.348   4.709
 6787TIP3    H220305   4.898   3.416   4.682
 6788TIP3   OH220306   5.083   3.534   4.639
 6788TIP3    H120307   5.058   3.615   4.590
 6788TIP3    H220308   5.098   3.470   4.566
 6789TIP3   OH220309   3.839   3.198   4.775
 6789TIP3    H120310   3.877   3.167   4.860
 6789TIP3    H220311   3.900   3.152   4.713
 6790TIP3   OH220312   4.039   3.073   4.648
 6790TIP3    H120313   4.055   2.981   4.676
 6790TIP3    H220314   4.126   3.101   4.615
 6791TIP3   OH220315   4.315   3.153   4.619
 6791TIP3    H120316   4.338   3.059   4.610
 6791TIP3    H220317   4.354   3.173   4.705
 6792TIP3   OH220318   4.882   1.807   4.711
 6792TIP3    H120319   4.839   1.736   4.762
 6792TIP3    H220320   4.954   1.760   4.666
 6793TIP3   OH220321   5.401   1.687   4.612
 6793TIP3    H120322   5.438   1.740   4.537
 6793TIP3    H220323   5.306   1.708   4.607
 6794TIP3   OH220324   5.498   1.786   4.377
 6794TIP3    H120325   5.572   1.735   4.338
 6794TIP3    H220326   5.532   1.878   4.362
 6795TIP3   OH220327   4.129   1.514   4.724
 6795TIP3    H120328   4.037   1.481   4.727
 6795TIP3    H220329   4.178   1.429   4.721
 6796TIP3   OH220330   3.916   1.387   4.374
 6796TIP3    H120331   3.946   1.444   4.302
 6796TIP3    H220332   3.888   1.452   4.441
 6797TIP3   OH220333   4.575   1.547   4.606
 6797TIP3    H120334   4.632   1.596   4.545
 6797TIP3    H220335   4.599   1.585   4.691
 6798TIP3   OH220336   5.118   1.695   4.589
 6798TIP3    H120337   5.118   1.656   4.501
 6798TIP3    H220338   5.107   1.616   4.647
 6799TIP3   OH220339   5.150   1.620   4.152
 6799TIP3    H120340   5.065   1.664   4.169
 6799TIP3    H220341   5.135   1.534   4.197
 6800TIP3   OH220342   4.035   1.545   4.135
 6800TIP3    H120343   4.084   1.483   4.079
 6800TIP3    H220344   4.108   1.599   4.172
 6801TIP3   OH220345   4.545   1.722   4.234
 6801TIP3    H120346   4.605   1.676   4.296
 6801TIP3    H220347   4.565   1.815   4.260
 6802TIP3   OH220348   4.403   3.142   3.735
 6802TIP3    H120349   4.492   3.165   3.701
 6802TIP3    H220350   4.382   3.067   3.675
 6803TIP3   OH220351   5.150   3.260   3.811
 6803TIP3    H120352   5.120   3.167   3.810
 6803TIP3    H220353   5.080   3.302   3.757
 6804TIP3   OH220354   4.337   1.795   5.614
 6804TIP3    H120355   4.302   1.725   5.673
 6804TIP3    H220356   4.431   1.796   5.642
 6805TIP3   OH220357   4.586   1.792   5.732
 6805TIP3    H120358   4.672   1.767   5.695
 6805TIP3    H220359   4.573   1.722   5.800
 6806TIP3   OH220360   3.707   2.981   3.790
 6806TIP3    H120361   3.702   3.006   3.884
 6806TIP3    H220362   3.796   2.942   3.783
 6807TIP3   OH220363   5.412   1.858   5.522
 6807TIP3    H120364   5.430   1.827   5.614
 6807TIP3    H220365   5.501   1.852   5.481
 6808TIP3   OH220366   5.348   3.406   5.016
 6808TIP3    H120367   5.270   3.375   4.966
 6808TIP3    H220368   5.328   3.502   5.021
 6809TIP3   OH220369   6.618   2.782   3.778
 6809TIP3    H120370   6.587   2.873   3.757
 6809TIP3    H220371   6.542   2.730   3.747
 6810TIP3   OH220372   6.617   2.781   4.166
 6810TIP3    H120373   6.651   2.755   4.253
 6810TIP3    H220374   6.575   2.699   4.135
 6811TIP3   OH220375   5.914   2.673   4.527
 6811TIP3    H120376   5.945   2.605   4.590
 6811TIP3    H220377   5.993   2.729   4.521
 6812TIP3   OH220378   6.862   3.085   3.845
 6812TIP3    H120379   6.845   3.016   3.911
 6812TIP3    H220380   6.891   3.159   3.900
 6813TIP3   OH220381   5.889   3.087   4.251
 6813TIP3    H120382   5.879   2.989   4.252
 6813TIP3    H220383   5.986   3.094   4.245
 6814TIP3   OH220384   5.594   2.288   4.033
 6814TIP3    H120385   5.545   2.370   4.052
 6814TIP3    H220386   5.523   2.235   3.992
 6815TIP3   OH220387   5.652   2.576   4.213
 6815TIP3    H120388   5.702   2.498   4.247
 6815TIP3    H220389   5.710   2.609   4.144
 6816TIP3   OH220390   6.508   3.542   3.861
 6816TIP3    H120391   6.554   3.471   3.812
 6816TIP3    H220392   6.501   3.504   3.949
 6817TIP3   OH220393   6.414   3.007   4.210
 6817TIP3    H120394   6.453   2.930   4.166
 6817TIP3    H220395   6.496   3.053   4.235
 6818TIP3   OH220396   7.427   2.327   4.206
 6818TIP3    H120397   7.458   2.409   4.249
 6818TIP3    H220398   7.455   2.341   4.114
 6819TIP3   OH220399   6.828   2.507   4.241
 6819TIP3    H120400   6.870   2.422   4.261
 6819TIP3    H220401   6.795   2.490   4.150
 6820TIP3   OH220402   6.168   2.167   4.206
 6820TIP3    H120403   6.147   2.240   4.143
 6820TIP3    H220404   6.119   2.094   4.164
 6821TIP3   OH220405   6.861   2.259   3.828
 6821TIP3    H120406   6.932   2.244   3.894
 6821TIP3    H220407   6.913   2.294   3.754
 6822TIP3   OH220408   5.799   2.369   4.315
 6822TIP3    H120409   5.882   2.349   4.363
 6822TIP3    H220410   5.812   2.313   4.236
 6823TIP3   OH220411   6.238   2.567   4.110
 6823TIP3    H120412   6.332   2.542   4.122
 6823TIP3    H220413   6.200   2.483   4.077
 6824TIP3   OH220414   7.502   2.534   4.377
 6824TIP3    H120415   7.417   2.580   4.359
 6824TIP3    H220416   7.519   2.563   4.468
 6825TIP3   OH220417   6.162   2.151   4.643
 6825TIP3    H120418   6.103   2.187   4.574
 6825TIP3    H220419   6.109   2.168   4.723
 6826TIP3   OH220420   6.507   3.001   3.648
 6826TIP3    H120421   6.465   2.983   3.563
 6826TIP3    H220422   6.462   3.084   3.675
 6827TIP3   OH220423   6.268   2.927   4.434
 6827TIP3    H120424   6.207   2.994   4.471
 6827TIP3    H220425   6.311   2.976   4.361
 6828TIP3   OH220426   7.066   2.264   4.005
 6828TIP3    H120427   7.053   2.219   4.089
 6828TIP3    H220428   7.120   2.341   4.032
 6829TIP3   OH220429   6.034   2.265   4.425
 6829TIP3    H120430   6.096   2.338   4.448
 6829TIP3    H220431   6.084   2.225   4.350
 6830TIP3   OH220432   6.098   3.123   4.534
 6830TIP3    H120433   6.072   3.209   4.497
 6830TIP3    H220434   6.019   3.105   4.590
 6831TIP3   OH220435   5.489   2.811   3.770
 6831TIP3    H120436   5.446   2.839   3.687
 6831TIP3    H220437   5.517   2.898   3.807
 6832TIP3   OH220438   6.929   3.328   4.010
 6832TIP3    H120439   6.839   3.319   4.049
 6832TIP3    H220440   6.921   3.414   3.965
 6833TIP3   OH220441   7.223   2.226   4.374
 6833TIP3    H120442   7.135   2.254   4.342
 6833TIP3    H220443   7.282   2.258   4.303
 6834TIP3   OH220444   6.515   1.867   4.357
 6834TIP3    H120445   6.501   1.772   4.376
 6834TIP3    H220446   6.438   1.906   4.404
 6835TIP3   OH220447   6.630   3.371   3.682
 6835TIP3    H120448   6.681   3.289   3.663
 6835TIP3    H220449   6.691   3.437   3.642
 6836TIP3   OH220450   6.774   3.157   3.594
 6836TIP3    H120451   6.734   3.076   3.558
 6836TIP3    H220452   6.812   3.123   3.678
 6837TIP3   OH220453   7.155   3.238   4.354
 6837TIP3    H120454   7.143   3.161   4.295
 6837TIP3    H220455   7.137   3.313   4.294
 6838TIP3   OH220456   6.447   2.632   3.613
 6838TIP3    H120457   6.367   2.684   3.592
 6838TIP3    H220458   6.493   2.630   3.527
 6839TIP3   OH220459   6.405   2.420   3.325
 6839TIP3    H120460   6.473   2.470   3.374
 6839TIP3    H220461   6.462   2.356   3.278
 6840TIP3   OH220462   7.351   2.879   4.202
 6840TIP3    H120463   7.267   2.929   4.206
 6840TIP3    H220464   7.379   2.900   4.110
 6841TIP3   OH220465   6.795   2.716   3.582
 6841TIP3    H120466   6.741   2.740   3.660
 6841TIP3    H220467   6.879   2.690   3.626
 6842TIP3   OH220468   7.029   2.753   4.499
 6842TIP3    H120469   7.026   2.837   4.549
 6842TIP3    H220470   6.943   2.756   4.453
 6843TIP3   OH220471   6.027   2.711   4.000
 6843TIP3    H120472   5.986   2.653   3.932
 6843TIP3    H220473   6.104   2.658   4.030
 6844TIP3   OH220474   6.158   3.126   4.146
 6844TIP3    H120475   6.137   3.086   4.061
 6844TIP3    H220476   6.247   3.090   4.165
 6845TIP3   OH220477   6.164   2.683   4.355
 6845TIP3    H120478   6.196   2.660   4.266
 6845TIP3    H220479   6.206   2.770   4.373
 6846TIP3   OH220480   6.689   3.322   4.132
 6846TIP3    H120481   6.675   3.402   4.186
 6846TIP3    H220482   6.673   3.249   4.195
 6847TIP3   OH220483   6.301   3.240   4.680
 6847TIP3    H120484   6.240   3.302   4.725
 6847TIP3    H220485   6.237   3.187   4.629
 6848TIP3   OH220486   6.634   2.573   3.410
 6848TIP3    H120487   6.694   2.633   3.461
 6848TIP3    H220488   6.660   2.596   3.317
 6849TIP3   OH220489   6.056   2.794   4.783
 6849TIP3    H120490   6.060   2.882   4.825
 6849TIP3    H220491   5.961   2.774   4.794
 6850TIP3   OH220492   6.382   3.248   3.686
 6850TIP3    H120493   6.463   3.302   3.696
 6850TIP3    H220494   6.320   3.311   3.649
 6851TIP3   OH220495   6.095   3.408   4.767
 6851TIP3    H120496   6.061   3.408   4.675
 6851TIP3    H220497   6.014   3.386   4.819
 6852TIP3   OH220498   7.150   1.812   3.459
 6852TIP3    H120499   7.069   1.834   3.510
 6852TIP3    H220500   7.164   1.895   3.409
 6853TIP3   OH220501   5.895   2.556   3.802
 6853TIP3    H120502   5.825   2.601   3.749
 6853TIP3    H220503   5.855   2.470   3.817
 6854TIP3   OH220504   6.951   3.180   3.008
 6854TIP3    H120505   6.959   3.277   2.993
 6854TIP3    H220506   7.044   3.151   2.994
 6855TIP3   OH220507   5.675   2.940   4.712
 6855TIP3    H120508   5.606   2.920   4.645
 6855TIP3    H220509   5.711   2.852   4.733
 6856TIP3   OH220510   5.527   3.130   4.350
 6856TIP3    H120511   5.623   3.129   4.335
 6856TIP3    H220512   5.516   3.211   4.401
 6857TIP3   OH220513   7.393   3.585   4.403
 6857TIP3    H120514   7.392   3.489   4.417
 6857TIP3    H220515   7.309   3.610   4.448
 6858TIP3   OH220516   6.499   3.369   4.537
 6858TIP3    H120517   6.496   3.461   4.569
 6858TIP3    H220518   6.427   3.328   4.590
 6859TIP3   OH220519   6.258   3.503   3.481
 6859TIP3    H120520   6.218   3.468   3.399
 6859TIP3    H220521   6.203   3.580   3.498
 6860TIP3   OH220522   5.702   3.349   3.871
 6860TIP3    H120523   5.744   3.336   3.959
 6860TIP3    H220524   5.629   3.284   3.876
 6861TIP3   OH220525   6.460   3.399   3.128
 6861TIP3    H120526   6.518   3.329   3.091
 6861TIP3    H220527   6.496   3.409   3.218
 6862TIP3   OH220528   6.513   3.448   3.397
 6862TIP3    H120529   6.426   3.459   3.440
 6862TIP3    H220530   6.566   3.410   3.468
 6863TIP3   OH220531   7.282   2.715   4.676
 6863TIP3    H120532   7.200   2.724   4.626
 6863TIP3    H220533   7.299   2.619   4.667
 6864TIP3   OH220534   5.880   3.122   4.699
 6864TIP3    H120535   5.929   3.105   4.782
 6864TIP3    H220536   5.805   3.059   4.705
 6865TIP3   OH220537   6.278   1.946   4.487
 6865TIP3    H120538   6.189   1.915   4.459
 6865TIP3    H220539   6.252   2.026   4.535
 6866TIP3   OH220540   6.814   2.060   4.681
 6866TIP3    H120541   6.883   2.032   4.744
 6866TIP3    H220542   6.730   2.039   4.729
 6867TIP3   OH220543   7.050   2.489   4.598
 6867TIP3    H120544   7.000   2.487   4.683
 6867TIP3    H220545   7.026   2.576   4.562
 6868TIP3   OH220546   6.711   2.617   3.154
 6868TIP3    H120547   6.677   2.593   3.065
 6868TIP3    H220548   6.795   2.661   3.130
 6869TIP3   OH220549   6.423   1.993   3.457
 6869TIP3    H120550   6.390   1.991   3.549
 6869TIP3    H220551   6.384   1.910   3.423
 6870TIP3   OH220552   6.211   2.461   4.504
 6870TIP3    H120553   6.160   2.480   4.585
 6870TIP3    H220554   6.195   2.542   4.452
 6871TIP3   OH220555   6.094   2.348   4.018
 6871TIP3    H120556   6.001   2.321   4.036
 6871TIP3    H220557   6.106   2.307   3.929
 6872TIP3   OH220558   6.584   2.433   3.748
 6872TIP3    H120559   6.533   2.504   3.704
 6872TIP3    H220560   6.639   2.400   3.674
 6873TIP3   OH220561   6.759   2.709   4.832
 6873TIP3    H120562   6.736   2.636   4.893
 6873TIP3    H220563   6.853   2.722   4.853
 6874TIP3   OH220564   6.741   2.459   3.984
 6874TIP3    H120565   6.679   2.487   3.913
 6874TIP3    H220566   6.776   2.379   3.940
 6875TIP3   OH220567   6.031   2.489   4.712
 6875TIP3    H120568   6.055   2.553   4.781
 6875TIP3    H220569   6.017   2.407   4.764
 6876TIP3   OH220570   6.080   1.968   3.423
 6876TIP3    H120571   6.070   1.966   3.520
 6876TIP3    H220572   6.002   2.021   3.397
 6877TIP3   OH220573   5.623   2.010   4.294
 6877TIP3    H120574   5.697   2.043   4.348
 6877TIP3    H220575   5.666   1.980   4.213
 6878TIP3   OH220576   5.589   1.991   3.811
 6878TIP3    H120577   5.635   2.030   3.734
 6878TIP3    H220578   5.528   2.065   3.833
 6879TIP3   OH220579   6.752   2.706   4.406
 6879TIP3    H120580   6.785   2.634   4.346
 6879TIP3    H220581   6.722   2.652   4.482
 6880TIP3   OH220582   6.425   2.168   4.078
 6880TIP3    H120583   6.344   2.167   4.133
 6880TIP3    H220584   6.494   2.163   4.146
 6881TIP3   OH220585   5.856   2.227   4.086
 6881TIP3    H120586   5.761   2.234   4.058
 6881TIP3    H220587   5.879   2.135   4.063
 6882TIP3   OH220588   6.122   2.220   3.777
 6882TIP3    H120589   6.216   2.236   3.756
 6882TIP3    H220590   6.075   2.243   3.694
 6883TIP3   OH220591   6.913   2.245   4.282
 6883TIP3    H120592   6.880   2.258   4.374
 6883TIP3    H220593   6.846   2.185   4.247
 6884TIP3   OH220594   5.970   2.255   3.553
 6884TIP3    H120595   5.898   2.210   3.505
 6884TIP3    H220596   6.021   2.292   3.479
 6885TIP3   OH220597   7.086   3.934   4.502
 6885TIP3    H120598   7.083   3.958   4.407
 6885TIP3    H220599   7.165   3.982   4.532
 6886TIP3   OH220600   6.040   3.044   4.921
 6886TIP3    H120601   6.120   3.074   4.969
 6886TIP3    H220602   5.975   3.042   4.993
 6887TIP3   OH220603   6.504   2.499   4.177
 6887TIP3    H120604   6.577   2.458   4.128
 6887TIP3    H220605   6.510   2.455   4.264
 6888TIP3   OH220606   6.024   1.984   4.059
 6888TIP3    H120607   5.988   1.906   4.107
 6888TIP3    H220608   6.071   1.942   3.986
 6889TIP3   OH220609   6.480   2.397   4.464
 6889TIP3    H120610   6.390   2.431   4.480
 6889TIP3    H220611   6.537   2.458   4.516
 6890TIP3   OH220612   6.218   2.784   3.561
 6890TIP3    H120613   6.145   2.719   3.549
 6890TIP3    H220614   6.198   2.818   3.651
 6891TIP3   OH220615   7.116   3.021   4.188
 6891TIP3    H120616   7.140   3.071   4.107
 6891TIP3    H220617   7.031   2.979   4.162
 6892TIP3   OH220618   6.675   2.096   3.426
 6892TIP3    H120619   6.578   2.077   3.435
 6892TIP3    H220620   6.682   2.190   3.451
 6893TIP3   OH220621   6.616   3.103   4.558
 6893TIP3    H120622   6.643   3.084   4.649
 6893TIP3    H220623   6.578   3.193   4.565
 6894TIP3   OH220624   6.743   2.345   3.529
 6894TIP3    H120625   6.839   2.351   3.544
 6894TIP3    H220626   6.724   2.425   3.476
 6895TIP3   OH220627   5.912   2.809   4.236
 6895TIP3    H120628   5.950   2.780   4.150
 6895TIP3    H220629   5.952   2.747   4.298
 6896TIP3   OH220630   6.363   2.934   3.384
 6896TIP3    H120631   6.315   3.020   3.390
 6896TIP3    H220632   6.308   2.878   3.444
 6897TIP3   OH220633   5.792   2.725   4.849
 6897TIP3    H120634   5.806   2.710   4.945
 6897TIP3    H220635   5.721   2.661   4.830
 6898TIP3   OH220636   6.517   2.843   4.871
 6898TIP3    H120637   6.456   2.784   4.824
 6898TIP3    H220638   6.604   2.808   4.841
 6899TIP3   OH220639   6.776   3.364   4.456
 6899TIP3    H120640   6.680   3.362   4.468
 6899TIP3    H220641   6.803   3.417   4.534
 6900TIP3   OH220642   7.184   2.437   3.363
 6900TIP3    H120643   7.122   2.392   3.300
 6900TIP3    H220644   7.181   2.526   3.322
 6901TIP3   OH220645   7.406   3.296   4.442
 6901TIP3    H120646   7.308   3.289   4.434
 6901TIP3    H220647   7.432   3.265   4.353
 6902TIP3   OH220648   6.888   3.255   3.273
 6902TIP3    H120649   6.861   3.185   3.334
 6902TIP3    H220650   6.900   3.207   3.189
 6903TIP3   OH220651   6.882   2.884   4.105
 6903TIP3    H120652   6.789   2.859   4.119
 6903TIP3    H220653   6.916   2.804   4.061
 6904TIP3   OH220654   6.010   3.112   3.862
 6904TIP3    H120655   6.006   3.193   3.808
 6904TIP3    H220656   5.916   3.094   3.876
 6905TIP3   OH220657   5.576   2.416   3.568
 6905TIP3    H120658   5.620   2.500   3.589
 6905TIP3    H220659   5.498   2.420   3.628
 6906TIP3   OH220660   6.145   2.876   3.804
 6906TIP3    H120661   6.110   2.966   3.824
 6906TIP3    H220662   6.109   2.826   3.880
 6907TIP3   OH220663   6.282   3.454   4.330
 6907TIP3    H120664   6.323   3.528   4.280
 6907TIP3    H220665   6.358   3.418   4.377
 6908TIP3   OH220666   5.929   3.350   3.712
 6908TIP3    H120667   5.843   3.353   3.760
 6908TIP3    H220668   5.956   3.444   3.715
 6909TIP3   OH220669   6.667   3.091   4.290
 6909TIP3    H120670   6.657   3.088   4.388
 6909TIP3    H220671   6.745   3.036   4.278
 6910TIP3   OH220672   6.644   2.985   3.173
 6910TIP3    H120673   6.698   2.959   3.252
 6910TIP3    H220674   6.557   2.955   3.202
 6911TIP3   OH220675   6.916   3.621   4.340
 6911TIP3    H120676   6.837   3.565   4.333
 6911TIP3    H220677   6.901   3.685   4.268
 6912TIP3   OH220678   6.982   3.456   2.991
 6912TIP3    H120679   7.019   3.529   2.940
 6912TIP3    H220680   6.902   3.500   3.026
 6913TIP3   OH220681   6.000   2.234   4.856
 6913TIP3    H120682   5.903   2.237   4.868
 6913TIP3    H220683   6.026   2.175   4.928
 6914TIP3   OH220684   6.805   2.915   3.387
 6914TIP3    H120685   6.795   2.849   3.458
 6914TIP3    H220686   6.902   2.913   3.375
 6915TIP3   OH220687   5.720   3.318   4.489
 6915TIP3    H120688   5.770   3.243   4.524
 6915TIP3    H220689   5.748   3.389   4.547
 6916TIP3   OH220690   6.007   2.963   3.172
 6916TIP3    H120691   6.020   2.871   3.145
 6916TIP3    H220692   5.988   2.952   3.268
 6917TIP3   OH220693   5.953   2.969   3.444
 6917TIP3    H120694   6.023   2.940   3.504
 6917TIP3    H220695   5.958   3.067   3.453
 6918TIP3   OH220696   5.686   2.660   3.650
 6918TIP3    H120697   5.620   2.705   3.706
 6918TIP3    H220698   5.699   2.729   3.581
 6919TIP3   OH220699   6.840   2.297   4.542
 6919TIP3    H120700   6.922   2.335   4.579
 6919TIP3    H220701   6.827   2.216   4.595
 6920TIP3   OH220702   6.722   2.045   3.708
 6920TIP3    H120703   6.707   2.069   3.614
 6920TIP3    H220704   6.761   2.128   3.744
 6921TIP3   OH220705   6.221   3.164   3.394
 6921TIP3    H120706   6.134   3.191   3.429
 6921TIP3    H220707   6.234   3.232   3.326
 6922TIP3   OH220708   6.406   2.229   3.808
 6922TIP3    H120709   6.470   2.301   3.791
 6922TIP3    H220710   6.412   2.220   3.906
 6923TIP3   OH220711   6.678   2.545   4.613
 6923TIP3    H120712   6.702   2.596   4.693
 6923TIP3    H220713   6.732   2.464   4.624
 6924TIP3   OH220714   6.551   1.951   3.909
 6924TIP3    H120715   6.544   2.028   3.968
 6924TIP3    H220716   6.613   1.985   3.841
 6925TIP3   OH220717   5.967   3.243   3.461
 6925TIP3    H120718   5.934   3.314   3.402
 6925TIP3    H220719   5.949   3.281   3.550
 6926TIP3   OH220720   6.064   1.954   3.699
 6926TIP3    H120721   6.061   2.044   3.736
 6926TIP3    H220722   6.160   1.937   3.707
 6927TIP3   OH220723   7.317   2.447   4.597
 6927TIP3    H120724   7.219   2.446   4.603
 6927TIP3    H220725   7.328   2.401   4.512
 6928TIP3   OH220726   6.968   2.641   3.984
 6928TIP3    H120727   6.892   2.581   3.996
 6928TIP3    H220728   7.039   2.594   4.032
 6929TIP3   OH220729   5.682   2.865   3.454
 6929TIP3    H120730   5.749   2.935   3.463
 6929TIP3    H220731   5.727   2.809   3.387
 6930TIP3   OH220732   5.624   2.145   3.586
 6930TIP3    H120733   5.626   2.243   3.585
 6930TIP3    H220734   5.540   2.126   3.544
 6931TIP3   OH220735   6.937   3.599   3.931
 6931TIP3    H120736   6.895   3.645   3.855
 6931TIP3    H220737   7.031   3.617   3.911
 6932TIP3   OH220738   6.014   1.865   4.458
 6932TIP3    H120739   5.983   1.831   4.372
 6932TIP3    H220740   6.003   1.787   4.516
 6933TIP3   OH220741   5.543   3.076   3.840
 6933TIP3    H120742   5.483   3.115   3.905
 6933TIP3    H220743   5.512   3.120   3.758
 6934TIP3   OH220744   5.710   3.630   4.912
 6934TIP3    H120745   5.797   3.627   4.958
 6934TIP3    H220746   5.688   3.535   4.910
 6935TIP3   OH220747   6.191   3.586   4.957
 6935TIP3    H120748   6.285   3.564   4.962
 6935TIP3    H220749   6.162   3.528   4.885
 6936TIP3   OH220750   6.172   3.165   3.085
 6936TIP3    H120751   6.116   3.092   3.122
 6936TIP3    H220752   6.247   3.113   3.050
 6937TIP3   OH220753   6.826   3.499   4.692
 6937TIP3    H120754   6.821   3.428   4.760
 6937TIP3    H220755   6.905   3.549   4.721
 6938TIP3   OH220756   6.606   3.205   2.998
 6938TIP3    H120757   6.647   3.139   3.057
 6938TIP3    H220758   6.665   3.202   2.919
 6939TIP3   OH220759   5.839   3.034   5.112
 6939TIP3    H120760   5.856   2.938   5.117
 6939TIP3    H220761   5.752   3.036   5.068
 6940TIP3   OH220762   5.819   2.680   3.307
 6940TIP3    H120763   5.875   2.649   3.380
 6940TIP3    H220764   5.886   2.685   3.235
 6941TIP3   OH220765   6.446   3.119   4.886
 6941TIP3    H120766   6.404   3.138   4.800
 6941TIP3    H220767   6.477   3.027   4.876
 6942TIP3   OH220768   6.331   2.881   3.114
 6942TIP3    H120769   6.332   2.893   3.211
 6942TIP3    H220770   6.331   2.783   3.109
 6943TIP3   OH220771   6.940   3.130   4.494
 6943TIP3    H120772   7.015   3.173   4.449
 6943TIP3    H220773   6.869   3.196   4.479
 6944TIP3   OH220774   5.959   2.771   5.097
 6944TIP3    H120775   6.033   2.716   5.070
 6944TIP3    H220776   5.987   2.802   5.185
 6945TIP3   OH220777   6.023   2.588   3.526
 6945TIP3    H120778   5.996   2.549   3.611
 6945TIP3    H220779   6.060   2.511   3.478
 6946TIP3   OH220780   6.296   2.653   4.758
 6946TIP3    H120781   6.216   2.710   4.759
 6946TIP3    H220782   6.344   2.686   4.679
 6947TIP3   OH220783   6.127   2.382   3.368
 6947TIP3    H120784   6.101   2.388   3.273
 6947TIP3    H220785   6.225   2.387   3.360
 6948TIP3   OH220786   6.812   3.053   4.889
 6948TIP3    H120787   6.889   3.023   4.840
 6948TIP3    H220788   6.807   2.987   4.961
 6949TIP3   OH220789   6.946   2.710   3.034
 6949TIP3    H120790   6.925   2.665   2.950
 6949TIP3    H220791   6.913   2.801   3.012
 6950TIP3   OH220792   6.418   2.441   4.881
 6950TIP3    H120793   6.418   2.362   4.824
 6950TIP3    H220794   6.374   2.508   4.824
 6951TIP3   OH220795   6.420   2.228   4.690
 6951TIP3    H120796   6.448   2.267   4.605
 6951TIP3    H220797   6.327   2.204   4.671
 6952TIP3   OH220798   6.445   2.762   4.563
 6952TIP3    H120799   6.529   2.772   4.518
 6952TIP3    H220800   6.388   2.828   4.517
 6953TIP3   OH220801   7.028   2.727   4.943
 6953TIP3    H120802   7.074   2.642   4.951
 6953TIP3    H220803   7.098   2.784   4.906
 6954TIP3   OH220804   7.068   2.982   4.680
 6954TIP3    H120805   7.011   3.037   4.621
 6954TIP3    H220806   7.156   3.002   4.641
 6955TIP3   OH220807   6.298   2.547   5.115
 6955TIP3    H120808   6.229   2.479   5.130
 6955TIP3    H220809   6.330   2.523   5.026
 6956TIP3   OH220810   6.552   1.990   4.759
 6956TIP3    H120811   6.503   2.071   4.736
 6956TIP3    H220812   6.483   1.921   4.747
 6957TIP3   OH220813   6.677   2.492   4.974
 6957TIP3    H120814   6.662   2.478   5.069
 6957TIP3    H220815   6.588   2.468   4.940
 6958TIP3   OH220816   6.918   2.445   4.829
 6958TIP3    H120817   6.842   2.444   4.891
 6958TIP3    H220818   6.991   2.413   4.886
 6959TIP3   OH220819   7.146   2.385   4.980
 6959TIP3    H120820   7.160   2.289   4.995
 6959TIP3    H220821   7.143   2.421   5.071
 6960TIP3   OH220822   6.135   2.328   5.168
 6960TIP3    H120823   6.139   2.237   5.134
 6960TIP3    H220824   6.172   2.315   5.258
 6961TIP3   OH220825   6.645   2.000   5.017
 6961TIP3    H120826   6.712   1.928   5.011
 6961TIP3    H220827   6.606   1.994   4.928
 6962TIP3   OH220828   6.712   2.213   5.175
 6962TIP3    H120829   6.691   2.142   5.111
 6962TIP3    H220830   6.634   2.272   5.168
 6963TIP3   OH220831   5.939   3.464   3.284
 6963TIP3    H120832   6.031   3.443   3.258
 6963TIP3    H220833   5.905   3.498   3.200
 6964TIP3   OH220834   5.413   2.825   3.486
 6964TIP3    H120835   5.508   2.846   3.475
 6964TIP3    H220836   5.407   2.736   3.445
 6965TIP3   OH220837   5.359   3.424   3.878
 6965TIP3    H120838   5.272   3.385   3.854
 6965TIP3    H220839   5.377   3.375   3.960
 6966TIP3   OH220840   5.474   3.279   4.090
 6966TIP3    H120841   5.448   3.213   4.156
 6966TIP3    H220842   5.518   3.345   4.146
 6967TIP3   OH220843   7.193   3.684   3.892
 6967TIP3    H120844   7.217   3.718   3.980
 6967TIP3    H220845   7.254   3.732   3.834
 6968TIP3   OH220846   7.220   3.707   4.174
 6968TIP3    H120847   7.175   3.620   4.170
 6968TIP3    H220848   7.294   3.684   4.232
 6969TIP3   OH220849   7.267   3.385   4.746
 6969TIP3    H120850   7.195   3.394   4.812
 6969TIP3    H220851   7.309   3.473   4.751
 6970TIP3   OH220852   7.084   2.897   3.365
 6970TIP3    H120853   7.151   2.962   3.336
 6970TIP3    H220854   7.128   2.859   3.444
 6971TIP3   OH220855   7.211   2.765   3.570
 6971TIP3    H120856   7.144   2.723   3.628
 6971TIP3    H220857   7.275   2.802   3.634
 6972TIP3   OH220858   7.267   3.159   4.002
 6972TIP3    H120859   7.320   3.092   3.955
 6972TIP3    H220860   7.261   3.231   3.936
 6973TIP3   OH220861   7.095   3.457   4.195
 6973TIP3    H120862   7.023   3.499   4.247
 6973TIP3    H220863   7.045   3.411   4.125
 6974TIP3   OH220864   7.148   2.673   3.215
 6974TIP3    H120865   7.076   2.675   3.148
 6974TIP3    H220866   7.121   2.749   3.270
 6975TIP3   OH220867   7.018   2.346   3.168
 6975TIP3    H120868   6.974   2.381   3.090
 6975TIP3    H220869   6.995   2.250   3.161
 6976TIP3   OH220870   7.023   2.623   3.714
 6976TIP3    H120871   7.031   2.526   3.708
 6976TIP3    H220872   7.009   2.636   3.810
 6977TIP3   OH220873   5.649   2.692   4.464
 6977TIP3    H120874   5.646   2.661   4.371
 6977TIP3    H220875   5.747   2.695   4.479
 6978TIP3   OH220876   7.314   3.047   4.574
 6978TIP3    H120877   7.385   2.980   4.562
 6978TIP3    H220878   7.339   3.115   4.509
 6979TIP3   OH220879   7.498   2.850   4.583
 6979TIP3    H120880   7.423   2.800   4.623
 6979TIP3    H220881   7.570   2.786   4.601
 6980TIP3   OH220882   6.962   2.080   3.153
 6980TIP3    H120883   7.036   2.048   3.209
 6980TIP3    H220884   6.888   2.021   3.176
 6981TIP3   OH220885   7.021   2.339   3.607
 6981TIP3    H120886   7.062   2.251   3.623
 6981TIP3    H220887   7.079   2.372   3.536
 6982TIP3   OH220888   7.180   2.510   4.104
 6982TIP3    H120889   7.266   2.535   4.063
 6982TIP3    H220890   7.195   2.547   4.194
 6983TIP3   OH220891   7.252   2.657   4.336
 6983TIP3    H120892   7.174   2.690   4.384
 6983TIP3    H220893   7.284   2.738   4.291
 6984TIP3   OH220894   5.868   2.381   5.139
 6984TIP3    H120895   5.966   2.374   5.141
 6984TIP3    H220896   5.844   2.295   5.177
 6985TIP3   OH220897   7.704   2.250   4.891
 6985TIP3    H120898   7.761   2.182   4.848
 6985TIP3    H220899   7.674   2.302   4.814
 6986TIP3   OH220900   7.129   2.089   3.647
 6986TIP3    H120901   7.178   2.072   3.730
 6986TIP3    H220902   7.068   2.012   3.646
 6987TIP3   OH220903   5.830   2.074   4.466
 6987TIP3    H120904   5.892   1.999   4.476
 6987TIP3    H220905   5.892   2.148   4.459
 6988TIP3   OH220906   5.630   2.346   4.540
 6988TIP3    H120907   5.680   2.342   4.456
 6988TIP3    H220908   5.657   2.433   4.573
 6989TIP3   OH220909   7.571   2.385   4.696
 6989TIP3    H120910   7.484   2.425   4.711
 6989TIP3    H220911   7.544   2.310   4.638
 6990TIP3   OH220912   7.207   2.021   3.281
 6990TIP3    H120913   7.248   1.950   3.227
 6990TIP3    H220914   7.274   2.092   3.278
 6991TIP3   OH220915   5.616   1.849   4.040
 6991TIP3    H120916   5.523   1.846   4.069
 6991TIP3    H220917   5.610   1.908   3.962
 6992TIP3   OH220918   6.771   3.556   3.546
 6992TIP3    H120919   6.827   3.546   3.466
 6992TIP3    H220920   6.822   3.622   3.596
 6993TIP3   OH220921   5.836   1.931   4.856
 6993TIP3    H120922   5.784   1.925   4.938
 6993TIP3    H220923   5.770   1.969   4.795
 6994TIP3   OH220924   5.875   3.361   4.932
 6994TIP3    H120925   5.782   3.335   4.914
 6994TIP3    H220926   5.884   3.338   5.025
 6995TIP3   OH220927   6.056   3.394   4.482
 6995TIP3    H120928   6.006   3.469   4.442
 6995TIP3    H220929   6.141   3.408   4.435
 6996TIP3   OH220930   6.497   3.635   4.618
 6996TIP3    H120931   6.539   3.635   4.707
 6996TIP3    H220932   6.562   3.686   4.566
 6997TIP3   OH220933   6.675   3.789   4.479
 6997TIP3    H120934   6.746   3.738   4.435
 6997TIP3    H220935   6.728   3.846   4.538
 6998TIP3   OH220936   7.471   2.146   4.578
 6998TIP3    H120937   7.381   2.134   4.544
 6998TIP3    H220938   7.507   2.055   4.567
 6999TIP3   OH220939   5.731   3.648   4.505
 6999TIP3    H120940   5.642   3.680   4.479
 6999TIP3    H220941   5.739   3.689   4.592
 7000TIP3   OH220942   5.966   3.628   4.361
 7000TIP3    H120943   5.880   3.640   4.407
 7000TIP3    H220944   5.944   3.659   4.271
 7001TIP3   OH220945   6.392   3.654   4.160
 7001TIP3    H120946   6.320   3.672   4.097
 7001TIP3    H220947   6.404   3.742   4.201
 7002TIP3   OH220948   6.661   3.594   4.213
 7002TIP3    H120949   6.567   3.611   4.193
 7002TIP3    H220950   6.704   3.669   4.168
 7003TIP3   OH220951   6.867   3.785   4.126
 7003TIP3    H120952   6.852   3.870   4.079
 7003TIP3    H220953   6.893   3.726   4.051
 7004TIP3   OH220954   5.641   3.445   4.249
 7004TIP3    H120955   5.668   3.416   4.339
 7004TIP3    H220956   5.713   3.402   4.197
 7005TIP3   OH220957   5.836   3.315   4.108
 7005TIP3    H120958   5.850   3.231   4.157
 7005TIP3    H220959   5.927   3.350   4.105
 7006TIP3   OH220960   6.105   3.407   4.110
 7006TIP3    H120961   6.133   3.314   4.100
 7006TIP3    H220962   6.150   3.429   4.193
 7007TIP3   OH220963   6.676   2.063   4.196
 7007TIP3    H120964   6.634   1.992   4.248
 7007TIP3    H220965   6.750   2.017   4.152
 7008TIP3   OH220966   7.197   1.944   4.098
 7008TIP3    H120967   7.234   1.996   4.024
 7008TIP3    H220968   7.102   1.965   4.093
 7009TIP3   OH220969   7.294   2.044   3.863
 7009TIP3    H120970   7.369   1.992   3.826
 7009TIP3    H220971   7.329   2.135   3.849
 7010TIP3   OH220972   5.925   1.771   4.211
 7010TIP3    H120973   5.833   1.738   4.214
 7010TIP3    H220974   5.974   1.686   4.208
 7011TIP3   OH220975   5.713   1.643   3.861
 7011TIP3    H120976   5.742   1.701   3.788
 7011TIP3    H220977   5.685   1.709   3.928
 7012TIP3   OH220978   6.371   1.804   4.093
 7012TIP3    H120979   6.428   1.853   4.031
 7012TIP3    H220980   6.397   1.841   4.178
 7013TIP3   OH220981   6.912   1.952   4.076
 7013TIP3    H120982   6.914   1.912   3.989
 7013TIP3    H220983   6.902   1.873   4.134
 7014TIP3   OH220984   6.946   1.876   3.639
 7014TIP3    H120985   6.860   1.920   3.655
 7014TIP3    H220986   6.932   1.790   3.684
 7015TIP3   OH220987   5.433   3.210   3.635
 7015TIP3    H120988   5.345   3.183   3.602
 7015TIP3    H220989   5.417   3.305   3.647
 7016TIP3   OH220990   5.831   1.802   3.622
 7016TIP3    H120991   5.880   1.739   3.565
 7016TIP3    H220992   5.905   1.855   3.658
 7017TIP3   OH220993   6.341   1.979   3.721
 7017TIP3    H120994   6.401   1.932   3.782
 7017TIP3    H220995   6.361   2.071   3.747
 7018TIP3   OH220996   6.200   3.400   3.221
 7018TIP3    H120997   6.289   3.421   3.185
 7018TIP3    H220998   6.178   3.325   3.161
 7019TIP3   OH220999   6.923   3.522   3.316
 7019TIP3    H121000   6.914   3.424   3.304
 7019TIP3    H221001   6.877   3.554   3.235
 7020TIP3   OH221002   6.133   2.054   5.105
 7020TIP3    H121003   6.098   1.982   5.161
 7020TIP3    H221004   6.227   2.053   5.131
 7021TIP3   OH221005   6.383   2.052   5.222
 7021TIP3    H121006   6.467   2.025   5.181
 7021TIP3    H221007   6.370   1.981   5.288
 7022TIP3   OH221008   5.503   3.239   3.277
 7022TIP3    H121009   5.490   3.262   3.370
 7022TIP3    H221010   5.592   3.197   3.277
 7023TIP3   OH221011   7.209   2.115   5.009
 7023TIP3    H121012   7.228   2.083   5.100
 7023TIP3    H221013   7.297   2.109   4.967
 7024TIP3   OH221014   7.145   3.664   4.502
 7024TIP3    H121015   7.066   3.633   4.452
 7024TIP3    H221016   7.126   3.760   4.507
 7025TIP3   OH221017   7.709   2.928   4.014
 7025TIP3    H121018   7.734   2.860   4.078
 7025TIP3    H221019   7.786   2.986   4.016
 7026TIP3   OH221020   7.681   3.344   3.738
 7026TIP3    H121021   7.673   3.247   3.739
 7026TIP3    H221022   7.778   3.353   3.733
 7027TIP3   OH221023   7.388   2.545   3.520
 7027TIP3    H121024   7.338   2.627   3.538
 7027TIP3    H221025   7.318   2.491   3.480
 7028TIP3   OH221026   7.448   2.832   3.700
 7028TIP3    H121027   7.497   2.754   3.735
 7028TIP3    H221028   7.505   2.858   3.626
 7029TIP3   OH221029   8.313   3.766   3.328
 7029TIP3    H121030   8.408   3.741   3.330
 7029TIP3    H221031   8.295   3.776   3.423
 7030TIP3   OH221032   8.214   3.253   3.698
 7030TIP3    H121033   8.225   3.220   3.609
 7030TIP3    H221034   8.294   3.308   3.712
 7031TIP3   OH221035   7.934   2.426   3.706
 7031TIP3    H121036   7.950   2.491   3.636
 7031TIP3    H221037   7.902   2.350   3.655
 7032TIP3   OH221038   7.596   2.626   3.801
 7032TIP3    H121039   7.677   2.604   3.852
 7032TIP3    H221040   7.612   2.571   3.721
 7033TIP3   OH221041   8.021   2.826   3.593
 7033TIP3    H121042   8.113   2.793   3.607
 7033TIP3    H221043   7.978   2.743   3.563
 7034TIP3   OH221044   7.961   2.415   4.139
 7034TIP3    H121045   7.902   2.446   4.067
 7034TIP3    H221046   7.905   2.433   4.217
 7035TIP3   OH221047   8.068   3.181   3.930
 7035TIP3    H121048   8.003   3.245   3.966
 7035TIP3    H221049   8.109   3.233   3.858
 7036TIP3   OH221050   7.822   2.526   3.926
 7036TIP3    H121051   7.889   2.596   3.945
 7036TIP3    H221052   7.866   2.483   3.848
 7037TIP3   OH221053   7.895   3.377   4.020
 7037TIP3    H121054   7.868   3.464   3.985
 7037TIP3    H221055   7.816   3.358   4.075
 7038TIP3   OH221056   7.286   3.069   3.257
 7038TIP3    H121057   7.243   3.095   3.173
 7038TIP3    H221058   7.316   3.155   3.292
 7039TIP3   OH221059   7.814   2.971   3.484
 7039TIP3    H121060   7.774   2.912   3.416
 7039TIP3    H221061   7.890   2.917   3.515
 7040TIP3   OH221062   7.947   3.386   3.630
 7040TIP3    H121063   7.921   3.348   3.544
 7040TIP3    H221064   8.030   3.341   3.651
 7041TIP3   OH221065   7.959   2.940   3.841
 7041TIP3    H121066   7.986   2.915   3.750
 7041TIP3    H221067   8.000   3.028   3.854
 7042TIP3   OH221068   8.094   3.492   4.174
 7042TIP3    H121069   8.034   3.557   4.216
 7042TIP3    H221070   8.030   3.441   4.121
 7043TIP3   OH221071   7.846   3.063   4.264
 7043TIP3    H121072   7.848   3.149   4.312
 7043TIP3    H221073   7.753   3.036   4.281
 7044TIP3   OH221074   8.195   3.544   3.198
 7044TIP3    H121075   8.216   3.633   3.232
 7044TIP3    H221076   8.127   3.562   3.132
 7045TIP3   OH221077   7.891   3.663   4.253
 7045TIP3    H121078   7.855   3.664   4.162
 7045TIP3    H221079   7.811   3.642   4.307
 7046TIP3   OH221080   7.690   2.812   3.288
 7046TIP3    H121081   7.621   2.854   3.234
 7046TIP3    H221082   7.651   2.726   3.308
 7047TIP3   OH221083   7.471   3.197   4.199
 7047TIP3    H121084   7.403   3.175   4.131
 7047TIP3    H221085   7.507   3.109   4.222
 7048TIP3   OH221086   7.324   3.389   3.830
 7048TIP3    H121087   7.421   3.386   3.824
 7048TIP3    H221088   7.311   3.468   3.885
 7049TIP3   OH221089   8.282   3.611   4.014
 7049TIP3    H121090   8.288   3.703   4.048
 7049TIP3    H221091   8.213   3.574   4.073
 7050TIP3   OH221092   8.061   3.753   2.973
 7050TIP3    H121093   8.014   3.735   2.890
 7050TIP3    H221094   8.026   3.840   2.998
 7051TIP3   OH221095   7.494   3.603   3.358
 7051TIP3    H121096   7.540   3.594   3.445
 7051TIP3    H221097   7.440   3.522   3.358
 7052TIP3   OH221098   8.326   3.715   2.908
 7052TIP3    H121099   8.233   3.730   2.934
 7052TIP3    H221100   8.339   3.622   2.932
 7053TIP3   OH221101   7.677   3.378   4.184
 7053TIP3    H121102   7.724   3.363   4.268
 7053TIP3    H221103   7.602   3.315   4.191
 7054TIP3   OH221104   8.056   2.191   3.996
 7054TIP3    H121105   7.968   2.171   3.959
 7054TIP3    H221106   8.042   2.279   4.032
 7055TIP3   OH221107   8.003   2.723   3.995
 7055TIP3    H121108   7.948   2.739   4.074
 7055TIP3    H221109   7.983   2.802   3.940
 7056TIP3   OH221110   7.891   2.605   3.498
 7056TIP3    H121111   7.801   2.573   3.523
 7056TIP3    H221112   7.903   2.562   3.411
 7057TIP3   OH221113   7.815   2.744   4.201
 7057TIP3    H121114   7.867   2.796   4.264
 7057TIP3    H221115   7.804   2.660   4.249
 7058TIP3   OH221116   7.860   2.180   2.895
 7058TIP3    H121117   7.851   2.200   2.990
 7058TIP3    H221118   7.804   2.248   2.856
 7059TIP3   OH221119   7.420   2.267   3.778
 7059TIP3    H121120   7.491   2.301   3.836
 7059TIP3    H221121   7.467   2.233   3.701
 7060TIP3   OH221122   7.385   2.248   3.299
 7060TIP3    H121123   7.430   2.288   3.221
 7060TIP3    H221124   7.324   2.321   3.321
 7061TIP3   OH221125   7.652   2.486   3.568
 7061TIP3    H121126   7.557   2.489   3.543
 7061TIP3    H221127   7.676   2.393   3.553
 7062TIP3   OH221128   7.929   2.481   3.254
 7062TIP3    H121129   8.012   2.492   3.206
 7062TIP3    H221130   7.863   2.498   3.182
 7063TIP3   OH221131   7.766   2.508   3.041
 7063TIP3    H121132   7.697   2.462   2.990
 7063TIP3    H221133   7.820   2.544   2.967
 7064TIP3   OH221134   7.837   3.303   4.409
 7064TIP3    H121135   7.917   3.332   4.458
 7064TIP3    H221136   7.772   3.301   4.481
 7065TIP3   OH221137   7.811   2.240   3.541
 7065TIP3    H121138   7.779   2.167   3.598
 7065TIP3    H221139   7.864   2.192   3.477
 7066TIP3   OH221140   8.272   2.649   3.994
 7066TIP3    H121141   8.179   2.674   3.977
 7066TIP3    H221142   8.316   2.734   4.007
 7067TIP3   OH221143   7.982   3.069   3.046
 7067TIP3    H121144   7.934   2.985   3.041
 7067TIP3    H221145   7.989   3.084   3.143
 7068TIP3   OH221146   8.380   3.335   4.073
 7068TIP3    H121147   8.407   3.321   4.164
 7068TIP3    H221148   8.354   3.429   4.073
 7069TIP3   OH221149   7.710   3.070   3.724
 7069TIP3    H121150   7.743   3.036   3.638
 7069TIP3    H221151   7.742   3.003   3.786
 7070TIP3   OH221152   8.125   3.188   2.845
 7070TIP3    H121153   8.097   3.279   2.871
 7070TIP3    H221154   8.090   3.137   2.921
 7071TIP3   OH221155   7.587   2.985   4.337
 7071TIP3    H121156   7.605   2.968   4.432
 7071TIP3    H221157   7.520   2.918   4.318
 7072TIP3   OH221158   8.315   3.100   4.355
 7072TIP3    H121159   8.259   3.051   4.293
 7072TIP3    H221160   8.400   3.055   4.342
 7073TIP3   OH221161   7.808   3.368   3.351
 7073TIP3    H121162   7.806   3.449   3.296
 7073TIP3    H221163   7.714   3.349   3.359
 7074TIP3   OH221164   7.372   2.672   3.055
 7074TIP3    H121165   7.416   2.756   3.076
 7074TIP3    H221166   7.294   2.676   3.115
 7075TIP3   OH221167   7.959   3.137   3.314
 7075TIP3    H121168   7.915   3.223   3.318
 7075TIP3    H221169   7.906   3.084   3.376
 7076TIP3   OH221170   8.076   3.707   3.818
 7076TIP3    H121171   8.111   3.785   3.770
 7076TIP3    H221172   8.154   3.678   3.868
 7077TIP3   OH221173   7.727   3.606   3.202
 7077TIP3    H121174   7.641   3.615   3.247
 7077TIP3    H221175   7.758   3.699   3.204
 7078TIP3   OH221176   7.794   2.494   4.347
 7078TIP3    H121177   7.697   2.492   4.356
 7078TIP3    H221178   7.821   2.431   4.415
 7079TIP3   OH221179   7.516   3.573   3.975
 7079TIP3    H121180   7.569   3.501   4.012
 7079TIP3    H221181   7.539   3.646   4.034
 7080TIP3   OH221182   7.801   3.217   2.661
 7080TIP3    H121183   7.805   3.124   2.634
 7080TIP3    H221184   7.783   3.209   2.757
 7081TIP3   OH221185   7.753   3.221   2.932
 7081TIP3    H121186   7.832   3.189   2.978
 7081TIP3    H221187   7.759   3.318   2.945
 7082TIP3   OH221188   7.483   2.916   3.136
 7082TIP3    H121189   7.416   2.961   3.192
 7082TIP3    H221190   7.497   2.985   3.068
 7083TIP3   OH221191   8.018   3.434   2.890
 7083TIP3    H121192   7.927   3.455   2.919
 7083TIP3    H221193   8.037   3.511   2.835
 7084TIP3   OH221194   7.758   3.497   2.948
 7084TIP3    H121195   7.725   3.567   2.887
 7084TIP3    H221196   7.742   3.540   3.035
 7085TIP3   OH221197   7.866   2.216   3.178
 7085TIP3    H121198   7.851   2.298   3.228
 7085TIP3    H221199   7.953   2.236   3.138
 7086TIP3   OH221200   7.480   3.121   2.940
 7086TIP3    H121201   7.549   3.189   2.951
 7086TIP3    H221202   7.524   3.066   2.871
 7087TIP3   OH221203   7.423   2.401   3.075
 7087TIP3    H121204   7.421   2.499   3.072
 7087TIP3    H221205   7.343   2.378   3.027
 7088TIP3   OH221206   7.790   2.124   3.947
 7088TIP3    H121207   7.777   2.086   3.858
 7088TIP3    H221208   7.791   2.045   4.004
 7089TIP3   OH221209   7.346   3.341   3.325
 7089TIP3    H121210   7.282   3.371   3.391
 7089TIP3    H221211   7.312   3.384   3.243
 7090TIP3   OH221212   7.508   3.887   4.398
 7090TIP3    H121213   7.593   3.888   4.446
 7090TIP3    H221214   7.487   3.792   4.398
 7091TIP3   OH221215   7.984   3.845   4.442
 7091TIP3    H121216   8.078   3.824   4.452
 7091TIP3    H221217   7.959   3.784   4.370
 7092TIP3   OH221218   7.962   3.418   2.572
 7092TIP3    H121219   7.901   3.350   2.607
 7092TIP3    H221220   8.047   3.377   2.593
 7093TIP3   OH221221   7.636   3.290   4.599
 7093TIP3    H121222   7.652   3.194   4.604
 7093TIP3    H221223   7.548   3.292   4.554
 7094TIP3   OH221224   7.620   2.937   2.791
 7094TIP3    H121225   7.673   2.907   2.867
 7094TIP3    H221226   7.690   2.942   2.723
 7095TIP3   OH221227   8.259   3.378   4.367
 7095TIP3    H121228   8.203   3.393   4.289
 7095TIP3    H221229   8.274   3.281   4.365
 7096TIP3   OH221230   8.110   3.120   2.587
 7096TIP3    H121231   8.127   3.152   2.679
 7096TIP3    H221232   8.035   3.061   2.606
 7097TIP3   OH221233   7.757   3.027   4.582
 7097TIP3    H121234   7.830   2.969   4.558
 7097TIP3    H221235   7.784   3.058   4.671
 7098TIP3   OH221236   7.820   2.841   3.010
 7098TIP3    H121237   7.791   2.800   3.094
 7098TIP3    H221238   7.862   2.766   2.964
 7099TIP3   OH221239   8.054   2.891   4.261
 7099TIP3    H121240   7.985   2.962   4.264
 7099TIP3    H221241   8.114   2.928   4.193
 7100TIP3   OH221242   7.927   2.632   2.853
 7100TIP3    H121243   7.889   2.640   2.763
 7100TIP3    H221244   8.020   2.611   2.830
 7101TIP3   OH221245   8.224   2.703   4.365
 7101TIP3    H121246   8.223   2.616   4.320
 7101TIP3    H221247   8.158   2.754   4.314
 7102TIP3   OH221248   8.224   2.477   4.198
 7102TIP3    H121249   8.234   2.523   4.112
 7102TIP3    H221250   8.137   2.434   4.185
 7103TIP3   OH221251   8.217   3.014   4.089
 7103TIP3    H121252   8.284   2.995   4.022
 7103TIP3    H221253   8.161   3.080   4.041
 7104TIP3   OH221254   8.096   2.807   4.599
 7104TIP3    H121255   8.028   2.737   4.613
 7104TIP3    H221256   8.130   2.784   4.510
 7105TIP3   OH221257   7.931   2.588   4.654
 7105TIP3    H121258   7.935   2.498   4.618
 7105TIP3    H221259   7.967   2.574   4.744
 7106TIP3   OH221260   7.721   3.701   2.761
 7106TIP3    H121261   7.817   3.697   2.748
 7106TIP3    H221262   7.696   3.753   2.683
 7107TIP3   OH221263   7.210   3.082   2.975
 7107TIP3    H121264   7.305   3.102   2.961
 7107TIP3    H221265   7.203   2.993   2.933
 7108TIP3   OH221266   7.127   3.693   3.392
 7108TIP3    H121267   7.059   3.632   3.354
 7108TIP3    H221268   7.170   3.633   3.457
 7109TIP3   OH221269   7.261   3.539   3.578
 7109TIP3    H121270   7.247   3.470   3.644
 7109TIP3    H221271   7.311   3.604   3.631
 7110TIP3   OH221272   7.444   2.952   3.950
 7110TIP3    H121273   7.442   2.918   3.858
 7110TIP3    H221274   7.542   2.952   3.966
 7111TIP3   OH221275   7.663   2.639   4.627
 7111TIP3    H121276   7.761   2.632   4.627
 7111TIP3    H221277   7.640   2.551   4.665
 7112TIP3   OH221278   7.618   2.336   3.959
 7112TIP3    H121279   7.677   2.257   3.963
 7112TIP3    H221280   7.684   2.407   3.954
 7113TIP3   OH221281   7.424   2.605   4.024
 7113TIP3    H121282   7.475   2.596   3.942
 7113TIP3    H221283   7.461   2.687   4.060
 7114TIP3   OH221284   7.411   2.101   3.524
 7114TIP3    H121285   7.319   2.101   3.556
 7114TIP3    H221286   7.407   2.163   3.448
 7115TIP3   OH221287   7.630   2.197   4.347
 7115TIP3    H121288   7.576   2.186   4.427
 7115TIP3    H221289   7.563   2.229   4.283
 7116TIP3   OH221290   7.672   3.615   4.418
 7116TIP3    H121291   7.578   3.591   4.402
 7116TIP3    H221292   7.681   3.598   4.512
 7117TIP3   OH221293   7.851   3.647   3.967
 7117TIP3    H121294   7.801   3.722   3.929
 7117TIP3    H221295   7.936   3.662   3.920
 7118TIP3   OH221296   8.281   3.875   4.106
 7118TIP3    H121297   8.328   3.882   4.192
 7118TIP3    H221298   8.331   3.936   4.049
 7119TIP3   OH221299   8.421   4.042   3.930
 7119TIP3    H121300   8.473   4.034   3.846
 7119TIP3    H221301   8.468   4.114   3.975
 7120TIP3   OH221302   7.527   3.905   3.992
 7120TIP3    H121303   7.437   3.935   3.968
 7120TIP3    H221304   7.538   3.950   4.077
 7121TIP3   OH221305   7.761   3.881   3.849
 7121TIP3    H121306   7.674   3.894   3.894
 7121TIP3    H221307   7.740   3.915   3.759
 7122TIP3   OH221308   8.161   3.918   3.650
 7122TIP3    H121309   8.087   3.931   3.587
 7122TIP3    H221310   8.173   4.009   3.684
 7123TIP3   OH221311   8.412   3.818   3.631
 7123TIP3    H121312   8.320   3.852   3.640
 7123TIP3    H221313   8.464   3.897   3.655
 7124TIP3   OH221314   7.437   3.699   3.734
 7124TIP3    H121315   7.463   3.670   3.825
 7124TIP3    H221316   7.509   3.656   3.683
 7125TIP3   OH221317   7.631   3.571   3.593
 7125TIP3    H121318   7.645   3.487   3.643
 7125TIP3    H221319   7.722   3.607   3.590
 7126TIP3   OH221320   7.898   3.665   3.597
 7126TIP3    H121321   7.925   3.572   3.586
 7126TIP3    H221322   7.945   3.686   3.680
 7127TIP3   OH221323   7.721   2.030   3.691
 7127TIP3    H121324   7.631   1.993   3.699
 7127TIP3    H221325   7.772   1.946   3.687
 7128TIP3   OH221326   7.510   1.901   3.337
 7128TIP3    H121327   7.538   1.963   3.268
 7128TIP3    H221328   7.482   1.962   3.408
 7129TIP3   OH221329   7.225   3.473   3.123
 7129TIP3    H121330   7.139   3.440   3.091
 7129TIP3    H221331   7.216   3.567   3.101
 7130TIP3   OH221332   7.624   2.060   3.113
 7130TIP3    H121333   7.668   2.001   3.049
 7130TIP3    H221334   7.699   2.114   3.144
 7131TIP3   OH221335   7.988   3.655   2.717
 7131TIP3    H121336   8.080   3.667   2.683
 7131TIP3    H221337   7.960   3.584   2.656
 7132TIP3   OH221338   7.921   2.312   4.585
 7132TIP3    H121339   7.888   2.240   4.641
 7132TIP3    H221340   8.016   2.313   4.612
 7133TIP3   OH221341   8.162   2.309   4.716
 7133TIP3    H121342   8.241   2.271   4.671
 7133TIP3    H221343   8.146   2.239   4.783
 7134TIP3   OH221344   7.301   3.493   2.764
 7134TIP3    H121345   7.303   3.516   2.858
 7134TIP3    H221346   7.389   3.452   2.750
 7135TIP3   OH221347   0.876   3.841   4.948
 7135TIP3    H121348   0.831   3.924   4.923
 7135TIP3    H221349   0.800   3.779   4.946
 7136TIP3   OH221350   0.185   3.708   5.671
 7136TIP3    H121351   0.171   3.649   5.747
 7136TIP3    H221352   0.254   3.767   5.702
 7137TIP3   OH221353   1.107   4.176   5.049
 7137TIP3    H121354   1.127   4.081   5.058
 7137TIP3    H221355   1.038   4.183   5.116
 7138TIP3   OH221356   0.144   4.109   5.361
 7138TIP3    H121357   0.122   4.015   5.379
 7138TIP3    H221358   0.221   4.118   5.418
 7139TIP3   OH221359  -0.084   3.616   5.341
 7139TIP3    H121360  -0.050   3.569   5.418
 7139TIP3    H221361  -0.029   3.694   5.340
 7140TIP3   OH221362   0.755   4.586   5.035
 7140TIP3    H121363   0.814   4.519   4.995
 7140TIP3    H221364   0.746   4.552   5.125
 7141TIP3   OH221365   0.657   4.051   5.386
 7141TIP3    H121366   0.682   3.955   5.381
 7141TIP3    H221367   0.747   4.085   5.403
 7142TIP3   OH221368   1.680   3.370   5.387
 7142TIP3    H121369   1.708   3.454   5.428
 7142TIP3    H221370   1.699   3.386   5.293
 7143TIP3   OH221371   0.417   3.210   5.384
 7143TIP3    H121372   0.399   3.284   5.322
 7143TIP3    H221373   0.368   3.138   5.340
 7144TIP3   OH221374   1.114   3.276   5.003
 7144TIP3    H121375   1.185   3.270   5.071
 7144TIP3    H221376   1.154   3.338   4.941
 7145TIP3   OH221377   0.049   3.414   5.495
 7145TIP3    H121378   0.130   3.405   5.548
 7145TIP3    H221379   0.078   3.374   5.411
 7146TIP3   OH221380   0.493   3.618   5.272
 7146TIP3    H121381   0.588   3.612   5.293
 7146TIP3    H221382   0.467   3.527   5.253
 7147TIP3   OH221383   1.753   3.585   5.550
 7147TIP3    H121384   1.665   3.626   5.534
 7147TIP3    H221385   1.753   3.584   5.647
 7148TIP3   OH221386   0.407   3.190   5.823
 7148TIP3    H121387   0.355   3.235   5.754
 7148TIP3    H221388   0.354   3.212   5.903
 7149TIP3   OH221389   0.760   4.056   4.823
 7149TIP3    H121390   0.715   4.026   4.743
 7149TIP3    H221391   0.710   4.139   4.842
 7150TIP3   OH221392   0.518   3.977   5.620
 7150TIP3    H121393   0.454   4.042   5.656
 7150TIP3    H221394   0.556   4.024   5.543
 7151TIP3   OH221395   1.315   3.302   5.190
 7151TIP3    H121396   1.284   3.272   5.276
 7151TIP3    H221397   1.363   3.384   5.213
 7152TIP3   OH221398   0.286   3.306   5.603
 7152TIP3    H121399   0.343   3.384   5.627
 7152TIP3    H221400   0.340   3.270   5.529
 7153TIP3   OH221401   0.329   4.157   5.732
 7153TIP3    H121402   0.267   4.207   5.676
 7153TIP3    H221403   0.265   4.111   5.790
 7154TIP3   OH221404   1.469   3.272   5.555
 7154TIP3    H121405   1.378   3.284   5.521
 7154TIP3    H221406   1.523   3.302   5.480
 7155TIP3   OH221407   0.765   2.911   5.534
 7155TIP3    H121408   0.748   2.817   5.554
 7155TIP3    H221409   0.689   2.953   5.581
 7156TIP3   OH221410   0.925   4.419   4.896
 7156TIP3    H121411   0.932   4.333   4.847
 7156TIP3    H221412   0.954   4.481   4.825
 7157TIP3   OH221413   1.030   4.203   4.775
 7157TIP3    H121414   0.995   4.132   4.718
 7157TIP3    H221415   1.055   4.153   4.854
 7158TIP3   OH221416   1.406   4.286   5.526
 7158TIP3    H121417   1.389   4.204   5.474
 7158TIP3    H221418   1.382   4.356   5.463
 7159TIP3   OH221419   0.696   3.678   4.788
 7159TIP3    H121420   0.616   3.730   4.767
 7159TIP3    H221421   0.742   3.675   4.702
 7160TIP3   OH221422   0.654   3.464   4.502
 7160TIP3    H121423   0.722   3.513   4.552
 7160TIP3    H221424   0.710   3.400   4.454
 7161TIP3   OH221425   1.599   3.930   5.382
 7161TIP3    H121426   1.512   3.976   5.387
 7161TIP3    H221427   1.618   3.935   5.287
 7162TIP3   OH221428   1.048   3.762   4.755
 7162TIP3    H121429   0.990   3.785   4.831
 7162TIP3    H221430   1.127   3.729   4.802
 7163TIP3   OH221431   1.281   3.799   5.671
 7163TIP3    H121432   1.273   3.878   5.728
 7163TIP3    H221433   1.199   3.805   5.619
 7164TIP3   OH221434   0.283   3.756   5.169
 7164TIP3    H121435   0.242   3.693   5.107
 7164TIP3    H221436   0.359   3.705   5.204
 7165TIP3   OH221437   0.429   4.192   5.310
 7165TIP3    H121438   0.386   4.130   5.250
 7165TIP3    H221439   0.512   4.143   5.333
 7166TIP3   OH221440   0.439   3.729   5.524
 7166TIP3    H121441   0.475   3.712   5.435
 7166TIP3    H221442   0.479   3.815   5.546
 7167TIP3   OH221443   0.977   4.362   5.292
 7167TIP3    H121444   0.949   4.441   5.344
 7167TIP3    H221445   0.951   4.290   5.353
 7168TIP3   OH221446   0.545   4.290   5.850
 7168TIP3    H121447   0.490   4.346   5.908
 7168TIP3    H221448   0.475   4.234   5.809
 7169TIP3   OH221449   0.883   3.619   4.586
 7169TIP3    H121450   0.944   3.677   4.636
 7169TIP3    H221451   0.909   3.641   4.493
 7170TIP3   OH221452   0.294   3.843   5.957
 7170TIP3    H121453   0.298   3.926   6.010
 7170TIP3    H221454   0.199   3.837   5.940
 7171TIP3   OH221455   0.640   4.303   4.844
 7171TIP3    H121456   0.684   4.368   4.899
 7171TIP3    H221457   0.563   4.351   4.811
 7172TIP3   OH221458   0.325   4.462   5.943
 7172TIP3    H121459   0.307   4.462   5.846
 7172TIP3    H221460   0.250   4.410   5.977
 7173TIP3   OH221461   1.399   2.857   4.636
 7173TIP3    H121462   1.318   2.879   4.686
 7173TIP3    H221463   1.413   2.939   4.585
 7174TIP3   OH221464   0.156   3.589   4.974
 7174TIP3    H121465   0.087   3.630   4.918
 7174TIP3    H221466   0.112   3.510   5.006
 7175TIP3   OH221467   1.200   4.225   4.191
 7175TIP3    H121468   1.208   4.320   4.167
 7175TIP3    H221469   1.291   4.193   4.173
 7176TIP3   OH221470   1.641   4.627   5.578
 7176TIP3    H121471   1.642   4.532   5.599
 7176TIP3    H221472   1.559   4.654   5.625
 7177TIP3   OH221473   0.739   4.418   5.705
 7177TIP3    H121474   0.743   4.508   5.742
 7177TIP3    H221475   0.671   4.376   5.762
 7178TIP3   OH221476   0.510   4.544   4.663
 7178TIP3    H121477   0.462   4.526   4.581
 7178TIP3    H221478   0.478   4.632   4.688
 7179TIP3   OH221479   0.712   4.446   4.303
 7179TIP3    H121480   0.768   4.375   4.265
 7179TIP3    H221481   0.748   4.454   4.393
 7180TIP3   OH221482   0.762   4.495   4.577
 7180TIP3    H121483   0.671   4.508   4.611
 7180TIP3    H221484   0.796   4.429   4.638
 7181TIP3   OH221485   1.534   3.761   5.848
 7181TIP3    H121486   1.445   3.766   5.809
 7181TIP3    H221487   1.550   3.665   5.846
 7182TIP3   OH221488   0.528   2.988   5.665
 7182TIP3    H121489   0.438   2.959   5.639
 7182TIP3    H221490   0.506   3.072   5.709
 7183TIP3   OH221491   1.062   3.104   5.854
 7183TIP3    H121492   1.130   3.081   5.920
 7183TIP3    H221493   0.978   3.087   5.902
 7184TIP3   OH221494   1.308   3.542   5.785
 7184TIP3    H121495   1.254   3.531   5.867
 7184TIP3    H221496   1.269   3.620   5.743
 7185TIP3   OH221497   0.960   3.666   4.331
 7185TIP3    H121498   0.924   3.640   4.244
 7185TIP3    H221499   1.046   3.704   4.304
 7186TIP3   OH221500   0.672   3.038   4.635
 7186TIP3    H121501   0.640   3.035   4.727
 7186TIP3    H221502   0.633   2.955   4.601
 7187TIP3   OH221503   0.449   3.507   5.676
 7187TIP3    H121504   0.399   3.531   5.757
 7187TIP3    H221505   0.441   3.590   5.623
 7188TIP3   OH221506   0.343   3.388   5.195
 7188TIP3    H121507   0.248   3.368   5.209
 7188TIP3    H221508   0.355   3.348   5.105
 7189TIP3   OH221509   0.821   3.467   4.915
 7189TIP3    H121510   0.774   3.543   4.874
 7189TIP3    H221511   0.883   3.441   4.844
 7190TIP3   OH221512   1.013   3.759   6.008
 7190TIP3    H121513   0.985   3.683   6.064
 7190TIP3    H221514   1.107   3.766   6.034
 7191TIP3   OH221515   1.028   3.526   5.125
 7191TIP3    H121516   0.936   3.551   5.108
 7191TIP3    H221517   1.024   3.430   5.111
 7192TIP3   OH221518   0.285   3.529   5.897
 7192TIP3    H121519   0.297   3.600   5.961
 7192TIP3    H221520   0.276   3.450   5.954
 7193TIP3   OH221521   0.328   3.011   4.598
 7193TIP3    H121522   0.319   3.012   4.695
 7193TIP3    H221523   0.250   3.061   4.570
 7194TIP3   OH221524  -0.104   3.081   5.450
 7194TIP3    H121525  -0.033   3.092   5.515
 7194TIP3    H221526  -0.081   2.998   5.406
 7195TIP3   OH221527  -0.137   3.090   5.020
 7195TIP3    H121528  -0.110   3.103   4.926
 7195TIP3    H221529  -0.143   3.181   5.049
 7196TIP3   OH221530   0.670   3.216   5.255
 7196TIP3    H121531   0.593   3.213   5.315
 7196TIP3    H221532   0.744   3.220   5.318
 7197TIP3   OH221533   0.101   3.260   5.259
 7197TIP3    H121534   0.012   3.227   5.275
 7197TIP3    H221535   0.151   3.176   5.244
 7198TIP3   OH221536   0.368   3.261   4.952
 7198TIP3    H121537   0.463   3.278   4.937
 7198TIP3    H221538   0.326   3.289   4.868
 7199TIP3   OH221539   1.190   3.273   5.459
 7199TIP3    H121540   1.152   3.309   5.543
 7199TIP3    H221541   1.109   3.238   5.418
 7200TIP3   OH221542   0.216   3.303   4.726
 7200TIP3    H121543   0.152   3.256   4.669
 7200TIP3    H221544   0.273   3.344   4.657
 7201TIP3   OH221545   1.335   4.979   5.680
 7201TIP3    H121546   1.334   5.003   5.585
 7201TIP3    H221547   1.415   5.026   5.711
 7202TIP3   OH221548   0.288   4.080   6.117
 7202TIP3    H121549   0.365   4.110   6.169
 7202TIP3    H221550   0.216   4.127   6.162
 7203TIP3   OH221551   0.266   3.033   5.236
 7203TIP3    H121552   0.234   2.953   5.282
 7203TIP3    H221553   0.319   2.995   5.164
 7204TIP3   OH221554   0.718   3.411   5.665
 7204TIP3    H121555   0.638   3.464   5.649
 7204TIP3    H221556   0.784   3.479   5.690
 7205TIP3   OH221557   0.464   3.830   4.734
 7205TIP3    H121558   0.393   3.763   4.724
 7205TIP3    H221559   0.447   3.862   4.826
 7206TIP3   OH221560   1.362   4.068   5.360
 7206TIP3    H121561   1.377   4.109   5.273
 7206TIP3    H221562   1.278   4.019   5.347
 7207TIP3   OH221563   0.922   3.142   4.599
 7207TIP3    H121564   0.826   3.124   4.611
 7207TIP3    H221565   0.932   3.235   4.627
 7208TIP3   OH221566   0.891   4.167   5.729
 7208TIP3    H121567   0.884   4.108   5.805
 7208TIP3    H221568   0.826   4.237   5.749
 7209TIP3   OH221569   0.994   3.389   4.704
 7209TIP3    H121570   1.091   3.395   4.720
 7209TIP3    H221571   0.976   3.469   4.651
 7210TIP3   OH221572   0.152   3.838   5.412
 7210TIP3    H121573   0.212   3.798   5.347
 7210TIP3    H221574   0.169   3.785   5.493
 7211TIP3   OH221575   0.612   3.981   4.562
 7211TIP3    H121576   0.563   4.066   4.567
 7211TIP3    H221577   0.556   3.924   4.619
 7212TIP3   OH221578   0.768   3.888   6.047
 7212TIP3    H121579   0.705   3.830   6.000
 7212TIP3    H221580   0.853   3.851   6.016
 7213TIP3   OH221581   1.027   4.434   5.617
 7213TIP3    H121582   0.936   4.404   5.635
 7213TIP3    H221583   1.052   4.468   5.706
 7214TIP3   OH221584   1.434   3.482   4.539
 7214TIP3    H121585   1.371   3.437   4.477
 7214TIP3    H221586   1.432   3.570   4.496
 7215TIP3   OH221587   1.655   4.340   5.619
 7215TIP3    H121588   1.557   4.333   5.615
 7215TIP3    H221589   1.678   4.309   5.529
 7216TIP3   OH221590   1.142   4.294   4.453
 7216TIP3    H121591   1.110   4.216   4.500
 7216TIP3    H221592   1.155   4.260   4.363
 7217TIP3   OH221593   1.131   3.919   5.298
 7217TIP3    H121594   1.044   3.882   5.322
 7217TIP3    H221595   1.167   3.843   5.247
 7218TIP3   OH221596   0.261   4.156   5.031
 7218TIP3    H121597   0.246   4.238   4.980
 7218TIP3    H221598   0.180   4.149   5.083
 7219TIP3   OH221599  -0.171   3.466   4.754
 7219TIP3    H121600  -0.113   3.544   4.772
 7219TIP3    H221601  -0.258   3.504   4.773
 7220TIP3   OH221602   0.398   3.922   4.978
 7220TIP3    H121603   0.359   4.009   4.999
 7220TIP3    H221604   0.366   3.869   5.054
 7221TIP3   OH221605   0.536   4.502   5.509
 7221TIP3    H121606   0.583   4.570   5.456
 7221TIP3    H221607   0.610   4.461   5.557
 7222TIP3   OH221608   0.176   4.399   4.895
 7222TIP3    H121609   0.096   4.418   4.944
 7222TIP3    H221610   0.217   4.489   4.892
 7223TIP3   OH221611   0.924   4.142   5.459
 7223TIP3    H121612   0.907   4.142   5.556
 7223TIP3    H221613   0.982   4.064   5.452
 7224TIP3   OH221614   0.893   4.031   4.353
 7224TIP3    H121615   0.944   4.005   4.432
 7224TIP3    H221616   0.805   3.998   4.376
 7225TIP3   OH221617   1.167   4.668   5.519
 7225TIP3    H121618   1.095   4.602   5.524
 7225TIP3    H221619   1.139   4.725   5.444
 7226TIP3   OH221620   1.229   4.499   4.168
 7226TIP3    H121621   1.264   4.565   4.105
 7226TIP3    H221622   1.151   4.548   4.201
 7227TIP3   OH221623   0.259   3.267   6.050
 7227TIP3    H121624   0.166   3.260   6.077
 7227TIP3    H221625   0.303   3.213   6.118
 7228TIP3   OH221626   1.054   3.973   4.574
 7228TIP3    H121627   1.041   3.898   4.636
 7228TIP3    H221628   1.150   3.962   4.554
 7229TIP3   OH221629   0.257   4.004   4.346
 7229TIP3    H121630   0.270   3.911   4.321
 7229TIP3    H221631   0.237   3.996   4.442
 7230TIP3   OH221632   0.206   4.013   4.621
 7230TIP3    H121633   0.279   3.983   4.677
 7230TIP3    H221634   0.212   4.111   4.630
 7231TIP3   OH221635  -0.048   3.699   4.829
 7231TIP3    H121636  -0.089   3.750   4.899
 7231TIP3    H221637  -0.033   3.769   4.761
 7232TIP3   OH221638   1.098   3.344   5.713
 7232TIP3    H121639   1.172   3.377   5.766
 7232TIP3    H221640   1.072   3.264   5.763
 7233TIP3   OH221641   0.968   3.079   4.880
 7233TIP3    H121642   0.954   3.110   4.788
 7233TIP3    H221643   1.014   3.156   4.921
 7234TIP3   OH221644   0.470   4.213   4.571
 7234TIP3    H121645   0.383   4.237   4.607
 7234TIP3    H221646   0.482   4.283   4.506
 7235TIP3   OH221647   0.645   3.271   4.985
 7235TIP3    H121648   0.711   3.342   4.965
 7235TIP3    H221649   0.657   3.262   5.083
 7236TIP3   OH221650   0.904   3.570   5.808
 7236TIP3    H121651   0.941   3.642   5.862
 7236TIP3    H221652   0.978   3.509   5.797
 7237TIP3   OH221653   0.799   2.992   5.086
 7237TIP3    H121654   0.802   3.064   5.152
 7237TIP3    H221655   0.859   3.028   5.017
 7238TIP3   OH221656   0.215   4.286   4.641
 7238TIP3    H121657   0.186   4.355   4.577
 7238TIP3    H221658   0.196   4.330   4.727
 7239TIP3   OH221659   0.313   2.998   4.875
 7239TIP3    H121660   0.311   3.089   4.912
 7239TIP3    H221661   0.409   2.980   4.883
 7240TIP3   OH221662   1.569   3.488   5.760
 7240TIP3    H121663   1.472   3.497   5.779
 7240TIP3    H221664   1.563   3.427   5.685
 7241TIP3   OH221665   1.230   3.698   5.163
 7241TIP3    H121666   1.151   3.639   5.160
 7241TIP3    H221667   1.294   3.641   5.210
 7242TIP3   OH221668  -0.058   3.919   4.668
 7242TIP3    H121669   0.023   3.972   4.655
 7242TIP3    H221670  -0.056   3.868   4.585
 7243TIP3   OH221671  -0.147   3.190   4.768
 7243TIP3    H121672  -0.139   3.287   4.765
 7243TIP3    H221673  -0.177   3.171   4.678
 7244TIP3   OH221674   1.204   4.589   5.038
 7244TIP3    H121675   1.156   4.668   5.003
 7244TIP3    H221676   1.290   4.636   5.057
 7245TIP3   OH221677   0.264   2.907   5.635
 7245TIP3    H121678   0.233   2.872   5.548
 7245TIP3    H221679   0.252   2.829   5.693
 7246TIP3   OH221680   0.428   4.637   6.135
 7246TIP3    H121681   0.524   4.625   6.145
 7246TIP3    H221682   0.408   4.571   6.066
 7247TIP3   OH221683   0.420   4.209   4.261
 7247TIP3    H121684   0.364   4.136   4.297
 7247TIP3    H221685   0.495   4.158   4.226
 7248TIP3   OH221686   1.082   4.540   5.863
 7248TIP3    H121687   1.070   4.470   5.933
 7248TIP3    H221688   1.157   4.591   5.899
 7249TIP3   OH221689   0.854   4.250   4.176
 7249TIP3    H121690   0.897   4.182   4.231
 7249TIP3    H221691   0.907   4.247   4.093
 7250TIP3   OH221692   0.065   3.729   4.490
 7250TIP3    H121693   0.124   3.700   4.561
 7250TIP3    H221694   0.128   3.732   4.415
 7251TIP3   OH221695   0.692   4.161   6.063
 7251TIP3    H121696   0.652   4.172   5.975
 7251TIP3    H221697   0.727   4.069   6.059
 7252TIP3   OH221698   0.581   3.926   4.292
 7252TIP3    H121699   0.581   3.938   4.389
 7252TIP3    H221700   0.582   3.828   4.286
 7253TIP3   OH221701   1.191   4.164   5.668
 7253TIP3    H121702   1.254   4.226   5.627
 7253TIP3    H221703   1.107   4.212   5.663
 7254TIP3   OH221704   0.208   3.802   6.287
 7254TIP3    H121705   0.274   3.762   6.230
 7254TIP3    H221706   0.261   3.844   6.357
 7255TIP3   OH221707   0.271   3.633   4.702
 7255TIP3    H121708   0.251   3.593   4.789
 7255TIP3    H221709   0.308   3.558   4.652
 7256TIP3   OH221710   0.550   3.707   5.937
 7256TIP3    H121711   0.468   3.759   5.931
 7256TIP3    H221712   0.598   3.734   5.855
 7257TIP3   OH221713   0.377   3.429   4.545
 7257TIP3    H121714   0.351   3.432   4.451
 7257TIP3    H221715   0.475   3.432   4.537
 7258TIP3   OH221716   1.063   4.101   6.068
 7258TIP3    H121717   1.139   4.064   6.020
 7258TIP3    H221718   1.052   4.035   6.139
 7259TIP3   OH221719   1.194   3.753   4.211
 7259TIP3    H121720   1.178   3.708   4.126
 7259TIP3    H221721   1.162   3.843   4.186
 7260TIP3   OH221722   0.669   3.489   6.061
 7260TIP3    H121723   0.669   3.407   6.007
 7260TIP3    H221724   0.630   3.554   5.999
 7261TIP3   OH221725   0.665   3.262   5.885
 7261TIP3    H121726   0.694   3.311   5.804
 7261TIP3    H221727   0.572   3.242   5.862
 7262TIP3   OH221728   0.702   3.809   5.736
 7262TIP3    H121729   0.756   3.775   5.661
 7262TIP3    H221730   0.645   3.872   5.687
 7263TIP3   OH221731   1.274   3.771   6.119
 7263TIP3    H121732   1.318   3.689   6.146
 7263TIP3    H221733   1.349   3.824   6.089
 7264TIP3   OH221734   1.320   4.026   5.858
 7264TIP3    H121735   1.262   4.078   5.798
 7264TIP3    H221736   1.407   4.045   5.817
 7265TIP3   OH221737   0.546   3.606   6.290
 7265TIP3    H121738   0.487   3.528   6.300
 7265TIP3    H221739   0.581   3.591   6.200
 7266TIP3   OH221740   0.802   3.029   5.935
 7266TIP3    H121741   0.753   3.112   5.917
 7266TIP3    H221742   0.732   2.963   5.924
 7267TIP3   OH221743   0.929   3.540   6.149
 7267TIP3    H121744   0.909   3.524   6.243
 7267TIP3    H221745   0.842   3.517   6.110
 7268TIP3   OH221746   1.165   3.485   6.004
 7268TIP3    H121747   1.088   3.490   6.064
 7268TIP3    H221748   1.237   3.456   6.064
 7269TIP3   OH221749   1.398   3.427   6.152
 7269TIP3    H121750   1.410   3.332   6.172
 7269TIP3    H221751   1.390   3.468   6.241
 7270TIP3   OH221752   0.408   3.378   6.343
 7270TIP3    H121753   0.400   3.288   6.306
 7270TIP3    H221754   0.436   3.357   6.434
 7271TIP3   OH221755   0.893   3.042   6.194
 7271TIP3    H121756   0.961   2.972   6.187
 7271TIP3    H221757   0.854   3.038   6.104
 7272TIP3   OH221758   0.961   3.257   6.352
 7272TIP3    H121759   0.938   3.187   6.288
 7272TIP3    H221760   0.884   3.318   6.345
 7273TIP3   OH221761   0.186   4.484   4.452
 7273TIP3    H121762   0.281   4.482   4.428
 7273TIP3    H221763   0.151   4.536   4.378
 7274TIP3   OH221764   1.430   4.746   5.072
 7274TIP3    H121765   1.466   4.770   5.159
 7274TIP3    H221766   1.501   4.773   5.013
 7275TIP3   OH221767   1.469   4.751   5.353
 7275TIP3    H121768   1.427   4.664   5.343
 7275TIP3    H221769   1.543   4.728   5.412
 7276TIP3   OH221770   1.513   4.431   5.919
 7276TIP3    H121771   1.443   4.437   5.987
 7276TIP3    H221772   1.556   4.518   5.927
 7277TIP3   OH221773   1.330   3.943   4.544
 7277TIP3    H121774   1.399   4.004   4.510
 7277TIP3    H221775   1.377   3.903   4.621
 7278TIP3   OH221776   1.458   3.815   4.754
 7278TIP3    H121777   1.388   3.763   4.801
 7278TIP3    H221778   1.508   3.851   4.829
 7279TIP3   OH221779   1.501   4.197   5.155
 7279TIP3    H121780   1.565   4.130   5.125
 7279TIP3    H221781   1.545   4.279   5.132
 7280TIP3   OH221782   1.321   4.499   5.368
 7280TIP3    H121783   1.278   4.555   5.436
 7280TIP3    H221784   1.243   4.458   5.328
 7281TIP3   OH221785   1.396   3.720   4.392
 7281TIP3    H121786   1.326   3.717   4.323
 7281TIP3    H221787   1.364   3.795   4.445
 7282TIP3   OH221788   1.266   3.392   4.347
 7282TIP3    H121789   1.228   3.426   4.265
 7282TIP3    H221790   1.243   3.296   4.339
 7283TIP3   OH221791   1.273   3.666   4.891
 7283TIP3    H121792   1.275   3.569   4.881
 7283TIP3    H221793   1.259   3.677   4.987
 7284TIP3   OH221794   1.564   4.092   5.748
 7284TIP3    H121795   1.633   4.023   5.739
 7284TIP3    H221796   1.595   4.161   5.688
 7285TIP3   OH221797   1.748   3.896   5.756
 7285TIP3    H121798   1.673   3.846   5.794
 7285TIP3    H221799   1.821   3.832   5.775
 7286TIP3   OH221800   1.211   3.126   4.333
 7286TIP3    H121801   1.285   3.092   4.387
 7286TIP3    H221802   1.137   3.066   4.353
 7287TIP3   OH221803   1.271   3.390   4.782
 7287TIP3    H121804   1.307   3.300   4.801
 7287TIP3    H221805   1.330   3.415   4.708
 7288TIP3   OH221806   1.431   3.550   5.281
 7288TIP3    H121807   1.516   3.579   5.240
 7288TIP3    H221808   1.444   3.585   5.371
 7289TIP3   OH221809   1.501   3.699   5.510
 7289TIP3    H121810   1.426   3.728   5.566
 7289TIP3    H221811   1.532   3.784   5.472
 7290TIP3   OH221812   0.133   3.339   6.419
 7290TIP3    H121813   0.198   3.377   6.358
 7290TIP3    H221814   0.052   3.382   6.387
 7291TIP3   OH221815   1.942   3.291   6.066
 7291TIP3    H121816   2.009   3.230   6.031
 7291TIP3    H221817   1.921   3.347   5.988
 7292TIP3   OH221818   1.378   3.136   4.822
 7292TIP3    H121819   1.424   3.120   4.907
 7292TIP3    H221820   1.316   3.061   4.821
 7293TIP3   OH221821   0.089   3.117   5.646
 7293TIP3    H121822   0.153   3.044   5.653
 7293TIP3    H221823   0.150   3.192   5.632
 7294TIP3   OH221824   1.825   3.436   5.865
 7294TIP3    H121825   1.741   3.474   5.898
 7294TIP3    H221826   1.791   3.361   5.813
 7295TIP3   OH221827   1.457   3.064   4.459
 7295TIP3    H121828   1.496   2.994   4.403
 7295TIP3    H221829   1.524   3.135   4.453
 7296TIP3   OH221830  -0.119   2.900   5.215
 7296TIP3    H121831  -0.204   2.918   5.258
 7296TIP3    H221832  -0.116   2.969   5.146
 7297TIP3   OH221833   1.053   4.587   4.737
 7297TIP3    H121834   1.088   4.574   4.646
 7297TIP3    H221835   1.076   4.680   4.751
 7298TIP3   OH221836   0.078   2.979   6.046
 7298TIP3    H121837   0.041   2.980   6.135
 7298TIP3    H221838   0.017   3.037   5.998
 7299TIP3   OH221839   0.301   4.473   5.660
 7299TIP3    H121840   0.284   4.545   5.598
 7299TIP3    H221841   0.391   4.448   5.632
 7300TIP3   OH221842   0.746   4.681   5.794
 7300TIP3    H121843   0.787   4.677   5.883
 7300TIP3    H221844   0.813   4.732   5.744
 7301TIP3   OH221845   0.926   4.834   5.653
 7301TIP3    H121846   0.998   4.777   5.621
 7301TIP3    H221847   0.976   4.892   5.715
 7302TIP3   OH221848   1.722   3.194   5.753
 7302TIP3    H121849   1.630   3.186   5.721
 7302TIP3    H221850   1.754   3.102   5.743
 7303TIP3   OH221851   0.216   4.696   5.510
 7303TIP3    H121852   0.187   4.782   5.545
 7303TIP3    H221853   0.159   4.685   5.433
 7304TIP3   OH221854   0.645   4.699   5.338
 7304TIP3    H121855   0.585   4.719   5.263
 7304TIP3    H221856   0.656   4.787   5.380
 7305TIP3   OH221857   0.913   4.638   5.374
 7305TIP3    H121858   0.816   4.653   5.367
 7305TIP3    H221859   0.948   4.724   5.349
 7306TIP3   OH221860   1.113   4.835   5.297
 7306TIP3    H121861   1.098   4.927   5.263
 7306TIP3    H221862   1.138   4.791   5.215
 7307TIP3   OH221863   0.090   4.361   5.273
 7307TIP3    H121864   0.095   4.270   5.311
 7307TIP3    H221865   0.183   4.388   5.277
 7308TIP3   OH221866   0.368   4.459   5.286
 7308TIP3    H121867   0.389   4.364   5.272
 7308TIP3    H221868   0.415   4.471   5.370
 7309TIP3   OH221869   0.919   3.101   5.358
 7309TIP3    H121870   0.882   3.036   5.420
 7309TIP3    H221871   1.003   3.060   5.330
 7310TIP3   OH221872   1.447   2.985   5.273
 7310TIP3    H121873   1.482   3.042   5.201
 7310TIP3    H221874   1.353   3.011   5.273
 7311TIP3   OH221875   1.544   3.091   5.039
 7311TIP3    H121876   1.618   3.039   5.000
 7311TIP3    H221877   1.576   3.182   5.025
 7312TIP3   OH221878   0.171   2.816   5.388
 7312TIP3    H121879   0.078   2.784   5.386
 7312TIP3    H221880   0.220   2.731   5.383
 7313TIP3   OH221881  -0.013   2.683   5.048
 7313TIP3    H121882   0.004   2.739   4.970
 7313TIP3    H221883  -0.058   2.746   5.108
 7314TIP3   OH221884   0.620   2.848   5.271
 7314TIP3    H121885   0.674   2.898   5.208
 7314TIP3    H221886   0.646   2.888   5.355
 7315TIP3   OH221887   1.164   2.996   5.254
 7315TIP3    H121888   1.159   2.962   5.164
 7315TIP3    H221889   1.151   2.914   5.307
 7316TIP3   OH221890   1.194   2.922   4.815
 7316TIP3    H121891   1.109   2.966   4.831
 7316TIP3    H221892   1.179   2.836   4.860
 7317TIP3   OH221893   0.082   2.842   4.809
 7317TIP3    H121894   0.128   2.781   4.749
 7317TIP3    H221895   0.157   2.897   4.842
 7318TIP3   OH221896   0.590   3.020   4.899
 7318TIP3    H121897   0.652   2.977   4.960
 7318TIP3    H221898   0.606   3.114   4.924
 7319TIP3   OH221899   0.453   4.443   4.397
 7319TIP3    H121900   0.540   4.467   4.359
 7319TIP3    H221901   0.429   4.369   4.337
 7320TIP3   OH221902   1.168   4.563   4.491
 7320TIP3    H121903   1.162   4.466   4.476
 7320TIP3    H221904   1.125   4.597   4.410
 7321TIP3   OH221905   0.382   3.103   6.270
 7321TIP3    H121906   0.345   3.030   6.325
 7321TIP3    H221907   0.474   3.101   6.302
 7322TIP3   OH221908   0.628   3.096   6.402
 7322TIP3    H121909   0.714   3.076   6.360
 7322TIP3    H221910   0.618   3.021   6.463
 7323TIP3   OH221911   1.457   3.157   6.186
 7323TIP3    H121912   1.475   3.129   6.279
 7323TIP3    H221913   1.547   3.154   6.147
 7324TIP3   OH221914   1.397   4.710   5.676
 7324TIP3    H121915   1.314   4.680   5.632
 7324TIP3    H221916   1.377   4.805   5.686
 7325TIP3   OH221917   1.985   3.986   5.182
 7325TIP3    H121918   1.999   3.905   5.234
 7325TIP3    H221919   2.026   4.051   5.242
 7326TIP3   OH221920   1.937   4.391   4.906
 7326TIP3    H121921   1.923   4.318   4.966
 7326TIP3    H221922   2.033   4.388   4.889
 7327TIP3   OH221923   1.632   3.599   4.700
 7327TIP3    H121924   1.573   3.675   4.710
 7327TIP3    H221925   1.570   3.535   4.659
 7328TIP3   OH221926   1.722   3.888   4.872
 7328TIP3    H121927   1.761   3.806   4.911
 7328TIP3    H221928   1.723   3.866   4.778
 7329TIP3   OH221929   2.564   4.836   4.519
 7329TIP3    H121930   2.606   4.765   4.465
 7329TIP3    H221931   2.563   4.794   4.606
 7330TIP3   OH221932   3.479   3.619   4.871
 7330TIP3    H121933   3.511   3.702   4.910
 7330TIP3    H221934   3.513   3.624   4.780
 7331TIP3   OH221935   2.190   3.471   4.879
 7331TIP3    H121936   2.185   3.532   4.803
 7331TIP3    H221937   2.158   3.389   4.836
 7332TIP3   OH221938   2.907   3.538   4.486
 7332TIP3    H121939   2.974   3.538   4.558
 7332TIP3    H221940   2.947   3.604   4.427
 7333TIP3   OH221941   1.848   3.672   4.977
 7333TIP3    H121942   1.927   3.642   5.027
 7333TIP3    H221943   1.853   3.611   4.900
 7334TIP3   OH221944   3.548   3.836   5.034
 7334TIP3    H121945   3.459   3.876   5.021
 7334TIP3    H221946   3.560   3.850   5.129
 7335TIP3   OH221947   2.206   3.453   5.307
 7335TIP3    H121948   2.144   3.485   5.239
 7335TIP3    H221949   2.153   3.468   5.388
 7336TIP3   OH221950   2.488   4.294   4.327
 7336TIP3    H121951   2.565   4.289   4.270
 7336TIP3    H221952   2.479   4.389   4.344
 7337TIP3   OH221953   2.297   4.221   5.107
 7337TIP3    H121954   2.234   4.285   5.146
 7337TIP3    H221955   2.342   4.276   5.042
 7338TIP3   OH221956   3.109   3.562   4.671
 7338TIP3    H121957   3.104   3.518   4.757
 7338TIP3    H221958   3.155   3.645   4.695
 7339TIP3   OH221959   2.074   3.572   5.097
 7339TIP3    H121960   2.139   3.643   5.114
 7339TIP3    H221961   2.118   3.527   5.020
 7340TIP3   OH221962   2.135   4.425   5.195
 7340TIP3    H121963   2.114   4.515   5.162
 7340TIP3    H221964   2.059   4.411   5.255
 7341TIP3   OH221965   1.530   4.109   4.433
 7341TIP3    H121966   1.492   4.127   4.344
 7341TIP3    H221967   1.555   4.198   4.463
 7342TIP3   OH221968   2.979   4.626   4.695
 7342TIP3    H121969   2.883   4.618   4.714
 7342TIP3    H221970   2.978   4.697   4.628
 7343TIP3   OH221971   3.265   3.533   5.043
 7343TIP3    H121972   3.174   3.543   5.006
 7343TIP3    H221973   3.321   3.559   4.967
 7344TIP3   OH221974   2.562   3.166   5.023
 7344TIP3    H121975   2.546   3.071   5.041
 7344TIP3    H221976   2.484   3.206   5.067
 7345TIP3   OH221977   2.687   4.654   4.337
 7345TIP3    H121978   2.752   4.582   4.328
 7345TIP3    H221979   2.740   4.727   4.299
 7346TIP3   OH221980   3.196   4.539   5.019
 7346TIP3    H121981   3.198   4.473   4.946
 7346TIP3    H221982   3.178   4.621   4.968
 7347TIP3   OH221983   2.471   3.915   4.256
 7347TIP3    H121984   2.417   3.995   4.243
 7347TIP3    H221985   2.539   3.925   4.187
 7348TIP3   OH221986   2.446   3.719   3.987
 7348TIP3    H121987   2.508   3.766   4.045
 7348TIP3    H221988   2.507   3.657   3.942
 7349TIP3   OH221989   3.391   4.174   4.861
 7349TIP3    H121990   3.318   4.238   4.860
 7349TIP3    H221991   3.404   4.161   4.766
 7350TIP3   OH221992   2.823   3.999   4.268
 7350TIP3    H121993   2.811   4.095   4.280
 7350TIP3    H221994   2.845   3.971   4.358
 7351TIP3   OH221995   3.082   4.057   5.167
 7351TIP3    H121996   3.080   4.135   5.226
 7351TIP3    H221997   2.997   4.064   5.123
 7352TIP3   OH221998   2.192   4.375   4.803
 7352TIP3    H121999   2.169   4.386   4.709
 7352TIP3    H222000   2.287   4.394   4.804
 7353TIP3   OH222001   2.721   4.626   4.787
 7353TIP3    H122002   2.716   4.708   4.839
 7353TIP3    H222003   2.717   4.555   4.855
 7354TIP3   OH222004   2.344   4.539   5.342
 7354TIP3    H122005   2.284   4.602   5.388
 7354TIP3    H222006   2.278   4.487   5.292
 7355TIP3   OH222007   2.678   3.874   4.073
 7355TIP3    H122008   2.737   3.928   4.131
 7355TIP3    H222009   2.706   3.903   3.983
 7356TIP3   OH222010   2.088   4.108   5.425
 7356TIP3    H122011   2.100   4.190   5.477
 7356TIP3    H222012   2.003   4.078   5.463
 7357TIP3   OH222013   2.414   4.578   4.363
 7357TIP3    H122014   2.505   4.610   4.356
 7357TIP3    H222015   2.366   4.636   4.301
 7358TIP3   OH222016   2.141   4.706   5.430
 7358TIP3    H122017   2.104   4.711   5.340
 7358TIP3    H222018   2.060   4.687   5.484
 7359TIP3   OH222019   3.195   3.118   4.115
 7359TIP3    H122020   3.118   3.136   4.171
 7359TIP3    H222021   3.205   3.202   4.066
 7360TIP3   OH222022   1.923   3.875   4.504
 7360TIP3    H122023   1.865   3.909   4.432
 7360TIP3    H222024   1.915   3.780   4.492
 7361TIP3   OH222025   3.071   4.477   3.661
 7361TIP3    H122026   3.039   4.556   3.709
 7361TIP3    H222027   3.098   4.521   3.580
 7362TIP3   OH222028   1.723   4.231   5.377
 7362TIP3    H122029   1.658   4.189   5.319
 7362TIP3    H222030   1.766   4.153   5.418
 7363TIP3   OH222031   3.440   4.889   5.069
 7363TIP3    H122032   3.436   4.792   5.078
 7363TIP3    H222033   3.354   4.914   5.109
 7364TIP3   OH222034   2.542   4.669   5.202
 7364TIP3    H122035   2.537   4.762   5.231
 7364TIP3    H222036   2.470   4.628   5.254
 7365TIP3   OH222037   2.307   4.794   4.155
 7365TIP3    H122038   2.263   4.776   4.070
 7365TIP3    H222039   2.276   4.884   4.176
 7366TIP3   OH222040   1.740   4.649   4.533
 7366TIP3    H122041   1.788   4.640   4.618
 7366TIP3    H222042   1.688   4.566   4.532
 7367TIP3   OH222043   2.504   4.705   3.791
 7367TIP3    H122044   2.563   4.635   3.756
 7367TIP3    H222045   2.538   4.715   3.883
 7368TIP3   OH222046   2.558   4.747   4.059
 7368TIP3    H122047   2.471   4.756   4.103
 7368TIP3    H222048   2.614   4.718   4.133
 7369TIP3   OH222049   3.322   4.011   5.339
 7369TIP3    H122050   3.242   4.013   5.284
 7369TIP3    H222051   3.346   3.917   5.334
 7370TIP3   OH222052   1.923   4.421   5.363
 7370TIP3    H122053   1.973   4.408   5.447
 7370TIP3    H222054   1.849   4.358   5.373
 7371TIP3   OH222055   2.322   3.244   5.151
 7371TIP3    H122056   2.233   3.215   5.123
 7371TIP3    H222057   2.299   3.328   5.195
 7372TIP3   OH222058   2.857   3.366   5.342
 7372TIP3    H122059   2.927   3.336   5.403
 7372TIP3    H222060   2.775   3.342   5.389
 7373TIP3   OH222061   3.100   3.791   5.270
 7373TIP3    H122062   3.048   3.784   5.353
 7373TIP3    H222063   3.067   3.874   5.231
 7374TIP3   OH222064   2.758   3.933   3.819
 7374TIP3    H122065   2.716   3.898   3.738
 7374TIP3    H222066   2.848   3.953   3.788
 7375TIP3   OH222067   2.466   3.295   4.121
 7375TIP3    H122068   2.434   3.288   4.212
 7375TIP3    H222069   2.429   3.212   4.085
 7376TIP3   OH222070   2.244   3.785   5.160
 7376TIP3    H122071   2.201   3.776   5.247
 7376TIP3    H222072   2.257   3.881   5.156
 7377TIP3   OH222073   2.120   3.627   4.667
 7377TIP3    H122074   2.032   3.590   4.689
 7377TIP3    H222075   2.136   3.585   4.579
 7378TIP3   OH222076   2.610   3.718   4.391
 7378TIP3    H122077   2.569   3.800   4.356
 7378TIP3    H222078   2.683   3.702   4.329
 7379TIP3   OH222079   2.807   4.015   5.497
 7379TIP3    H122080   2.780   3.938   5.553
 7379TIP3    H222081   2.902   4.017   5.518
 7380TIP3   OH222082   2.070   3.786   5.375
 7380TIP3    H122083   2.106   3.841   5.446
 7380TIP3    H222084   2.054   3.702   5.423
 7381TIP3   OH222085   2.126   3.269   4.086
 7381TIP3    H122086   2.114   3.266   4.183
 7381TIP3    H222087   2.046   3.320   4.059
 7382TIP3   OH222088   1.668   3.316   4.954
 7382TIP3    H122089   1.745   3.343   5.007
 7382TIP3    H222090   1.706   3.275   4.875
 7383TIP3   OH222091   1.634   3.293   4.479
 7383TIP3    H122092   1.678   3.329   4.399
 7383TIP3    H222093   1.571   3.365   4.496
 7384TIP3   OH222094   1.889   3.515   4.756
 7384TIP3    H122095   1.796   3.524   4.724
 7384TIP3    H222096   1.913   3.423   4.732
 7385TIP3   OH222097   2.164   3.514   4.427
 7385TIP3    H122098   2.260   3.529   4.409
 7385TIP3    H222099   2.121   3.541   4.344
 7386TIP3   OH222100   2.985   3.531   4.959
 7386TIP3    H122101   2.930   3.562   5.033
 7386TIP3    H222102   2.919   3.494   4.899
 7387TIP3   OH222103   2.008   3.568   4.212
 7387TIP3    H122104   1.943   3.514   4.162
 7387TIP3    H222105   2.063   3.601   4.137
 7388TIP3   OH222106   3.130   5.230   5.168
 7388TIP3    H122107   3.128   5.252   5.072
 7388TIP3    H222108   3.212   5.277   5.195
 7389TIP3   OH222109   2.087   4.346   5.583
 7389TIP3    H122110   2.166   4.375   5.633
 7389TIP3    H222111   2.022   4.341   5.656
 7390TIP3   OH222112   2.068   3.283   4.719
 7390TIP3    H122113   2.034   3.204   4.768
 7390TIP3    H222114   2.118   3.242   4.647
 7391TIP3   OH222115   2.517   3.682   5.155
 7391TIP3    H122116   2.435   3.732   5.143
 7391TIP3    H222117   2.582   3.750   5.183
 7392TIP3   OH222118   2.247   4.104   4.223
 7392TIP3    H122119   2.189   4.025   4.217
 7392TIP3    H222120   2.260   4.113   4.319
 7393TIP3   OH222121   3.180   4.343   4.825
 7393TIP3    H122122   3.192   4.337   4.729
 7393TIP3    H222123   3.089   4.313   4.834
 7394TIP3   OH222124   2.718   3.397   4.084
 7394TIP3    H122125   2.622   3.380   4.098
 7394TIP3    H222126   2.730   3.490   4.114
 7395TIP3   OH222127   2.655   4.400   5.227
 7395TIP3    H122128   2.677   4.376   5.318
 7395TIP3    H222129   2.621   4.490   5.236
 7396TIP3   OH222130   2.790   3.643   4.187
 7396TIP3    H122131   2.886   3.646   4.205
 7396TIP3    H222132   2.774   3.726   4.139
 7397TIP3   OH222133   2.406   4.236   4.037
 7397TIP3    H122134   2.366   4.325   4.052
 7397TIP3    H222135   2.363   4.187   4.109
 7398TIP3   OH222136   1.838   4.028   5.517
 7398TIP3    H122137   1.856   4.012   5.612
 7398TIP3    H222138   1.768   3.962   5.501
 7399TIP3   OH222139   2.567   4.148   5.531
 7399TIP3    H122140   2.507   4.088   5.484
 7399TIP3    H222141   2.654   4.109   5.507
 7400TIP3   OH222142   2.824   4.649   5.145
 7400TIP3    H122143   2.728   4.649   5.128
 7400TIP3    H222144   2.836   4.733   5.190
 7401TIP3   OH222145   3.230   3.717   4.013
 7401TIP3    H122146   3.161   3.683   3.953
 7401TIP3    H222147   3.255   3.798   3.968
 7402TIP3   OH222148   3.447   4.594   5.107
 7402TIP3    H122149   3.350   4.588   5.093
 7402TIP3    H222150   3.477   4.568   5.017
 7403TIP3   OH222151   2.941   4.547   3.951
 7403TIP3    H122152   2.939   4.534   4.049
 7403TIP3    H222153   2.876   4.483   3.921
 7404TIP3   OH222154   2.059   4.421   4.539
 7404TIP3    H122155   2.071   4.495   4.477
 7404TIP3    H222156   1.964   4.407   4.530
 7405TIP3   OH222157   1.625   3.716   4.236
 7405TIP3    H122158   1.669   3.801   4.256
 7405TIP3    H222159   1.545   3.722   4.292
 7406TIP3   OH222160   2.180   4.160   4.515
 7406TIP3    H122161   2.203   4.251   4.491
 7406TIP3    H222162   2.090   4.153   4.484
 7407TIP3   OH222163   2.326   4.752   4.988
 7407TIP3    H122164   2.364   4.827   4.938
 7407TIP3    H222165   2.404   4.722   5.038
 7408TIP3   OH222166   1.978   4.651   4.382
 7408TIP3    H122167   1.890   4.665   4.423
 7408TIP3    H222168   2.012   4.744   4.382
 7409TIP3   OH222169   2.726   4.412   4.964
 7409TIP3    H122170   2.701   4.407   5.059
 7409TIP3    H222171   2.776   4.331   4.954
 7410TIP3   OH222172   2.684   4.284   3.840
 7410TIP3    H122173   2.708   4.267   3.932
 7410TIP3    H222174   2.591   4.254   3.842
 7411TIP3   OH222175   2.953   4.927   5.000
 7411TIP3    H122176   2.870   4.882   4.975
 7411TIP3    H222177   2.954   4.997   4.930
 7412TIP3   OH222178   3.022   4.751   3.659
 7412TIP3    H122179   3.061   4.822   3.606
 7412TIP3    H222180   2.942   4.799   3.691
 7413TIP3   OH222181   2.043   3.537   5.518
 7413TIP3    H122182   1.947   3.541   5.534
 7413TIP3    H222183   2.073   3.481   5.592
 7414TIP3   OH222184   1.766   4.625   5.152
 7414TIP3    H122185   1.815   4.551   5.190
 7414TIP3    H222186   1.791   4.697   5.212
 7415TIP3   OH222187   2.055   4.262   3.839
 7415TIP3    H122188   2.063   4.171   3.807
 7415TIP3    H222189   2.031   4.248   3.932
 7416TIP3   OH222190   1.998   4.268   4.116
 7416TIP3    H122191   2.086   4.240   4.147
 7416TIP3    H222192   2.005   4.366   4.119
 7417TIP3   OH222193   1.737   3.963   4.314
 7417TIP3    H122194   1.666   4.007   4.365
 7417TIP3    H222195   1.750   4.028   4.242
 7418TIP3   OH222196   2.875   3.614   5.214
 7418TIP3    H122197   2.967   3.634   5.236
 7418TIP3    H222198   2.862   3.527   5.258
 7419TIP3   OH222199   2.758   3.343   4.369
 7419TIP3    H122200   2.751   3.370   4.276
 7419TIP3    H222201   2.808   3.419   4.408
 7420TIP3   OH222202   2.266   4.469   4.060
 7420TIP3    H122203   2.179   4.495   4.094
 7420TIP3    H222204   2.280   4.538   3.993
 7421TIP3   OH222205   2.440   3.523   4.452
 7421TIP3    H122206   2.500   3.593   4.416
 7421TIP3    H222207   2.478   3.514   4.540
 7422TIP3   OH222208   2.714   3.848   5.267
 7422TIP3    H122209   2.746   3.891   5.348
 7422TIP3    H222210   2.769   3.767   5.263
 7423TIP3   OH222211   2.599   3.259   4.579
 7423TIP3    H122212   2.642   3.301   4.656
 7423TIP3    H222213   2.655   3.294   4.505
 7424TIP3   OH222214   2.009   4.542   4.126
 7424TIP3    H122215   1.981   4.610   4.061
 7424TIP3    H222216   1.995   4.588   4.211
 7425TIP3   OH222217   2.107   3.251   4.362
 7425TIP3    H122218   2.108   3.343   4.397
 7425TIP3    H222219   2.203   3.231   4.369
 7426TIP3   OH222220   3.364   3.747   5.253
 7426TIP3    H122221   3.267   3.749   5.265
 7426TIP3    H222222   3.369   3.687   5.177
 7427TIP3   OH222223   1.728   4.169   4.119
 7427TIP3    H122224   1.800   4.234   4.123
 7427TIP3    H222225   1.768   4.110   4.051
 7428TIP3   OH222226   1.667   3.444   4.255
 7428TIP3    H122227   1.670   3.542   4.250
 7428TIP3    H222228   1.595   3.424   4.194
 7429TIP3   OH222229   2.982   4.899   4.599
 7429TIP3    H122230   2.941   4.940   4.520
 7429TIP3    H222231   3.077   4.917   4.579
 7430TIP3   OH222232   2.055   3.167   5.123
 7430TIP3    H122233   2.027   3.133   5.036
 7430TIP3    H222234   2.047   3.088   5.180
 7431TIP3   OH222235   1.594   4.400   4.515
 7431TIP3    H122236   1.503   4.424   4.537
 7431TIP3    H222237   1.593   4.426   4.421
 7432TIP3   OH222238   1.757   4.933   5.575
 7432TIP3    H122239   1.842   4.934   5.624
 7432TIP3    H222240   1.738   4.837   5.575
 7433TIP3   OH222241   2.231   4.889   5.621
 7433TIP3    H122242   2.326   4.872   5.630
 7433TIP3    H222243   2.208   4.829   5.548
 7434TIP3   OH222244   2.217   4.466   3.750
 7434TIP3    H122245   2.160   4.395   3.788
 7434TIP3    H222246   2.288   4.413   3.712
 7435TIP3   OH222247   2.648   4.508   3.667
 7435TIP3    H122248   2.686   4.434   3.718
 7435TIP3    H222249   2.695   4.505   3.581
 7436TIP3   OH222250   1.887   4.337   5.774
 7436TIP3    H122251   1.901   4.241   5.789
 7436TIP3    H222252   1.798   4.337   5.733
 7437TIP3   OH222253   1.865   3.984   3.976
 7437TIP3    H122254   1.925   3.950   4.045
 7437TIP3    H222255   1.928   3.988   3.900
 7438TIP3   OH222256   2.496   4.422   5.547
 7438TIP3    H122257   2.448   4.436   5.463
 7438TIP3    H222258   2.524   4.328   5.541
 7439TIP3   OH222259   2.389   4.183   3.774
 7439TIP3    H122260   2.379   4.196   3.871
 7439TIP3    H222261   2.383   4.085   3.770
 7440TIP3   OH222262   2.985   4.422   5.150
 7440TIP3    H122263   3.060   4.468   5.107
 7440TIP3    H222264   2.916   4.490   5.143
 7441TIP3   OH222265   2.011   4.070   5.754
 7441TIP3    H122266   2.076   4.000   5.744
 7441TIP3    H222267   2.033   4.103   5.844
 7442TIP3   OH222268   2.075   3.885   4.195
 7442TIP3    H122269   2.045   3.827   4.265
 7442TIP3    H222270   2.115   3.820   4.133
 7443TIP3   OH222271   2.325   3.947   5.419
 7443TIP3    H122272   2.254   4.014   5.421
 7443TIP3    H222273   2.384   3.985   5.350
 7444TIP3   OH222274   2.172   3.687   4.029
 7444TIP3    H122275   2.147   3.689   3.934
 7444TIP3    H222276   2.270   3.689   4.022
 7445TIP3   OH222277   2.869   4.357   5.551
 7445TIP3    H122278   2.927   4.301   5.498
 7445TIP3    H222279   2.844   4.296   5.623
 7446TIP3   OH222280   2.994   4.011   3.698
 7446TIP3    H122281   2.986   3.952   3.619
 7446TIP3    H222282   2.945   4.088   3.665
 7447TIP3   OH222283   2.463   3.741   5.545
 7447TIP3    H122284   2.464   3.658   5.492
 7447TIP3    H222285   2.415   3.803   5.485
 7448TIP3   OH222286   2.463   3.522   5.366
 7448TIP3    H122287   2.493   3.566   5.283
 7448TIP3    H222288   2.371   3.498   5.342
 7449TIP3   OH222289   2.479   4.060   5.234
 7449TIP3    H122290   2.558   4.043   5.182
 7449TIP3    H222291   2.427   4.121   5.177
 7450TIP3   OH222292   3.077   4.029   5.605
 7450TIP3    H122293   3.103   3.937   5.623
 7450TIP3    H222294   3.158   4.063   5.564
 7451TIP3   OH222295   3.113   4.284   5.344
 7451TIP3    H122296   3.059   4.335   5.279
 7451TIP3    H222297   3.203   4.299   5.305
 7452TIP3   OH222298   2.339   3.851   5.773
 7452TIP3    H122299   2.271   3.783   5.792
 7452TIP3    H222300   2.375   3.820   5.688
 7453TIP3   OH222301   2.599   3.288   5.423
 7453TIP3    H122302   2.549   3.370   5.403
 7453TIP3    H222303   2.530   3.220   5.411
 7454TIP3   OH222304   2.719   3.799   5.637
 7454TIP3    H122305   2.706   3.781   5.732
 7454TIP3    H222306   2.631   3.771   5.604
 7455TIP3   OH222307   2.965   3.757   5.500
 7455TIP3    H122308   2.887   3.744   5.557
 7455TIP3    H222309   3.037   3.715   5.553
 7456TIP3   OH222310   3.193   3.686   5.642
 7456TIP3    H122311   3.207   3.590   5.657
 7456TIP3    H222312   3.190   3.722   5.733
 7457TIP3   OH222313   2.182   3.631   5.826
 7457TIP3    H122314   2.184   3.538   5.796
 7457TIP3    H222315   2.221   3.620   5.916
 7458TIP3   OH222316   2.691   3.301   5.681
 7458TIP3    H122317   2.758   3.229   5.675
 7458TIP3    H222318   2.652   3.295   5.592
 7459TIP3   OH222319   2.759   3.517   5.836
 7459TIP3    H122320   2.737   3.443   5.774
 7459TIP3    H222321   2.678   3.573   5.831
 7460TIP3   OH222322   1.979   4.744   3.940
 7460TIP3    H122323   2.074   4.739   3.919
 7460TIP3    H222324   1.949   4.794   3.861
 7461TIP3   OH222325   1.459   4.120   4.160
 7461TIP3    H122326   1.552   4.143   4.138
 7461TIP3    H222327   1.448   4.034   4.113
 7462TIP3   OH222328   1.370   4.737   4.572
 7462TIP3    H122329   1.308   4.675   4.528
 7462TIP3    H222330   1.409   4.679   4.641
 7463TIP3   OH222331   1.495   4.589   4.764
 7463TIP3    H122332   1.554   4.513   4.762
 7463TIP3    H222333   1.544   4.650   4.824
 7464TIP3   OH222334   3.237   4.982   4.561
 7464TIP3    H122335   3.261   5.038   4.637
 7464TIP3    H222336   3.275   5.033   4.487
 7465TIP3   OH222337   3.260   5.016   4.844
 7465TIP3    H122338   3.225   4.925   4.832
 7465TIP3    H222339   3.343   4.996   4.890
 7466TIP3   OH222340   3.142   4.759   4.868
 7466TIP3    H122341   3.071   4.811   4.909
 7466TIP3    H222342   3.095   4.714   4.795
 7467TIP3   OH222343   3.191   4.023   3.882
 7467TIP3    H122344   3.120   4.003   3.817
 7467TIP3    H222345   3.145   4.009   3.966
 7468TIP3   OH222346   3.051   3.655   3.818
 7468TIP3    H122347   3.008   3.668   3.732
 7468TIP3    H222348   3.037   3.558   3.828
 7469TIP3   OH222349   1.706   4.016   5.118
 7469TIP3    H122350   1.703   3.973   5.030
 7469TIP3    H222351   1.802   4.008   5.138
 7470TIP3   OH222352   3.358   4.349   5.237
 7470TIP3    H122353   3.428   4.279   5.233
 7470TIP3    H222354   3.388   4.410   5.168
 7471TIP3   OH222355   3.539   4.152   5.259
 7471TIP3    H122356   3.465   4.095   5.290
 7471TIP3    H222357   3.614   4.089   5.271
 7472TIP3   OH222358   3.007   3.388   3.820
 7472TIP3    H122359   3.086   3.354   3.869
 7472TIP3    H222360   2.938   3.324   3.843
 7473TIP3   OH222361   3.060   3.633   4.253
 7473TIP3    H122362   3.098   3.546   4.280
 7473TIP3    H222363   3.131   3.665   4.195
 7474TIP3   OH222364   3.232   3.793   4.774
 7474TIP3    H122365   3.291   3.837   4.712
 7474TIP3    H222366   3.248   3.840   4.857
 7475TIP3   OH222367   3.298   3.956   4.997
 7475TIP3    H122368   3.223   3.989   5.051
 7475TIP3    H222369   3.332   4.039   4.957
 7476TIP3   OH222370   1.918   3.691   5.806
 7476TIP3    H122371   2.016   3.680   5.808
 7476TIP3    H222372   1.890   3.603   5.838
 7477TIP3   OH222373   3.747   3.550   5.555
 7477TIP3    H122374   3.807   3.484   5.513
 7477TIP3    H222375   3.720   3.603   5.477
 7478TIP3   OH222376   3.177   3.388   4.310
 7478TIP3    H122377   3.220   3.371   4.396
 7478TIP3    H222378   3.113   3.313   4.307
 7479TIP3   OH222379   1.873   3.376   5.131
 7479TIP3    H122380   1.932   3.298   5.140
 7479TIP3    H222381   1.939   3.448   5.126
 7480TIP3   OH222382   1.672   3.655   5.199
 7480TIP3    H122383   1.720   3.641   5.115
 7480TIP3    H222384   1.730   3.716   5.245
 7481TIP3   OH222385   3.617   3.686   5.357
 7481TIP3    H122386   3.527   3.724   5.369
 7481TIP3    H222387   3.594   3.610   5.301
 7482TIP3   OH222388   3.253   3.327   3.938
 7482TIP3    H122389   3.298   3.249   3.898
 7482TIP3    H222390   3.326   3.391   3.942
 7483TIP3   OH222391   1.660   3.155   4.710
 7483TIP3    H122392   1.566   3.147   4.734
 7483TIP3    H222393   1.655   3.210   4.629
 7484TIP3   OH222394   2.808   4.857   4.207
 7484TIP3    H122395   2.870   4.847   4.132
 7484TIP3    H222396   2.856   4.922   4.262
 7485TIP3   OH222397   1.881   3.231   5.519
 7485TIP3    H122398   1.831   3.226   5.602
 7485TIP3    H222399   1.813   3.269   5.460
 7486TIP3   OH222400   1.920   4.660   5.594
 7486TIP3    H122401   1.826   4.635   5.580
 7486TIP3    H222402   1.931   4.640   5.688
 7487TIP3   OH222403   2.102   4.694   5.142
 7487TIP3    H122404   2.051   4.768   5.105
 7487TIP3    H222405   2.186   4.710   5.096
 7488TIP3   OH222406   2.541   4.934   5.281
 7488TIP3    H122407   2.584   4.934   5.369
 7488TIP3    H222408   2.604   4.989   5.229
 7489TIP3   OH222409   2.722   5.087   5.146
 7489TIP3    H122410   2.790   5.053   5.086
 7489TIP3    H222411   2.776   5.146   5.203
 7490TIP3   OH222412   3.514   3.447   5.243
 7490TIP3    H122413   3.425   3.433   5.205
 7490TIP3    H222414   3.552   3.356   5.232
 7491TIP3   OH222415   1.775   4.950   5.170
 7491TIP3    H122416   1.685   4.981   5.146
 7491TIP3    H222417   1.788   4.998   5.253
 7492TIP3   OH222418   2.010   4.926   5.026
 7492TIP3    H122419   1.923   4.939   5.070
 7492TIP3    H222420   1.992   4.960   4.936
 7493TIP3   OH222421   2.435   4.953   4.827
 7493TIP3    H122422   2.370   4.974   4.757
 7493TIP3    H222423   2.450   5.041   4.866
 7494TIP3   OH222424   2.707   4.893   4.878
 7494TIP3    H122425   2.613   4.912   4.857
 7494TIP3    H222426   2.753   4.963   4.827
 7495TIP3   OH222427   2.903   5.085   4.786
 7495TIP3    H122428   2.897   5.173   4.742
 7495TIP3    H222429   2.936   5.029   4.712
 7496TIP3   OH222430   1.678   4.739   4.914
 7496TIP3    H122431   1.707   4.709   5.003
 7496TIP3    H222432   1.753   4.702   4.861
 7497TIP3   OH222433   1.876   4.619   4.768
 7497TIP3    H122434   1.894   4.535   4.816
 7497TIP3    H222435   1.965   4.659   4.766
 7498TIP3   OH222436   2.139   4.717   4.775
 7498TIP3    H122437   2.191   4.646   4.735
 7498TIP3    H222438   2.189   4.733   4.858
 7499TIP3   OH222439   2.710   3.342   4.823
 7499TIP3    H122440   2.679   3.287   4.897
 7499TIP3    H222441   2.802   3.310   4.809
 7500TIP3   OH222442   3.243   3.257   4.771
 7500TIP3    H122443   3.280   3.302   4.693
 7500TIP3    H222444   3.147   3.270   4.759
 7501TIP3   OH222445   3.344   3.343   4.529
 7501TIP3    H122446   3.414   3.291   4.488
 7501TIP3    H222447   3.376   3.435   4.514
 7502TIP3   OH222448   1.970   3.073   4.875
 7502TIP3    H122449   1.878   3.039   4.877
 7502TIP3    H222450   2.020   2.989   4.871
 7503TIP3   OH222451   1.760   2.944   4.525
 7503TIP3    H122452   1.789   3.000   4.451
 7503TIP3    H222453   1.732   3.011   4.591
 7504TIP3   OH222454   2.416   3.109   4.757
 7504TIP3    H122455   2.472   3.156   4.693
 7504TIP3    H222456   2.448   3.145   4.841
 7505TIP3   OH222457   2.961   3.251   4.742
 7505TIP3    H122458   2.970   3.216   4.653
 7505TIP3    H222459   2.949   3.168   4.795
 7506TIP3   OH222460   2.991   3.179   4.300
 7506TIP3    H122461   2.904   3.219   4.315
 7506TIP3    H222462   2.980   3.092   4.345
 7507TIP3   OH222463   1.468   4.520   4.306
 7507TIP3    H122464   1.384   4.486   4.270
 7507TIP3    H222465   1.463   4.612   4.274
 7508TIP3   OH222466   1.876   3.100   4.287
 7508TIP3    H122467   1.923   3.038   4.229
 7508TIP3    H222468   1.950   3.154   4.322
 7509TIP3   OH222469   2.383   3.268   4.385
 7509TIP3    H122470   2.447   3.227   4.446
 7509TIP3    H222471   2.403   3.363   4.404
 7510TIP3   OH222472   2.246   4.701   3.888
 7510TIP3    H122473   2.332   4.726   3.849
 7510TIP3    H222474   2.223   4.627   3.827
 7511TIP3   OH222475   2.967   4.825   3.981
 7511TIP3    H122476   2.966   4.728   3.967
 7511TIP3    H222477   2.921   4.857   3.901
 7512TIP3   OH222478   2.178   3.356   5.766
 7512TIP3    H122479   2.142   3.285   5.822
 7512TIP3    H222480   2.272   3.355   5.794
 7513TIP3   OH222481   2.428   3.351   5.886
 7513TIP3    H122482   2.512   3.322   5.847
 7513TIP3    H222483   2.412   3.280   5.951
 7514TIP3   OH222484   1.550   4.535   3.940
 7514TIP3    H122485   1.561   4.565   4.031
 7514TIP3    H222486   1.637   4.492   3.922
 7515TIP3   OH222487   3.254   3.416   5.672
 7515TIP3    H122488   3.273   3.384   5.763
 7515TIP3    H222489   3.343   3.410   5.630
 7516TIP3   OH222490   3.187   4.955   5.157
 7516TIP3    H122491   3.106   4.936   5.106
 7516TIP3    H222492   3.174   5.049   5.178
 7517TIP3   OH222493   4.352   5.101   4.011
 7517TIP3    H122494   4.396   5.028   3.964
 7517TIP3    H222495   4.348   5.068   4.101
 7518TIP3   OH222496   5.276   3.882   4.360
 7518TIP3    H122497   5.300   3.968   4.398
 7518TIP3    H222498   5.311   3.890   4.269
 7519TIP3   OH222499   4.003   3.728   4.360
 7519TIP3    H122500   3.989   3.801   4.296
 7519TIP3    H222501   3.957   3.654   4.314
 7520TIP3   OH222502   4.691   3.805   3.974
 7520TIP3    H122503   4.744   3.774   4.049
 7520TIP3    H222504   4.750   3.868   3.930
 7521TIP3   OH222505   5.338   4.099   4.529
 7521TIP3    H122506   5.256   4.151   4.517
 7521TIP3    H222507   5.362   4.123   4.620
 7522TIP3   OH222508   4.003   3.707   4.795
 7522TIP3    H122509   3.948   3.743   4.723
 7522TIP3    H222510   3.947   3.728   4.873
 7523TIP3   OH222511   4.376   4.587   3.777
 7523TIP3    H122512   4.315   4.521   3.740
 7523TIP3    H222513   4.314   4.655   3.810
 7524TIP3   OH222514   4.925   3.832   4.234
 7524TIP3    H122515   4.919   3.739   4.201
 7524TIP3    H222516   4.985   3.865   4.167
 7525TIP3   OH222517   3.873   3.817   4.583
 7525TIP3    H122518   3.928   3.897   4.596
 7525TIP3    H222519   3.916   3.782   4.502
 7526TIP3   OH222520   3.943   4.674   4.700
 7526TIP3    H122521   3.918   4.739   4.632
 7526TIP3    H222522   3.860   4.671   4.752
 7527TIP3   OH222523   4.779   4.895   4.170
 7527TIP3    H122524   4.687   4.879   4.200
 7527TIP3    H222525   4.767   4.979   4.122
 7528TIP3   OH222526   5.066   3.794   4.523
 7528TIP3    H122527   4.987   3.788   4.467
 7528TIP3    H222528   5.133   3.817   4.456
 7529TIP3   OH222529   4.357   3.420   4.514
 7529TIP3    H122530   4.340   3.325   4.530
 7529TIP3    H222531   4.278   3.459   4.557
 7530TIP3   OH222532   4.469   4.928   3.825
 7530TIP3    H122533   4.523   4.849   3.804
 7530TIP3    H222534   4.528   4.998   3.790
 7531TIP3   OH222535   4.618   4.710   3.739
 7531TIP3    H122536   4.543   4.657   3.708
 7531TIP3    H222537   4.633   4.669   3.824
 7532TIP3   OH222538   5.011   4.799   4.496
 7532TIP3    H122539   4.976   4.734   4.433
 7532TIP3    H222540   4.984   4.882   4.453
 7533TIP3   OH222541   4.292   4.195   3.753
 7533TIP3    H122542   4.210   4.244   3.734
 7533TIP3    H222543   4.335   4.188   3.666
 7534TIP3   OH222544   4.245   3.979   3.473
 7534TIP3    H122545   4.312   4.021   3.530
 7534TIP3    H222546   4.300   3.914   3.426
 7535TIP3   OH222547   4.623   4.284   3.752
 7535TIP3    H122548   4.553   4.308   3.816
 7535TIP3    H222549   4.679   4.228   3.807
 7536TIP3   OH222550   4.527   4.889   4.269
 7536TIP3    H122551   4.520   4.969   4.324
 7536TIP3    H222552   4.506   4.817   4.333
 7537TIP3   OH222553   4.146   4.796   4.833
 7537TIP3    H122554   4.083   4.859   4.874
 7537TIP3    H222555   4.082   4.741   4.782
 7538TIP3   OH222556   4.481   4.133   3.558
 7538TIP3    H122557   4.536   4.197   3.608
 7538TIP3    H222558   4.505   4.156   3.465
 7539TIP3   OH222559   3.897   4.352   4.936
 7539TIP3    H122560   3.901   4.442   4.974
 7539TIP3    H222561   3.802   4.332   4.946
 7540TIP3   OH222562   4.217   4.811   3.839
 7540TIP3    H122563   4.298   4.863   3.849
 7540TIP3    H222564   4.158   4.873   3.794
 7541TIP3   OH222565   3.937   4.963   4.915
 7541TIP3    H122566   3.904   4.964   4.822
 7541TIP3    H222567   3.856   4.941   4.965
 7542TIP3   OH222568   4.988   3.370   3.607
 7542TIP3    H122569   4.905   3.387   3.658
 7542TIP3    H222570   5.001   3.456   3.564
 7543TIP3   OH222571   3.745   4.110   3.913
 7543TIP3    H122572   3.656   4.134   3.881
 7543TIP3    H222573   3.727   4.047   3.984
 7544TIP3   OH222574   4.793   4.740   3.157
 7544TIP3    H122575   4.802   4.836   3.140
 7544TIP3    H222576   4.885   4.709   3.144
 7545TIP3   OH222577   3.515   4.495   4.865
 7545TIP3    H122578   3.472   4.469   4.783
 7545TIP3    H222579   3.552   4.411   4.899
 7546TIP3   OH222580   3.362   4.708   4.492
 7546TIP3    H122581   3.457   4.697   4.502
 7546TIP3    H222582   3.345   4.784   4.548
 7547TIP3   OH222583   5.235   5.145   4.553
 7547TIP3    H122584   5.233   5.048   4.567
 7547TIP3    H222585   5.151   5.170   4.598
 7548TIP3   OH222586   4.342   4.922   4.688
 7548TIP3    H122587   4.340   5.016   4.718
 7548TIP3    H222588   4.270   4.884   4.743
 7549TIP3   OH222589   4.104   5.056   3.638
 7549TIP3    H122590   4.053   5.038   3.557
 7549TIP3    H222591   4.069   5.142   3.667
 7550TIP3   OH222592   3.542   4.911   4.020
 7550TIP3    H122593   3.582   4.905   4.109
 7550TIP3    H222594   3.490   4.827   4.017
 7551TIP3   OH222595   4.302   4.959   3.275
 7551TIP3    H122596   4.360   4.887   3.240
 7551TIP3    H222597   4.335   4.968   3.367
 7552TIP3   OH222598   4.354   5.006   3.545
 7552TIP3    H122599   4.265   5.017   3.585
 7552TIP3    H222600   4.404   4.968   3.619
 7553TIP3   OH222601   5.130   4.273   4.840
 7553TIP3    H122602   5.049   4.296   4.792
 7553TIP3    H222603   5.138   4.177   4.820
 7554TIP3   OH222604   3.715   4.684   4.850
 7554TIP3    H122605   3.768   4.670   4.932
 7554TIP3    H222606   3.644   4.618   4.860
 7555TIP3   OH222607   4.117   3.500   4.637
 7555TIP3    H122608   4.028   3.469   4.608
 7555TIP3    H222609   4.092   3.582   4.682
 7556TIP3   OH222610   4.656   3.602   4.825
 7556TIP3    H122611   4.721   3.591   4.896
 7556TIP3    H222612   4.570   3.599   4.871
 7557TIP3   OH222613   4.552   4.179   3.302
 7557TIP3    H122614   4.517   4.151   3.215
 7557TIP3    H222615   4.637   4.220   3.276
 7558TIP3   OH222616   4.265   3.552   3.608
 7558TIP3    H122617   4.236   3.550   3.701
 7558TIP3    H222618   4.226   3.468   3.577
 7559TIP3   OH222619   4.048   4.029   4.639
 7559TIP3    H122620   3.992   4.054   4.714
 7559TIP3    H222621   4.046   4.108   4.580
 7560TIP3   OH222622   3.932   3.901   4.165
 7560TIP3    H122623   3.838   3.878   4.181
 7560TIP3    H222624   3.947   3.858   4.078
 7561TIP3   OH222625   4.410   3.985   3.889
 7561TIP3    H122626   4.369   4.063   3.845
 7561TIP3    H222627   4.474   3.954   3.822
 7562TIP3   OH222628   4.599   4.287   5.005
 7562TIP3    H122629   4.573   4.200   5.041
 7562TIP3    H222630   4.695   4.274   4.997
 7563TIP3   OH222631   3.871   4.042   4.860
 7563TIP3    H122632   3.909   4.105   4.922
 7563TIP3    H222633   3.866   3.960   4.913
 7564TIP3   OH222634   3.919   3.525   3.572
 7564TIP3    H122635   3.915   3.523   3.670
 7564TIP3    H222636   3.840   3.577   3.551
 7565TIP3   OH222637   3.464   3.577   4.447
 7565TIP3    H122638   3.545   3.597   4.497
 7565TIP3    H222639   3.494   3.532   4.366
 7566TIP3   OH222640   3.439   3.539   3.969
 7566TIP3    H122641   3.482   3.580   3.891
 7566TIP3    H222642   3.373   3.608   3.990
 7567TIP3   OH222643   4.257   3.750   4.229
 7567TIP3    H122644   4.184   3.737   4.292
 7567TIP3    H222645   4.333   3.710   4.277
 7568TIP3   OH222646   3.695   3.767   4.205
 7568TIP3    H122647   3.609   3.735   4.232
 7568TIP3    H222648   3.748   3.685   4.201
 7569TIP3   OH222649   3.961   3.771   3.925
 7569TIP3    H122650   4.056   3.791   3.912
 7569TIP3    H222651   3.918   3.803   3.842
 7570TIP3   OH222652   3.805   3.817   3.699
 7570TIP3    H122653   3.737   3.769   3.649
 7570TIP3    H222654   3.860   3.853   3.626
 7571TIP3   OH222655   4.928   5.491   4.653
 7571TIP3    H122656   4.922   5.517   4.559
 7571TIP3    H222657   5.004   5.542   4.684
 7572TIP3   OH222658   3.875   4.603   5.074
 7572TIP3    H122659   3.960   4.631   5.113
 7572TIP3    H222660   3.818   4.608   5.152
 7573TIP3   OH222661   3.860   3.541   4.213
 7573TIP3    H122662   3.838   3.460   4.263
 7573TIP3    H222663   3.916   3.504   4.143
 7574TIP3   OH222664   4.314   3.935   4.644
 7574TIP3    H122665   4.226   3.974   4.625
 7574TIP3    H222666   4.374   4.010   4.635
 7575TIP3   OH222667   4.054   4.350   3.716
 7575TIP3    H122668   3.987   4.280   3.700
 7575TIP3    H222669   4.039   4.372   3.810
 7576TIP3   OH222670   4.506   3.667   3.551
 7576TIP3    H122671   4.417   3.639   3.580
 7576TIP3    H222672   4.521   3.751   3.599
 7577TIP3   OH222673   4.461   4.657   4.711
 7577TIP3    H122674   4.480   4.641   4.804
 7577TIP3    H222675   4.421   4.746   4.713
 7578TIP3   OH222676   4.583   3.900   3.676
 7578TIP3    H122677   4.679   3.902   3.697
 7578TIP3    H222678   4.570   3.982   3.625
 7579TIP3   OH222679   4.197   4.488   3.526
 7579TIP3    H122680   4.156   4.577   3.537
 7579TIP3    H222681   4.145   4.436   3.591
 7580TIP3   OH222682   3.628   4.290   5.005
 7580TIP3    H122683   3.658   4.274   5.097
 7580TIP3    H222684   3.574   4.211   4.988
 7581TIP3   OH222685   4.353   4.404   5.021
 7581TIP3    H122686   4.297   4.339   4.975
 7581TIP3    H222687   4.443   4.369   5.001
 7582TIP3   OH222688   4.614   4.962   4.588
 7582TIP3    H122689   4.524   4.930   4.604
 7582TIP3    H222690   4.641   4.989   4.678
 7583TIP3   OH222691   5.024   3.991   3.505
 7583TIP3    H122692   4.961   3.950   3.442
 7583TIP3    H222693   5.024   4.082   3.469
 7584TIP3   OH222694   5.253   4.853   4.596
 7584TIP3    H122695   5.156   4.846   4.584
 7584TIP3    H222696   5.281   4.823   4.506
 7585TIP3   OH222697   4.727   4.814   3.422
 7585TIP3    H122698   4.700   4.746   3.485
 7585TIP3    H222699   4.740   4.765   3.339
 7586TIP3   OH222700   3.835   4.666   4.018
 7586TIP3    H122701   3.851   4.748   3.968
 7586TIP3    H222702   3.739   4.659   4.008
 7587TIP3   OH222703   3.412   3.975   3.719
 7587TIP3    H122704   3.467   4.055   3.734
 7587TIP3    H222705   3.339   3.994   3.781
 7588TIP3   OH222706   3.984   4.429   3.978
 7588TIP3    H122707   3.954   4.522   3.989
 7588TIP3    H222708   3.903   4.379   3.992
 7589TIP3   OH222709   4.122   5.009   4.477
 7589TIP3    H122710   4.163   5.084   4.430
 7589TIP3    H222711   4.198   4.973   4.525
 7590TIP3   OH222712   3.772   4.907   3.866
 7590TIP3    H122713   3.685   4.917   3.911
 7590TIP3    H222714   3.804   5.000   3.868
 7591TIP3   OH222715   4.490   4.677   4.438
 7591TIP3    H122716   4.477   4.663   4.534
 7591TIP3    H222717   4.523   4.592   4.408
 7592TIP3   OH222718   4.484   4.545   3.323
 7592TIP3    H122719   4.538   4.516   3.400
 7592TIP3    H222720   4.396   4.513   3.350
 7593TIP3   OH222721   4.760   5.182   4.494
 7593TIP3    H122722   4.688   5.115   4.500
 7593TIP3    H222723   4.732   5.238   4.419
 7594TIP3   OH222724   4.823   5.022   3.135
 7594TIP3    H122725   4.872   5.103   3.111
 7594TIP3    H222726   4.741   5.063   3.170
 7595TIP3   OH222727   3.843   3.794   5.011
 7595TIP3    H122728   3.746   3.790   5.015
 7595TIP3    H222729   3.869   3.726   5.076
 7596TIP3   OH222730   4.646   4.464   3.531
 7596TIP3    H122731   4.633   4.411   3.611
 7596TIP3    H222732   4.743   4.464   3.524
 7597TIP3   OH222733   3.569   4.872   4.645
 7597TIP3    H122734   3.622   4.811   4.699
 7597TIP3    H222735   3.594   4.958   4.682
 7598TIP3   OH222736   3.848   4.520   3.322
 7598TIP3    H122737   3.862   4.427   3.296
 7598TIP3    H222738   3.828   4.510   3.418
 7599TIP3   OH222739   3.795   4.525   3.594
 7599TIP3    H122740   3.872   4.497   3.644
 7599TIP3    H222741   3.798   4.623   3.605
 7600TIP3   OH222742   3.515   4.225   3.796
 7600TIP3    H122743   3.503   4.287   3.869
 7600TIP3    H222744   3.520   4.287   3.721
 7601TIP3   OH222745   4.558   3.600   3.855
 7601TIP3    H122746   4.552   3.632   3.764
 7601TIP3    H222747   4.601   3.677   3.900
 7602TIP3   OH222748   4.062   4.724   3.545
 7602TIP3    H122749   3.974   4.748   3.581
 7602TIP3    H222750   4.077   4.798   3.485
 7603TIP3   OH222751   4.237   3.786   3.958
 7603TIP3    H122752   4.304   3.856   3.940
 7603TIP3    H222753   4.247   3.778   4.056
 7604TIP3   OH222754   4.393   3.503   4.058
 7604TIP3    H122755   4.417   3.561   4.134
 7604TIP3    H222756   4.453   3.540   3.989
 7605TIP3   OH222757   3.806   4.799   3.613
 7605TIP3    H122758   3.775   4.868   3.551
 7605TIP3    H222759   3.789   4.841   3.700
 7606TIP3   OH222760   3.908   3.511   3.846
 7606TIP3    H122761   3.905   3.601   3.885
 7606TIP3    H222762   4.003   3.492   3.858
 7607TIP3   OH222763   5.135   4.008   4.745
 7607TIP3    H122764   5.061   3.962   4.786
 7607TIP3    H222765   5.145   3.960   4.662
 7608TIP3   OH222766   3.523   4.423   3.603
 7608TIP3    H122767   3.590   4.493   3.613
 7608TIP3    H222768   3.568   4.367   3.537
 7609TIP3   OH222769   3.462   3.699   3.744
 7609TIP3    H122770   3.465   3.796   3.735
 7609TIP3    H222771   3.389   3.674   3.686
 7610TIP3   OH222772   4.779   5.159   4.080
 7610TIP3    H122773   4.736   5.205   4.005
 7610TIP3    H222774   4.873   5.178   4.060
 7611TIP3   OH222775   3.846   3.426   4.612
 7611TIP3    H122776   3.826   3.385   4.525
 7611TIP3    H222777   3.840   3.348   4.672
 7612TIP3   OH222778   3.411   4.668   3.996
 7612TIP3    H122779   3.339   4.669   4.060
 7612TIP3    H222780   3.364   4.689   3.913
 7613TIP3   OH222781   3.553   5.189   5.065
 7613TIP3    H122782   3.639   5.191   5.112
 7613TIP3    H222783   3.536   5.094   5.061
 7614TIP3   OH222784   4.027   5.143   5.109
 7614TIP3    H122785   4.123   5.132   5.114
 7614TIP3    H222786   4.005   5.084   5.035
 7615TIP3   OH222787   4.012   4.722   3.233
 7615TIP3    H122788   3.955   4.652   3.273
 7615TIP3    H222789   4.087   4.668   3.204
 7616TIP3   OH222790   4.668   5.054   4.843
 7616TIP3    H122791   4.662   4.984   4.911
 7616TIP3    H222792   4.746   5.106   4.872
 7617TIP3   OH222793   4.449   4.762   3.150
 7617TIP3    H122794   4.484   4.694   3.211
 7617TIP3    H222795   4.510   4.755   3.073
 7618TIP3   OH222796   3.669   4.580   5.273
 7618TIP3    H122797   3.699   4.488   5.262
 7618TIP3    H222798   3.593   4.585   5.211
 7619TIP3   OH222799   3.659   4.235   3.458
 7619TIP3    H122800   3.715   4.206   3.531
 7619TIP3    H222801   3.726   4.241   3.386
 7620TIP3   OH222802   4.287   4.677   5.038
 7620TIP3    H122803   4.246   4.699   4.952
 7620TIP3    H222804   4.316   4.584   5.027
 7621TIP3   OH222805   4.171   4.438   3.259
 7621TIP3    H122806   4.171   4.452   3.357
 7621TIP3    H222807   4.172   4.340   3.256
 7622TIP3   OH222808   3.797   4.328   5.244
 7622TIP3    H122809   3.875   4.281   5.212
 7622TIP3    H222810   3.827   4.357   5.332
 7623TIP3   OH222811   3.867   4.152   3.672
 7623TIP3    H122812   3.833   4.121   3.759
 7623TIP3    H222813   3.900   4.068   3.632
 7624TIP3   OH222814   4.136   4.213   4.906
 7624TIP3    H122815   4.056   4.269   4.908
 7624TIP3    H222816   4.181   4.245   4.824
 7625TIP3   OH222817   3.967   3.940   3.516
 7625TIP3    H122818   3.943   3.946   3.422
 7625TIP3    H222819   4.065   3.944   3.511
 7626TIP3   OH222820   4.655   4.610   5.038
 7626TIP3    H122821   4.737   4.578   4.999
 7626TIP3    H222822   4.636   4.539   5.102
 7627TIP3   OH222823   4.786   4.269   3.183
 7627TIP3    H122824   4.766   4.223   3.099
 7627TIP3    H222825   4.753   4.359   3.159
 7628TIP3   OH222826   4.254   3.998   5.034
 7628TIP3    H122827   4.256   3.917   4.979
 7628TIP3    H222828   4.213   4.063   4.973
 7629TIP3   OH222829   4.257   3.780   4.857
 7629TIP3    H122830   4.288   3.825   4.775
 7629TIP3    H222831   4.166   3.755   4.832
 7630TIP3   OH222832   4.280   4.324   4.704
 7630TIP3    H122833   4.358   4.295   4.656
 7630TIP3    H222834   4.254   4.403   4.655
 7631TIP3   OH222835   4.879   4.291   5.106
 7631TIP3    H122836   4.893   4.198   5.082
 7631TIP3    H222837   4.950   4.337   5.060
 7632TIP3   OH222838   4.912   4.552   4.839
 7632TIP3    H122839   4.848   4.590   4.778
 7632TIP3    H222840   4.996   4.568   4.791
 7633TIP3   OH222841   4.136   4.106   5.266
 7633TIP3    H122842   4.069   4.036   5.279
 7633TIP3    H222843   4.171   4.083   5.177
 7634TIP3   OH222844   4.392   3.547   4.914
 7634TIP3    H122845   4.343   3.629   4.891
 7634TIP3    H222846   4.324   3.479   4.898
 7635TIP3   OH222847   4.517   4.049   5.115
 7635TIP3    H122848   4.505   4.037   5.211
 7635TIP3    H222849   4.428   4.024   5.083
 7636TIP3   OH222850   4.784   4.038   4.989
 7636TIP3    H122851   4.694   4.013   5.019
 7636TIP3    H222852   4.840   3.973   5.034
 7637TIP3   OH222853   5.015   3.943   5.135
 7637TIP3    H122854   5.013   3.847   5.153
 7637TIP3    H222855   4.994   3.981   5.223
 7638TIP3   OH222856   3.974   3.889   5.321
 7638TIP3    H122857   3.977   3.798   5.283
 7638TIP3    H222858   4.013   3.872   5.409
 7639TIP3   OH222859   4.486   3.555   5.170
 7639TIP3    H122860   4.551   3.483   5.160
 7639TIP3    H222861   4.445   3.554   5.080
 7640TIP3   OH222862   4.552   3.770   5.327
 7640TIP3    H122863   4.531   3.699   5.262
 7640TIP3    H222864   4.475   3.830   5.317
 7641TIP3   OH222865   3.776   5.000   3.423
 7641TIP3    H122866   3.871   4.993   3.403
 7641TIP3    H222867   3.746   5.052   3.347
 7642TIP3   OH222868   3.176   4.994   4.054
 7642TIP3    H122869   3.103   4.937   4.021
 7642TIP3    H222870   3.218   4.935   4.120
 7643TIP3   OH222871   3.301   4.841   4.244
 7643TIP3    H122872   3.286   4.771   4.310
 7643TIP3    H222873   3.356   4.901   4.296
 7644TIP3   OH222874   5.035   5.243   4.042
 7644TIP3    H122875   5.058   5.275   4.131
 7644TIP3    H222876   5.099   5.287   3.986
 7645TIP3   OH222877   5.063   5.266   4.323
 7645TIP3    H122878   5.015   5.180   4.322
 7645TIP3    H222879   5.136   5.243   4.382
 7646TIP3   OH222880   5.110   4.941   4.898
 7646TIP3    H122881   5.036   4.950   4.962
 7646TIP3    H222882   5.150   5.030   4.901
 7647TIP3   OH222883   4.928   4.456   3.522
 7647TIP3    H122884   4.989   4.521   3.481
 7647TIP3    H222885   4.974   4.438   3.604
 7648TIP3   OH222886   5.129   4.717   4.160
 7648TIP3    H122887   5.134   4.639   4.104
 7648TIP3    H222888   5.111   4.789   4.097
 7649TIP3   OH222889   4.937   5.021   4.353
 7649TIP3    H122890   4.865   5.063   4.404
 7649TIP3    H222891   4.887   4.973   4.283
 7650TIP3   OH222892   4.988   4.235   3.364
 7650TIP3    H122893   4.917   4.232   3.297
 7650TIP3    H222894   4.958   4.311   3.417
 7651TIP3   OH222895   4.855   3.904   3.311
 7651TIP3    H122896   4.807   3.932   3.233
 7651TIP3    H222897   4.836   3.807   3.309
 7652TIP3   OH222898   5.153   4.603   4.719
 7652TIP3    H122899   5.226   4.538   4.709
 7652TIP3    H222900   5.179   4.673   4.657
 7653TIP3   OH222901   5.339   4.406   4.733
 7653TIP3    H122902   5.265   4.359   4.778
 7653TIP3    H222903   5.412   4.343   4.750
 7654TIP3   OH222904   4.805   3.635   3.296
 7654TIP3    H122905   4.879   3.608   3.354
 7654TIP3    H222906   4.731   3.580   3.328
 7655TIP3   OH222907   4.859   3.897   3.747
 7655TIP3    H122908   4.894   3.814   3.782
 7655TIP3    H222909   4.927   3.923   3.683
 7656TIP3   OH222910   5.099   4.243   4.493
 7656TIP3    H122911   5.008   4.216   4.511
 7656TIP3    H222912   5.092   4.279   4.404
 7657TIP3   OH222913   3.708   3.943   5.297
 7657TIP3    H122914   3.806   3.935   5.291
 7657TIP3    H222915   3.685   3.854   5.329
 7658TIP3   OH222916   5.547   3.811   5.040
 7658TIP3    H122917   5.604   3.743   4.998
 7658TIP3    H222918   5.516   3.861   4.963
 7659TIP3   OH222919   3.667   3.637   4.630
 7659TIP3    H122920   3.728   3.560   4.632
 7659TIP3    H222921   3.730   3.709   4.613
 7660TIP3   OH222922   5.410   3.945   4.846
 7660TIP3    H122923   5.330   3.985   4.884
 7660TIP3    H222924   5.372   3.874   4.790
 7661TIP3   OH222925   5.046   3.584   3.425
 7661TIP3    H122926   5.088   3.509   3.380
 7661TIP3    H222927   5.119   3.648   3.433
 7662TIP3   OH222928   3.457   3.422   4.215
 7662TIP3    H122929   3.362   3.406   4.226
 7662TIP3    H222930   3.460   3.461   4.126
 7663TIP3   OH222931   4.616   5.112   3.696
 7663TIP3    H122932   4.672   5.104   3.616
 7663TIP3    H222933   4.664   5.179   3.748
 7664TIP3   OH222934   3.682   3.499   5.017
 7664TIP3    H122935   3.625   3.483   5.094
 7664TIP3    H222936   3.616   3.523   4.950
 7665TIP3   OH222937   3.718   4.911   5.081
 7665TIP3    H122938   3.622   4.894   5.069
 7665TIP3    H222939   3.727   4.911   5.177
 7666TIP3   OH222940   3.894   4.955   4.632
 7666TIP3    H122941   3.849   5.032   4.591
 7666TIP3    H222942   3.980   4.963   4.586
 7667TIP3   OH222943   4.336   5.192   4.766
 7667TIP3    H122944   4.378   5.193   4.855
 7667TIP3    H222945   4.401   5.243   4.714
 7668TIP3   OH222946   4.515   5.346   4.628
 7668TIP3    H122947   4.586   5.293   4.587
 7668TIP3    H222948   4.568   5.403   4.688
 7669TIP3   OH222949   5.310   3.704   4.729
 7669TIP3    H122950   5.221   3.686   4.694
 7669TIP3    H222951   5.350   3.614   4.719
 7670TIP3   OH222952   3.568   5.200   4.660
 7670TIP3    H122953   3.479   5.230   4.632
 7670TIP3    H222954   3.583   5.258   4.736
 7671TIP3   OH222955   3.804   5.185   4.512
 7671TIP3    H122956   3.717   5.196   4.555
 7671TIP3    H222957   3.786   5.222   4.423
 7672TIP3   OH222958   4.230   5.212   4.310
 7672TIP3    H122959   4.160   5.234   4.246
 7672TIP3    H222960   4.244   5.299   4.354
 7673TIP3   OH222961   4.500   5.155   4.355
 7673TIP3    H122962   4.406   5.173   4.340
 7673TIP3    H222963   4.543   5.234   4.319
 7674TIP3   OH222964   4.706   5.343   4.276
 7674TIP3    H122965   4.694   5.428   4.228
 7674TIP3    H222966   4.733   5.283   4.203
 7675TIP3   OH222967   3.477   4.996   4.399
 7675TIP3    H122968   3.503   4.969   4.489
 7675TIP3    H222969   3.553   4.964   4.347
 7676TIP3   OH222970   3.683   4.881   4.258
 7676TIP3    H122971   3.710   4.806   4.311
 7676TIP3    H222972   3.768   4.929   4.250
 7677TIP3   OH222973   3.944   4.974   4.259
 7677TIP3    H122974   3.998   4.901   4.227
 7677TIP3    H222975   3.987   4.991   4.346
 7678TIP3   OH222976   4.472   3.610   4.320
 7678TIP3    H122977   4.458   3.547   4.392
 7678TIP3    H222978   4.565   3.591   4.295
 7679TIP3   OH222979   3.775   3.322   4.367
 7679TIP3    H122980   3.686   3.302   4.334
 7679TIP3    H222981   3.813   3.230   4.358
 7680TIP3   OH222982   3.525   3.198   3.976
 7680TIP3    H122983   3.573   3.263   3.922
 7680TIP3    H222984   3.543   3.228   4.066
 7681TIP3   OH222985   4.208   3.364   4.242
 7681TIP3    H122986   4.266   3.409   4.179
 7681TIP3    H222987   4.238   3.399   4.327
 7682TIP3   OH222988   4.714   3.520   4.241
 7682TIP3    H122989   4.793   3.526   4.183
 7682TIP3    H222990   4.718   3.427   4.273
 7683TIP3   OH222991   4.766   3.417   3.761
 7683TIP3    H122992   4.708   3.482   3.804
 7683TIP3    H222993   4.767   3.347   3.829
 7684TIP3   OH222994   3.266   4.765   3.788
 7684TIP3    H122995   3.177   4.746   3.755
 7684TIP3    H222996   3.267   4.861   3.777
 7685TIP3   OH222997   3.675   3.366   3.767
 7685TIP3    H122998   3.724   3.299   3.716
 7685TIP3    H222999   3.749   3.418   3.806
 7686TIP3   OH223000   4.185   3.535   3.871
 7686TIP3    H123001   4.247   3.493   3.934
 7686TIP3    H223002   4.200   3.628   3.897
 7687TIP3   OH223003   4.043   4.956   3.371
 7687TIP3    H123004   4.130   4.979   3.334
 7687TIP3    H223005   4.020   4.881   3.312
 7688TIP3   OH223006   4.764   5.081   3.462
 7688TIP3    H123007   4.754   4.983   3.453
 7688TIP3    H223008   4.715   5.112   3.383
 7689TIP3   OH223009   3.971   3.615   5.261
 7689TIP3    H123010   3.940   3.539   5.313
 7689TIP3    H223011   4.066   3.614   5.281
 7690TIP3   OH223012   4.225   3.611   5.373
 7690TIP3    H123013   4.307   3.586   5.327
 7690TIP3    H223014   4.214   3.537   5.436
 7691TIP3   OH223015   3.344   4.793   3.427
 7691TIP3    H123016   3.345   4.822   3.519
 7691TIP3    H223017   3.432   4.751   3.416
 7692TIP3   OH223018   5.051   3.669   5.161
 7692TIP3    H123019   5.069   3.639   5.253
 7692TIP3    H223020   5.140   3.665   5.120
 7693TIP3   OH223021   4.987   5.222   4.652
 7693TIP3    H123022   4.908   5.192   4.603
 7693TIP3    H223023   4.968   5.318   4.658
 7694TIP3   OH223024   6.499   4.878   3.490
 7694TIP3    H123025   6.466   4.837   3.570
 7694TIP3    H223026   6.530   4.964   3.522
 7695TIP3   OH223027   5.510   4.899   3.889
 7695TIP3    H123028   5.482   4.817   3.847
 7695TIP3    H223029   5.605   4.898   3.880
 7696TIP3   OH223030   6.150   5.360   3.499
 7696TIP3    H123031   6.200   5.291   3.450
 7696TIP3    H223032   6.139   5.318   3.585
 7697TIP3   OH223033   7.070   4.139   3.848
 7697TIP3    H123034   7.097   4.224   3.889
 7697TIP3    H223035   7.081   4.159   3.753
 7698TIP3   OH223036   5.789   3.983   3.840
 7698TIP3    H123037   5.767   4.045   3.768
 7698TIP3    H223038   5.753   3.900   3.802
 7699TIP3   OH223039   6.501   4.047   3.458
 7699TIP3    H123040   6.565   4.048   3.532
 7699TIP3    H223041   6.543   4.110   3.398
 7700TIP3   OH223042   7.141   4.352   4.013
 7700TIP3    H123043   7.055   4.394   3.994
 7700TIP3    H223044   7.153   4.376   4.106
 7701TIP3   OH223045   5.805   3.953   4.295
 7701TIP3    H123046   5.752   3.991   4.222
 7701TIP3    H223047   5.748   3.978   4.371
 7702TIP3   OH223048   6.180   4.838   3.258
 7702TIP3    H123049   6.118   4.770   3.227
 7702TIP3    H223050   6.118   4.912   3.277
 7703TIP3   OH223051   5.898   4.740   4.088
 7703TIP3    H123052   5.836   4.808   4.123
 7703TIP3    H223053   5.942   4.788   4.017
 7704TIP3   OH223054   6.700   4.074   3.649
 7704TIP3    H123055   6.682   4.047   3.740
 7704TIP3    H223056   6.745   4.160   3.665
 7705TIP3   OH223057   5.691   4.065   4.081
 7705TIP3    H123058   5.744   4.147   4.092
 7705TIP3    H223059   5.728   4.032   3.996
 7706TIP3   OH223060   5.730   4.941   4.167
 7706TIP3    H123061   5.706   5.031   4.136
 7706TIP3    H223062   5.653   4.923   4.225
 7707TIP3   OH223063   5.119   4.626   3.413
 7707TIP3    H123064   5.088   4.657   3.326
 7707TIP3    H223065   5.155   4.709   3.451
 7708TIP3   OH223066   6.567   5.141   3.644
 7708TIP3    H123067   6.478   5.132   3.685
 7708TIP3    H223068   6.558   5.228   3.601
 7709TIP3   OH223069   6.859   4.039   4.014
 7709TIP3    H123070   6.769   4.054   3.981
 7709TIP3    H223071   6.914   4.072   3.940
 7710TIP3   OH223072   6.153   3.681   3.998
 7710TIP3    H123073   6.139   3.586   4.017
 7710TIP3    H223074   6.075   3.720   4.043
 7711TIP3   OH223075   6.285   5.192   3.335
 7711TIP3    H123076   6.329   5.108   3.308
 7711TIP3    H223077   6.337   5.256   3.281
 7712TIP3   OH223078   6.413   4.965   3.236
 7712TIP3    H123079   6.328   4.916   3.230
 7712TIP3    H223080   6.452   4.925   3.316
 7713TIP3   OH223081   6.793   5.053   3.990
 7713TIP3    H123082   6.779   4.975   3.932
 7713TIP3    H223083   6.774   5.128   3.929
 7714TIP3   OH223084   6.110   4.497   3.215
 7714TIP3    H123085   6.018   4.529   3.211
 7714TIP3    H223086   6.119   4.447   3.133
 7715TIP3   OH223087   6.048   4.230   2.968
 7715TIP3    H123088   6.123   4.273   3.014
 7715TIP3    H223089   6.098   4.167   2.913
 7716TIP3   OH223090   6.988   4.694   3.837
 7716TIP3    H123091   6.904   4.744   3.842
 7716TIP3    H223092   7.017   4.715   3.746
 7717TIP3   OH223093   6.678   4.568   4.138
 7717TIP3    H123094   6.669   4.653   4.186
 7717TIP3    H223095   6.589   4.560   4.098
 7718TIP3   OH223096   6.329   5.138   3.767
 7718TIP3    H123097   6.314   5.217   3.822
 7718TIP3    H223098   6.321   5.064   3.831
 7719TIP3   OH223099   5.937   5.053   4.317
 7719TIP3    H123100   5.878   5.116   4.363
 7719TIP3    H223101   5.872   5.002   4.265
 7720TIP3   OH223102   6.286   4.373   3.034
 7720TIP3    H123103   6.305   4.459   3.074
 7720TIP3    H223104   6.314   4.391   2.941
 7721TIP3   OH223105   5.693   4.606   4.421
 7721TIP3    H123106   5.697   4.694   4.463
 7721TIP3    H223107   5.597   4.589   4.424
 7722TIP3   OH223108   6.029   5.058   3.303
 7722TIP3    H123109   6.083   5.125   3.348
 7722TIP3    H223110   5.942   5.099   3.297
 7723TIP3   OH223111   5.733   5.220   4.404
 7723TIP3    H123112   5.697   5.224   4.313
 7723TIP3    H223113   5.652   5.199   4.456
 7724TIP3   OH223114   6.789   3.626   3.096
 7724TIP3    H123115   6.709   3.649   3.147
 7724TIP3    H223116   6.803   3.709   3.045
 7725TIP3   OH223117   5.546   4.337   3.409
 7725TIP3    H123118   5.492   4.414   3.382
 7725TIP3    H223119   5.479   4.285   3.456
 7726TIP3   OH223120   5.318   4.753   4.353
 7726TIP3    H123121   5.247   4.739   4.285
 7726TIP3    H223122   5.344   4.662   4.375
 7727TIP3   OH223123   5.165   4.950   3.978
 7727TIP3    H123124   5.262   4.950   3.976
 7727TIP3    H223125   5.147   5.028   4.032
 7728TIP3   OH223126   7.029   5.399   4.038
 7728TIP3    H123127   7.029   5.303   4.055
 7728TIP3    H223128   6.946   5.425   4.085
 7729TIP3   OH223129   6.135   5.182   4.174
 7729TIP3    H123130   6.133   5.275   4.205
 7729TIP3    H223131   6.063   5.143   4.229
 7730TIP3   OH223132   5.899   5.321   3.118
 7730TIP3    H123133   5.844   5.295   3.043
 7730TIP3    H223134   5.859   5.404   3.148
 7731TIP3   OH223135   5.328   5.158   3.513
 7731TIP3    H123136   5.384   5.153   3.593
 7731TIP3    H223137   5.286   5.070   3.515
 7732TIP3   OH223138   6.107   5.203   2.765
 7732TIP3    H123139   6.160   5.124   2.751
 7732TIP3    H223140   6.132   5.224   2.858
 7733TIP3   OH223141   6.148   5.263   3.032
 7733TIP3    H123142   6.059   5.274   3.073
 7733TIP3    H223143   6.192   5.210   3.100
 7734TIP3   OH223144   6.919   4.529   4.312
 7734TIP3    H123145   6.836   4.540   4.262
 7734TIP3    H223146   6.934   4.433   4.302
 7735TIP3   OH223147   5.518   4.937   4.335
 7735TIP3    H123148   5.565   4.921   4.419
 7735TIP3    H223149   5.443   4.874   4.342
 7736TIP3   OH223150   5.912   3.758   4.120
 7736TIP3    H123151   5.821   3.730   4.096
 7736TIP3    H223152   5.890   3.837   4.173
 7737TIP3   OH223153   6.450   3.876   4.315
 7737TIP3    H123154   6.518   3.849   4.380
 7737TIP3    H223155   6.366   3.855   4.362
 7738TIP3   OH223156   6.689   4.303   4.239
 7738TIP3    H123157   6.638   4.301   4.323
 7738TIP3    H223158   6.665   4.390   4.202
 7739TIP3   OH223159   6.352   4.428   2.781
 7739TIP3    H123160   6.318   4.410   2.691
 7739TIP3    H223161   6.421   4.495   2.762
 7740TIP3   OH223162   6.060   3.808   3.082
 7740TIP3    H123163   6.075   3.772   3.169
 7740TIP3    H223164   6.009   3.734   3.042
 7741TIP3   OH223165   5.847   4.287   4.128
 7741TIP3    H123166   5.796   4.302   4.211
 7741TIP3    H223167   5.843   4.373   4.084
 7742TIP3   OH223168   5.717   4.129   3.619
 7742TIP3    H123169   5.639   4.164   3.663
 7742TIP3    H223170   5.723   4.189   3.544
 7743TIP3   OH223171   6.397   4.524   4.469
 7743TIP3    H123172   6.374   4.450   4.530
 7743TIP3    H223173   6.491   4.536   4.491
 7744TIP3   OH223174   5.676   4.295   4.342
 7744TIP3    H123175   5.684   4.369   4.403
 7744TIP3    H223176   5.662   4.219   4.401
 7745TIP3   OH223177   5.717   3.784   3.053
 7745TIP3    H123178   5.703   3.781   3.149
 7745TIP3    H223179   5.641   3.839   3.026
 7746TIP3   OH223180   5.232   3.815   3.451
 7746TIP3    H123181   5.272   3.854   3.370
 7746TIP3    H223182   5.168   3.884   3.475
 7747TIP3   OH223183   6.423   4.517   4.041
 7747TIP3    H123184   6.379   4.474   3.967
 7747TIP3    H223185   6.383   4.469   4.117
 7748TIP3   OH223186   6.031   3.986   3.721
 7748TIP3    H123187   5.954   3.990   3.782
 7748TIP3    H223188   6.105   3.993   3.784
 7749TIP3   OH223189   6.583   4.044   3.926
 7749TIP3    H123190   6.538   4.076   4.008
 7749TIP3    H223191   6.506   4.023   3.871
 7750TIP3   OH223192   5.610   4.040   3.197
 7750TIP3    H123193   5.534   4.012   3.143
 7750TIP3    H223194   5.663   4.090   3.132
 7751TIP3   OH223195   6.724   5.748   4.139
 7751TIP3    H123196   6.721   5.773   4.045
 7751TIP3    H223197   6.803   5.796   4.170
 7752TIP3   OH223198   5.678   4.856   4.558
 7752TIP3    H123199   5.757   4.888   4.605
 7752TIP3    H223200   5.612   4.859   4.631
 7753TIP3   OH223201   5.696   3.773   3.694
 7753TIP3    H123202   5.629   3.732   3.751
 7753TIP3    H223203   5.725   3.696   3.645
 7754TIP3   OH223204   6.113   4.191   4.130
 7754TIP3    H123205   6.029   4.237   4.114
 7754TIP3    H223206   6.174   4.263   4.152
 7755TIP3   OH223207   5.850   4.600   3.206
 7755TIP3    H123208   5.783   4.532   3.184
 7755TIP3    H223209   5.815   4.636   3.289
 7756TIP3   OH223210   6.751   4.835   3.822
 7756TIP3    H123211   6.782   4.888   3.744
 7756TIP3    H223212   6.665   4.804   3.793
 7757TIP3   OH223213   6.316   3.903   3.055
 7757TIP3    H123214   6.218   3.901   3.054
 7757TIP3    H223215   6.336   3.997   3.076
 7758TIP3   OH223216   6.256   4.922   4.192
 7758TIP3    H123217   6.276   4.898   4.284
 7758TIP3    H223218   6.213   5.008   4.201
 7759TIP3   OH223219   6.391   4.143   3.147
 7759TIP3    H123220   6.483   4.159   3.175
 7759TIP3    H223221   6.363   4.231   3.113
 7760TIP3   OH223222   5.995   4.741   3.009
 7760TIP3    H123223   5.955   4.831   3.019
 7760TIP3    H223224   5.942   4.691   3.074
 7761TIP3   OH223225   5.427   4.536   4.493
 7761TIP3    H123226   5.462   4.547   4.583
 7761TIP3    H223227   5.373   4.457   4.506
 7762TIP3   OH223228   6.155   4.657   4.510
 7762TIP3    H123229   6.094   4.601   4.459
 7762TIP3    H223230   6.242   4.622   4.480
 7763TIP3   OH223231   6.415   5.196   4.085
 7763TIP3    H123232   6.321   5.181   4.099
 7763TIP3    H223233   6.440   5.239   4.170
 7764TIP3   OH223234   6.824   4.255   2.996
 7764TIP3    H123235   6.761   4.207   2.937
 7764TIP3    H223236   6.816   4.343   2.954
 7765TIP3   OH223237   7.043   5.110   4.080
 7765TIP3    H123238   6.945   5.103   4.072
 7765TIP3    H223239   7.069   5.079   3.990
 7766TIP3   OH223240   6.529   5.065   2.887
 7766TIP3    H123241   6.494   4.996   2.945
 7766TIP3    H223242   6.531   5.019   2.801
 7767TIP3   OH223243   6.491   4.658   3.706
 7767TIP3    H123244   6.398   4.661   3.739
 7767TIP3    H223245   6.530   4.596   3.769
 7768TIP3   OH223246   5.212   4.231   3.204
 7768TIP3    H123247   5.260   4.314   3.227
 7768TIP3    H223248   5.135   4.236   3.265
 7769TIP3   OH223249   5.921   5.260   3.964
 7769TIP3    H123250   5.957   5.336   3.916
 7769TIP3    H223251   5.999   5.231   4.014
 7770TIP3   OH223252   5.543   5.187   3.315
 7770TIP3    H123253   5.485   5.161   3.388
 7770TIP3    H223254   5.578   5.272   3.345
 7771TIP3   OH223255   6.337   4.916   3.932
 7771TIP3    H123256   6.303   4.913   4.024
 7771TIP3    H223257   6.378   4.830   3.924
 7772TIP3   OH223258   6.221   4.799   2.838
 7772TIP3    H123259   6.305   4.767   2.876
 7772TIP3    H223260   6.157   4.769   2.904
 7773TIP3   OH223261   6.557   5.435   3.979
 7773TIP3    H123262   6.480   5.374   3.981
 7773TIP3    H223263   6.532   5.496   3.905
 7774TIP3   OH223264   6.629   5.285   2.631
 7774TIP3    H123265   6.646   5.356   2.568
 7774TIP3    H223266   6.541   5.310   2.664
 7775TIP3   OH223267   5.638   4.047   4.499
 7775TIP3    H123268   5.541   4.049   4.506
 7775TIP3    H223269   5.662   3.986   4.570
 7776TIP3   OH223270   6.437   4.710   3.005
 7776TIP3    H123271   6.428   4.729   3.099
 7776TIP3    H223272   6.535   4.714   2.993
 7777TIP3   OH223273   5.357   5.132   4.125
 7777TIP3    H123274   5.409   5.059   4.161
 7777TIP3    H223275   5.379   5.203   4.185
 7778TIP3   OH223276   5.639   4.780   2.810
 7778TIP3    H123277   5.664   4.690   2.783
 7778TIP3    H223278   5.625   4.768   2.906
 7779TIP3   OH223279   5.586   4.782   3.083
 7779TIP3    H123280   5.642   4.759   3.158
 7779TIP3    H223281   5.590   4.881   3.087
 7780TIP3   OH223282   5.321   4.476   3.287
 7780TIP3    H123283   5.260   4.522   3.348
 7780TIP3    H223284   5.339   4.547   3.222
 7781TIP3   OH223285   6.477   4.117   4.176
 7781TIP3    H123286   6.559   4.152   4.214
 7781TIP3    H223287   6.463   4.035   4.228
 7782TIP3   OH223288   6.342   3.866   3.333
 7782TIP3    H123289   6.343   3.890   3.239
 7782TIP3    H223290   6.398   3.938   3.372
 7783TIP3   OH223291   5.859   4.976   3.028
 7783TIP3    H123292   5.771   4.998   3.065
 7783TIP3    H223293   5.874   5.052   2.971
 7784TIP3   OH223294   6.318   4.364   4.242
 7784TIP3    H123295   6.337   4.412   4.325
 7784TIP3    H223296   6.366   4.281   4.255
 7785TIP3   OH223297   6.184   3.812   3.542
 7785TIP3    H123298   6.239   3.821   3.625
 7785TIP3    H223299   6.254   3.818   3.473
 7786TIP3   OH223300   5.601   5.053   3.088
 7786TIP3    H123301   5.571   5.126   3.029
 7786TIP3    H223302   5.582   5.094   3.176
 7787TIP3   OH223303   5.682   3.756   3.325
 7787TIP3    H123304   5.662   3.843   3.364
 7787TIP3    H223305   5.749   3.718   3.383
 7788TIP3   OH223306   6.954   4.260   4.230
 7788TIP3    H123307   6.856   4.261   4.241
 7788TIP3    H223308   6.960   4.213   4.146
 7789TIP3   OH223309   5.318   4.685   3.089
 7789TIP3    H123310   5.390   4.750   3.102
 7789TIP3    H223311   5.363   4.627   3.023
 7790TIP3   OH223312   5.263   3.960   3.218
 7790TIP3    H123313   5.263   4.057   3.217
 7790TIP3    H223314   5.175   3.939   3.184
 7791TIP3   OH223315   6.576   5.414   3.569
 7791TIP3    H123316   6.532   5.461   3.494
 7791TIP3    H223317   6.670   5.430   3.547
 7792TIP3   OH223318   5.645   3.685   4.096
 7792TIP3    H123319   5.613   3.653   4.009
 7792TIP3    H223320   5.633   3.606   4.152
 7793TIP3   OH223321   5.180   4.893   3.481
 7793TIP3    H123322   5.105   4.935   3.526
 7793TIP3    H223323   5.172   4.932   3.391
 7794TIP3   OH223324   5.349   5.445   4.547
 7794TIP3    H123325   5.434   5.445   4.596
 7794TIP3    H223326   5.326   5.350   4.548
 7795TIP3   OH223327   5.826   5.401   4.594
 7795TIP3    H123328   5.921   5.383   4.600
 7795TIP3    H223329   5.800   5.341   4.522
 7796TIP3   OH223330   5.809   4.979   2.717
 7796TIP3    H123331   5.756   4.907   2.758
 7796TIP3    H223332   5.888   4.928   2.689
 7797TIP3   OH223333   6.465   5.313   4.330
 7797TIP3    H123334   6.458   5.242   4.398
 7797TIP3    H223335   6.543   5.363   4.360
 7798TIP3   OH223336   5.479   4.849   4.752
 7798TIP3    H123337   5.493   4.753   4.757
 7798TIP3    H223338   5.391   4.854   4.707
 7799TIP3   OH223339   5.454   4.496   2.945
 7799TIP3    H123340   5.510   4.464   3.018
 7799TIP3    H223341   5.521   4.501   2.873
 7800TIP3   OH223342   6.084   4.933   4.523
 7800TIP3    H123343   6.041   4.952   4.437
 7800TIP3    H223344   6.114   4.840   4.513
 7801TIP3   OH223345   5.937   4.687   2.743
 7801TIP3    H123346   5.960   4.708   2.836
 7801TIP3    H223347   5.953   4.591   2.742
 7802TIP3   OH223348   6.580   4.941   4.133
 7802TIP3    H123349   6.652   4.993   4.091
 7802TIP3    H223350   6.503   4.994   4.108
 7803TIP3   OH223351   5.593   4.585   4.729
 7803TIP3    H123352   5.670   4.534   4.701
 7803TIP3    H223353   5.621   4.615   4.818
 7804TIP3   OH223354   5.662   4.401   3.164
 7804TIP3    H123355   5.628   4.363   3.248
 7804TIP3    H223356   5.694   4.321   3.118
 7805TIP3   OH223357   5.933   4.466   4.398
 7805TIP3    H123358   5.852   4.522   4.397
 7805TIP3    H223359   5.982   4.500   4.319
 7806TIP3   OH223360   5.762   4.191   3.011
 7806TIP3    H123361   5.733   4.198   2.917
 7806TIP3    H223362   5.859   4.198   3.000
 7807TIP3   OH223363   6.449   4.867   4.526
 7807TIP3    H123364   6.526   4.838   4.476
 7807TIP3    H223365   6.444   4.801   4.597
 7808TIP3   OH223366   6.578   4.559   2.665
 7808TIP3    H123367   6.552   4.514   2.582
 7808TIP3    H223368   6.565   4.653   2.639
 7809TIP3   OH223369   6.057   4.256   4.520
 7809TIP3    H123370   6.055   4.175   4.464
 7809TIP3    H223371   6.012   4.321   4.462
 7810TIP3   OH223372   6.059   4.035   4.345
 7810TIP3    H123373   6.084   4.082   4.262
 7810TIP3    H223374   5.966   4.010   4.325
 7811TIP3   OH223375   6.078   4.574   4.202
 7811TIP3    H123376   6.149   4.571   4.138
 7811TIP3    H223377   6.015   4.636   4.158
 7812TIP3   OH223378   6.665   4.543   4.580
 7812TIP3    H123379   6.713   4.459   4.585
 7812TIP3    H223380   6.733   4.602   4.545
 7813TIP3   OH223381   6.707   4.797   4.321
 7813TIP3    H123382   6.650   4.852   4.262
 7813TIP3    H223383   6.795   4.816   4.281
 7814TIP3   OH223384   5.937   4.361   4.754
 7814TIP3    H123385   5.867   4.294   4.767
 7814TIP3    H223386   5.967   4.341   4.664
 7815TIP3   OH223387   6.191   3.800   4.397
 7815TIP3    H123388   6.142   3.883   4.377
 7815TIP3    H223389   6.121   3.733   4.384
 7816TIP3   OH223390   6.314   4.305   4.611
 7816TIP3    H123391   6.296   4.292   4.705
 7816TIP3    H223392   6.226   4.283   4.574
 7817TIP3   OH223393   6.555   4.260   4.468
 7817TIP3    H123394   6.478   4.259   4.528
 7817TIP3    H223395   6.628   4.228   4.524
 7818TIP3   OH223396   6.784   4.199   4.617
 7818TIP3    H123397   6.797   4.103   4.632
 7818TIP3    H223398   6.781   4.235   4.708
 7819TIP3   OH223399   5.772   4.144   4.806
 7819TIP3    H123400   5.775   4.053   4.769
 7819TIP3    H223401   5.808   4.128   4.896
 7820TIP3   OH223402   6.282   3.813   4.654
 7820TIP3    H123403   6.349   3.741   4.648
 7820TIP3    H223404   6.243   3.808   4.565
 7821TIP3   OH223405   6.348   4.026   4.812
 7821TIP3    H123406   6.327   3.955   4.748
 7821TIP3    H223407   6.271   4.085   4.804
 7822TIP3   OH223408   5.574   5.265   2.907
 7822TIP3    H123409   5.668   5.250   2.889
 7822TIP3    H223410   5.548   5.313   2.827
 7823TIP3   OH223411   5.051   4.640   3.125
 7823TIP3    H123412   5.146   4.662   3.112
 7823TIP3    H223413   5.046   4.551   3.085
 7824TIP3   OH223414   4.967   5.251   3.539
 7824TIP3    H123415   4.899   5.189   3.506
 7824TIP3    H223416   5.011   5.195   3.607
 7825TIP3   OH223417   5.095   5.104   3.731
 7825TIP3    H123418   5.091   5.028   3.792
 7825TIP3    H223419   5.150   5.165   3.783
 7826TIP3   OH223420   6.835   5.497   3.529
 7826TIP3    H123421   6.852   5.525   3.622
 7826TIP3    H223422   6.877   5.568   3.479
 7827TIP3   OH223423   6.858   5.520   3.809
 7827TIP3    H123424   6.811   5.433   3.808
 7827TIP3    H223425   6.930   5.499   3.870
 7828TIP3   OH223426   6.904   5.200   4.382
 7828TIP3    H123427   6.832   5.208   4.448
 7828TIP3    H223428   6.946   5.288   4.388
 7829TIP3   OH223429   6.719   4.707   3.012
 7829TIP3    H123430   6.783   4.773   2.980
 7829TIP3    H223431   6.763   4.673   3.092
 7830TIP3   OH223432   6.851   4.580   3.225
 7830TIP3    H123433   6.824   4.523   3.297
 7830TIP3    H223434   6.927   4.628   3.264
 7831TIP3   OH223435   6.902   4.971   3.638
 7831TIP3    H123436   6.958   4.906   3.591
 7831TIP3    H223437   6.894   5.043   3.572
 7832TIP3   OH223438   6.731   5.272   3.831
 7832TIP3    H123439   6.661   5.314   3.885
 7832TIP3    H223440   6.679   5.226   3.762
 7833TIP3   OH223441   6.778   4.491   2.848
 7833TIP3    H123442   6.708   4.500   2.780
 7833TIP3    H223443   6.752   4.566   2.905
 7834TIP3   OH223444   6.660   4.159   2.804
 7834TIP3    H123445   6.610   4.199   2.732
 7834TIP3    H223446   6.633   4.065   2.795
 7835TIP3   OH223447   6.951   4.861   4.210
 7835TIP3    H123448   7.022   4.794   4.199
 7835TIP3    H223449   6.977   4.930   4.147
 7836TIP3   OH223450   7.134   4.663   4.218
 7836TIP3    H123451   7.060   4.614   4.259
 7836TIP3    H223452   7.207   4.600   4.236
 7837TIP3   OH223453   6.600   3.893   2.790
 7837TIP3    H123454   6.673   3.863   2.847
 7837TIP3    H223455   6.526   3.834   2.813
 7838TIP3   OH223456   6.656   4.153   3.233
 7838TIP3    H123457   6.699   4.067   3.255
 7838TIP3    H223458   6.719   4.189   3.169
 7839TIP3   OH223459   6.824   4.314   3.738
 7839TIP3    H123460   6.906   4.347   3.697
 7839TIP3    H223461   6.829   4.357   3.824
 7840TIP3   OH223462   6.891   4.470   3.970
 7840TIP3    H123463   6.817   4.504   4.024
 7840TIP3    H223464   6.923   4.551   3.926
 7841TIP3   OH223465   5.505   4.195   4.773
 7841TIP3    H123466   5.603   4.188   4.776
 7841TIP3    H223467   5.480   4.109   4.812
 7842TIP3   OH223468   7.339   4.063   4.528
 7842TIP3    H123469   7.399   3.998   4.485
 7842TIP3    H223470   7.310   4.117   4.452
 7843TIP3   OH223471   6.770   3.905   3.282
 7843TIP3    H123472   6.813   3.892   3.369
 7843TIP3    H223473   6.705   3.831   3.283
 7844TIP3   OH223474   5.463   3.914   4.135
 7844TIP3    H123475   5.506   3.827   4.124
 7844TIP3    H223476   5.541   3.972   4.123
 7845TIP3   OH223477   7.209   4.200   4.333
 7845TIP3    H123478   7.123   4.242   4.353
 7845TIP3    H223479   7.178   4.127   4.275
 7846TIP3   OH223480   6.845   3.834   2.919
 7846TIP3    H123481   6.885   3.765   2.863
 7846TIP3    H223482   6.911   3.906   2.914
 7847TIP3   OH223483   5.260   3.634   3.652
 7847TIP3    H123484   5.205   3.654   3.729
 7847TIP3    H223485   5.253   3.714   3.597
 7848TIP3   OH223486   6.411   5.374   3.179
 7848TIP3    H123487   6.462   5.355   3.097
 7848TIP3    H223488   6.469   5.436   3.225
 7849TIP3   OH223489   5.475   3.746   4.496
 7849TIP3    H123490   5.421   3.740   4.577
 7849TIP3    H223491   5.409   3.784   4.434
 7850TIP3   OH223492   5.513   5.171   4.568
 7850TIP3    H123493   5.419   5.150   4.552
 7850TIP3    H223494   5.520   5.157   4.663
 7851TIP3   OH223495   5.694   5.209   4.117
 7851TIP3    H123496   5.643   5.284   4.078
 7851TIP3    H223497   5.778   5.224   4.069
 7852TIP3   OH223498   6.133   5.449   4.253
 7852TIP3    H123499   6.174   5.449   4.342
 7852TIP3    H223500   6.199   5.502   4.203
 7853TIP3   OH223501   6.312   5.604   4.115
 7853TIP3    H123502   6.381   5.551   4.074
 7853TIP3    H223503   6.365   5.660   4.175
 7854TIP3   OH223504   7.109   3.963   4.214
 7854TIP3    H123505   7.019   3.956   4.177
 7854TIP3    H223506   7.141   3.870   4.202
 7855TIP3   OH223507   5.367   5.464   4.141
 7855TIP3    H123508   5.276   5.494   4.119
 7855TIP3    H223509   5.378   5.505   4.228
 7856TIP3   OH223510   5.604   5.444   4.001
 7856TIP3    H123511   5.516   5.455   4.045
 7856TIP3    H223512   5.583   5.473   3.910
 7857TIP3   OH223513   6.028   5.468   3.797
 7857TIP3    H123514   5.956   5.486   3.733
 7857TIP3    H223515   6.039   5.556   3.840
 7858TIP3   OH223516   6.297   5.411   3.849
 7858TIP3    H123517   6.202   5.425   3.829
 7858TIP3    H223518   6.338   5.487   3.805
 7859TIP3   OH223519   6.506   5.601   3.763
 7859TIP3    H123520   6.491   5.685   3.714
 7859TIP3    H223521   6.530   5.540   3.690
 7860TIP3   OH223522   5.278   5.257   3.886
 7860TIP3    H123523   5.304   5.228   3.975
 7860TIP3    H223524   5.350   5.216   3.834
 7861TIP3   OH223525   5.474   5.138   3.742
 7861TIP3    H123526   5.489   5.047   3.776
 7861TIP3    H223527   5.566   5.168   3.727
 7862TIP3   OH223528   5.743   5.223   3.720
 7862TIP3    H123529   5.763   5.140   3.670
 7862TIP3    H223530   5.796   5.213   3.800
 7863TIP3   OH223531   6.290   3.846   3.790
 7863TIP3    H123532   6.266   3.797   3.871
 7863TIP3    H223533   6.385   3.826   3.781
 7864TIP3   OH223534   6.834   3.757   3.734
 7864TIP3    H123535   6.872   3.811   3.661
 7864TIP3    H223536   6.742   3.787   3.735
 7865TIP3   OH223537   6.933   3.859   3.501
 7865TIP3    H123538   7.006   3.808   3.461
 7865TIP3    H223539   6.965   3.951   3.486
 7866TIP3   OH223540   5.568   3.591   3.848
 7866TIP3    H123541   5.475   3.557   3.847
 7866TIP3    H223542   5.614   3.505   3.844
 7867TIP3   OH223543   5.346   3.446   3.477
 7867TIP3    H123544   5.373   3.512   3.411
 7867TIP3    H223545   5.316   3.505   3.550
 7868TIP3   OH223546   6.001   3.626   3.722
 7868TIP3    H123547   6.082   3.671   3.693
 7868TIP3    H223548   5.998   3.652   3.816
 7869TIP3   OH223549   6.547   3.765   3.715
 7869TIP3    H123550   6.567   3.727   3.628
 7869TIP3    H223551   6.538   3.684   3.771
 7870TIP3   OH223552   6.585   3.690   3.276
 7870TIP3    H123553   6.496   3.727   3.281
 7870TIP3    H223554   6.573   3.604   3.323
 7871TIP3   OH223555   5.068   5.026   3.270
 7871TIP3    H123556   4.981   4.995   3.239
 7871TIP3    H223557   5.055   5.121   3.272
 7872TIP3   OH223558   5.457   3.611   3.251
 7872TIP3    H123559   5.506   3.547   3.196
 7872TIP3    H223560   5.529   3.668   3.284
 7873TIP3   OH223561   5.839   5.213   2.854
 7873TIP3    H123562   5.928   5.233   2.819
 7873TIP3    H223563   5.817   5.135   2.797
 7874TIP3   OH223564   6.561   5.331   2.950
 7874TIP3    H123565   6.558   5.233   2.932
 7874TIP3    H223566   6.518   5.364   2.869
 7875TIP3   OH223567   5.769   3.869   4.743
 7875TIP3    H123568   5.736   3.796   4.799
 7875TIP3    H223569   5.864   3.868   4.769
 7876TIP3   OH223570   6.021   3.867   4.860
 7876TIP3    H123571   6.103   3.840   4.818
 7876TIP3    H223572   6.008   3.795   4.926
 7877TIP3   OH223573   5.145   5.055   2.917
 7877TIP3    H123574   5.151   5.062   3.013
 7877TIP3    H223575   5.231   5.011   2.896
 7878TIP3   OH223576   6.846   3.929   4.646
 7878TIP3    H123577   6.866   3.897   4.737
 7878TIP3    H223578   6.935   3.924   4.605
 7879TIP3   OH223579   6.783   5.479   4.138
 7879TIP3    H123580   6.704   5.448   4.090
 7879TIP3    H223581   6.763   5.574   4.146
 7880TIP3   OH223582   8.050   4.854   2.901
 7880TIP3    H123583   8.019   4.945   2.883
 7880TIP3    H223584   7.973   4.802   2.873
 7881TIP3   OH223585   8.042   4.844   3.284
 7881TIP3    H123586   8.074   4.841   3.376
 7881TIP3    H223587   8.004   4.755   3.273
 7882TIP3   OH223588   7.346   4.745   3.652
 7882TIP3    H123589   7.374   4.676   3.715
 7882TIP3    H223590   7.426   4.800   3.650
 7883TIP3   OH223591   8.287   5.141   2.970
 7883TIP3    H123592   8.277   5.076   3.041
 7883TIP3    H223593   8.279   5.225   3.018
 7884TIP3   OH223594   7.334   5.158   3.362
 7884TIP3    H123595   7.309   5.063   3.360
 7884TIP3    H223596   7.405   5.156   3.428
 7885TIP3   OH223597   7.026   4.358   3.156
 7885TIP3    H123598   6.979   4.442   3.164
 7885TIP3    H223599   6.957   4.303   3.115
 7886TIP3   OH223600   7.092   4.650   3.331
 7886TIP3    H123601   7.137   4.571   3.366
 7886TIP3    H223602   7.156   4.682   3.266
 7887TIP3   OH223603   7.952   5.614   3.001
 7887TIP3    H123604   7.987   5.540   2.948
 7887TIP3    H223605   7.986   5.591   3.089
 7888TIP3   OH223606   7.847   5.074   3.331
 7888TIP3    H123607   7.890   4.997   3.291
 7888TIP3    H223608   7.930   5.119   3.362
 7889TIP3   OH223609   8.260   4.599   3.360
 7889TIP3    H123610   8.270   4.506   3.388
 7889TIP3    H223611   8.210   4.584   3.277
 7890TIP3   OH223612   7.597   4.238   3.333
 7890TIP3    H123613   7.581   4.310   3.268
 7890TIP3    H223614   7.550   4.165   3.288
 7891TIP3   OH223615   8.286   4.329   2.966
 7891TIP3    H123616   8.350   4.272   3.010
 7891TIP3    H223617   8.343   4.378   2.905
 7892TIP3   OH223618   7.233   4.442   3.437
 7892TIP3    H123619   7.315   4.421   3.486
 7892TIP3    H223620   7.245   4.385   3.359
 7893TIP3   OH223621   7.672   4.638   3.233
 7893TIP3    H123622   7.766   4.613   3.246
 7893TIP3    H223623   7.634   4.553   3.201
 7894TIP3   OH223624   7.595   4.222   3.766
 7894TIP3    H123625   7.535   4.259   3.698
 7894TIP3    H223626   7.541   4.239   3.847
 7895TIP3   OH223627   7.943   5.078   2.768
 7895TIP3    H123628   7.898   5.057   2.684
 7895TIP3    H223629   7.892   5.156   2.798
 7896TIP3   OH223630   7.699   4.997   3.557
 7896TIP3    H123631   7.642   5.066   3.596
 7896TIP3    H223632   7.753   5.049   3.494
 7897TIP3   OH223633   7.466   4.338   3.550
 7897TIP3    H123634   7.529   4.410   3.573
 7897TIP3    H223635   7.515   4.297   3.475
 7898TIP3   OH223636   7.523   5.194   3.646
 7898TIP3    H123637   7.507   5.288   3.625
 7898TIP3    H223638   7.449   5.178   3.709
 7899TIP3   OH223639   6.921   4.875   2.913
 7899TIP3    H123640   6.886   4.881   2.821
 7899TIP3    H223641   6.947   4.967   2.929
 7900TIP3   OH223642   7.940   3.932   3.483
 7900TIP3    H123643   7.922   3.838   3.501
 7900TIP3    H223644   7.862   3.974   3.527
 7901TIP3   OH223645   8.054   5.440   2.796
 7901TIP3    H123646   8.109   5.361   2.776
 7901TIP3    H223647   8.114   5.510   2.763
 7902TIP3   OH223648   8.202   5.220   2.716
 7902TIP3    H123649   8.136   5.149   2.704
 7902TIP3    H223650   8.249   5.190   2.797
 7903TIP3   OH223651   8.592   5.306   3.475
 7903TIP3    H123652   8.589   5.229   3.415
 7903TIP3    H223653   8.568   5.380   3.417
 7904TIP3   OH223654   7.879   4.704   2.736
 7904TIP3    H123655   7.797   4.754   2.716
 7904TIP3    H223656   7.921   4.700   2.649
 7905TIP3   OH223657   7.838   4.489   2.451
 7905TIP3    H123658   7.906   4.542   2.495
 7905TIP3    H223659   7.894   4.426   2.402
 7906TIP3   OH223660   8.222   4.783   2.705
 7906TIP3    H123661   8.166   4.813   2.781
 7906TIP3    H223662   8.295   4.740   2.754
 7907TIP3   OH223663   8.448   4.804   3.616
 7907TIP3    H123664   8.476   4.888   3.655
 7907TIP3    H223665   8.359   4.826   3.584
 7908TIP3   OH223666   7.465   4.787   3.122
 7908TIP3    H123667   7.420   4.727   3.058
 7908TIP3    H223668   7.538   4.730   3.154
 7909TIP3   OH223669   7.615   5.179   3.252
 7909TIP3    H123670   7.603   5.084   3.241
 7909TIP3    H223671   7.706   5.175   3.292
 7910TIP3   OH223672   7.593   4.756   3.476
 7910TIP3    H123673   7.631   4.730   3.390
 7910TIP3    H223674   7.641   4.839   3.497
 7911TIP3   OH223675   7.729   5.307   3.813
 7911TIP3    H123676   7.668   5.371   3.854
 7911TIP3    H223677   7.668   5.256   3.757
 7912TIP3   OH223678   8.066   4.638   2.532
 7912TIP3    H123679   8.122   4.701   2.582
 7912TIP3    H223680   8.092   4.660   2.439
 7913TIP3   OH223681   7.489   4.867   3.904
 7913TIP3    H123682   7.495   4.954   3.948
 7913TIP3    H223683   7.395   4.846   3.919
 7914TIP3   OH223684   7.804   5.327   2.818
 7914TIP3    H123685   7.890   5.373   2.824
 7914TIP3    H223686   7.752   5.389   2.765
 7915TIP3   OH223687   7.526   5.478   3.890
 7915TIP3    H123688   7.491   5.481   3.799
 7915TIP3    H223689   7.445   5.458   3.943
 7916TIP3   OH223690   7.325   4.631   2.933
 7916TIP3    H123691   7.257   4.674   2.876
 7916TIP3    H223692   7.292   4.540   2.938
 7917TIP3   OH223693   8.380   5.255   2.135
 7917TIP3    H123694   8.379   5.349   2.109
 7917TIP3    H223695   8.463   5.225   2.095
 7918TIP3   OH223696   7.108   5.011   3.836
 7918TIP3    H123697   7.040   4.987   3.770
 7918TIP3    H223698   7.145   4.924   3.861
 7919TIP3   OH223699   6.960   5.205   3.467
 7919TIP3    H123700   7.057   5.202   3.468
 7919TIP3    H223701   6.942   5.282   3.523
 7920TIP3   OH223702   7.907   5.446   3.653
 7920TIP3    H123703   7.919   5.534   3.692
 7920TIP3    H223704   7.852   5.400   3.719
 7921TIP3   OH223705   7.692   5.563   2.615
 7921TIP3    H123706   7.650   5.546   2.529
 7921TIP3    H223707   7.661   5.653   2.636
 7922TIP3   OH223708   7.128   5.413   2.995
 7922TIP3    H123709   7.118   5.388   3.088
 7922TIP3    H223710   7.077   5.340   2.954
 7923TIP3   OH223711   7.893   5.472   2.252
 7923TIP3    H123712   7.951   5.403   2.213
 7923TIP3    H223713   7.931   5.481   2.342
 7924TIP3   OH223714   7.945   5.520   2.522
 7924TIP3    H123715   7.857   5.526   2.566
 7924TIP3    H223716   8.000   5.486   2.594
 7925TIP3   OH223717   7.313   5.193   3.820
 7925TIP3    H123718   7.362   5.179   3.903
 7925TIP3    H223719   7.239   5.130   3.830
 7926TIP3   OH223720   7.710   4.016   3.612
 7926TIP3    H123721   7.621   3.986   3.584
 7926TIP3    H223722   7.684   4.098   3.658
 7927TIP3   OH223723   8.213   4.150   3.790
 7927TIP3    H123724   8.277   4.109   3.852
 7927TIP3    H223725   8.128   4.128   3.833
 7928TIP3   OH223726   8.520   4.558   3.731
 7928TIP3    H123727   8.458   4.562   3.807
 7928TIP3    H223728   8.496   4.640   3.683
 7929TIP3   OH223729   8.146   4.688   2.279
 7929TIP3    H123730   8.116   4.662   2.189
 7929TIP3    H223731   8.213   4.755   2.256
 7930TIP3   OH223732   7.870   4.062   2.583
 7930TIP3    H123733   7.831   4.061   2.673
 7930TIP3    H223734   7.825   3.983   2.546
 7931TIP3   OH223735   7.642   4.534   3.627
 7931TIP3    H123736   7.592   4.554   3.709
 7931TIP3    H223737   7.625   4.616   3.575
 7932TIP3   OH223738   7.526   4.420   3.142
 7932TIP3    H123739   7.434   4.391   3.161
 7932TIP3    H223740   7.539   4.378   3.055
 7933TIP3   OH223741   8.019   4.506   2.869
 7933TIP3    H123742   7.963   4.576   2.827
 7933TIP3    H223743   8.073   4.477   2.795
 7934TIP3   OH223744   8.190   4.780   3.955
 7934TIP3    H123745   8.168   4.708   4.018
 7934TIP3    H223746   8.284   4.793   3.974
 7935TIP3   OH223747   8.162   4.537   3.108
 7935TIP3    H123748   8.101   4.554   3.033
 7935TIP3    H223749   8.197   4.450   3.079
 7936TIP3   OH223750   7.461   4.561   3.836
 7936TIP3    H123751   7.491   4.623   3.904
 7936TIP3    H223752   7.449   4.479   3.887
 7937TIP3   OH223753   7.516   4.041   2.547
 7937TIP3    H123754   7.504   4.038   2.644
 7937TIP3    H223755   7.436   4.091   2.520
 7938TIP3   OH223756   7.057   4.082   3.415
 7938TIP3    H123757   7.132   4.114   3.470
 7938TIP3    H223758   7.099   4.049   3.335
 7939TIP3   OH223759   7.022   4.063   2.936
 7939TIP3    H123760   7.067   4.101   2.857
 7939TIP3    H223761   6.960   4.136   2.956
 7940TIP3   OH223762   8.164   4.785   3.532
 7940TIP3    H123763   8.206   4.719   3.472
 7940TIP3    H223764   8.142   4.727   3.608
 7941TIP3   OH223765   7.850   4.262   3.203
 7941TIP3    H123766   7.776   4.246   3.264
 7941TIP3    H223767   7.925   4.221   3.249
 7942TIP3   OH223768   7.289   4.296   3.211
 7942TIP3    H123769   7.194   4.301   3.183
 7942TIP3    H223770   7.313   4.204   3.188
 7943TIP3   OH223771   7.554   4.291   2.902
 7943TIP3    H123772   7.648   4.306   2.882
 7943TIP3    H223773   7.508   4.314   2.818
 7944TIP3   OH223774   8.269   4.333   3.399
 7944TIP3    H123775   8.258   4.341   3.496
 7944TIP3    H223776   8.346   4.274   3.393
 7945TIP3   OH223777   7.403   4.329   2.677
 7945TIP3    H123778   7.332   4.282   2.630
 7945TIP3    H223779   7.454   4.364   2.602
 7946TIP3   OH223780   8.511   6.012   3.622
 7946TIP3    H123781   8.508   6.023   3.524
 7946TIP3    H223782   8.583   6.071   3.645
 7947TIP3   OH223783   7.473   5.116   4.043
 7947TIP3    H123784   7.553   5.145   4.090
 7947TIP3    H223785   7.409   5.114   4.117
 7948TIP3   OH223786   7.939   4.573   3.305
 7948TIP3    H123787   8.000   4.521   3.250
 7948TIP3    H223788   7.941   4.524   3.389
 7949TIP3   OH223789   7.456   4.055   3.183
 7949TIP3    H123790   7.421   3.977   3.231
 7949TIP3    H223791   7.504   4.014   3.110
 7950TIP3   OH223792   7.912   4.467   3.594
 7950TIP3    H123793   7.823   4.505   3.606
 7950TIP3    H223794   7.969   4.530   3.642
 7951TIP3   OH223795   7.649   4.856   2.684
 7951TIP3    H123796   7.578   4.789   2.670
 7951TIP3    H223797   7.625   4.890   2.773
 7952TIP3   OH223798   8.553   5.088   3.301
 7952TIP3    H123799   8.562   5.103   3.206
 7952TIP3    H223800   8.465   5.048   3.304
 7953TIP3   OH223801   8.120   4.163   2.548
 7953TIP3    H123802   8.025   4.137   2.556
 7953TIP3    H223803   8.116   4.260   2.558
 7954TIP3   OH223804   8.029   5.173   3.689
 7954TIP3    H123805   8.080   5.167   3.770
 7954TIP3    H223806   8.026   5.269   3.672
 7955TIP3   OH223807   8.204   4.424   2.634
 7955TIP3    H123808   8.289   4.469   2.641
 7955TIP3    H223809   8.150   4.492   2.588
 7956TIP3   OH223810   7.345   4.879   3.359
 7956TIP3    H123811   7.383   4.845   3.275
 7956TIP3    H223812   7.387   4.820   3.424
 7957TIP3   OH223813   7.799   5.006   2.511
 7957TIP3    H123814   7.749   5.091   2.513
 7957TIP3    H223815   7.743   4.949   2.568
 7958TIP3   OH223816   7.225   4.799   3.974
 7958TIP3    H123817   7.243   4.784   4.069
 7958TIP3    H223818   7.156   4.732   3.958
 7959TIP3   OH223819   7.949   4.912   3.995
 7959TIP3    H123820   7.888   4.855   3.946
 7959TIP3    H223821   8.036   4.879   3.964
 7960TIP3   OH223822   8.212   5.396   3.605
 7960TIP3    H123823   8.170   5.435   3.526
 7960TIP3    H223824   8.217   5.473   3.665
 7961TIP3   OH223825   8.306   5.334   2.396
 7961TIP3    H123826   8.308   5.274   2.471
 7961TIP3    H223827   8.335   5.280   2.321
 7962TIP3   OH223828   8.312   4.959   3.227
 7962TIP3    H123829   8.219   4.945   3.251
 7962TIP3    H223830   8.338   4.869   3.200
 7963TIP3   OH223831   7.427   5.226   3.013
 7963TIP3    H123832   7.418   5.281   2.932
 7963TIP3    H223833   7.361   5.157   2.995
 7964TIP3   OH223834   7.008   4.486   2.693
 7964TIP3    H123835   7.050   4.573   2.710
 7964TIP3    H223836   6.928   4.493   2.748
 7965TIP3   OH223837   7.570   4.954   2.925
 7965TIP3    H123838   7.569   5.042   2.964
 7965TIP3    H223839   7.538   4.896   2.997
 7966TIP3   OH223840   7.717   5.512   3.458
 7966TIP3    H123841   7.749   5.583   3.399
 7966TIP3    H223842   7.799   5.488   3.506
 7967TIP3   OH223843   7.364   5.430   2.842
 7967TIP3    H123844   7.277   5.441   2.884
 7967TIP3    H223845   7.396   5.524   2.840
 7968TIP3   OH223846   8.093   5.127   3.421
 7968TIP3    H123847   8.082   5.143   3.517
 7968TIP3    H223848   8.185   5.150   3.407
 7969TIP3   OH223849   8.060   5.056   2.309
 7969TIP3    H123850   8.117   5.029   2.384
 7969TIP3    H223851   7.972   5.029   2.342
 7970TIP3   OH223852   8.345   5.704   3.472
 7970TIP3    H123853   8.278   5.642   3.433
 7970TIP3    H223854   8.343   5.771   3.399
 7971TIP3   OH223855   7.433   4.305   3.980
 7971TIP3    H123856   7.336   4.309   3.992
 7971TIP3    H223857   7.460   4.248   4.053
 7972TIP3   OH223858   8.231   4.979   2.512
 7972TIP3    H123859   8.221   4.910   2.581
 7972TIP3    H223860   8.306   5.029   2.545
 7973TIP3   OH223861   7.155   5.384   3.617
 7973TIP3    H123862   7.207   5.315   3.661
 7973TIP3    H223863   7.176   5.460   3.673
 7974TIP3   OH223864   7.440   5.034   2.295
 7974TIP3    H123865   7.453   4.941   2.267
 7974TIP3    H223866   7.420   5.022   2.390
 7975TIP3   OH223867   7.390   5.041   2.568
 7975TIP3    H123868   7.466   5.012   2.621
 7975TIP3    H223869   7.395   5.138   2.577
 7976TIP3   OH223870   7.124   4.735   2.774
 7976TIP3    H123871   7.052   4.774   2.828
 7976TIP3    H223872   7.130   4.802   2.703
 7977TIP3   OH223873   8.272   4.389   3.671
 7977TIP3    H123874   8.359   4.410   3.707
 7977TIP3    H223875   8.249   4.305   3.717
 7978TIP3   OH223876   8.131   4.131   2.838
 7978TIP3    H123877   8.132   4.144   2.742
 7978TIP3    H223878   8.179   4.209   2.871
 7979TIP3   OH223879   7.655   5.234   2.520
 7979TIP3    H123880   7.567   5.264   2.553
 7979TIP3    H223881   7.672   5.303   2.454
 7980TIP3   OH223882   7.835   4.303   2.931
 7980TIP3    H123883   7.903   4.372   2.917
 7980TIP3    H223884   7.841   4.291   3.029
 7981TIP3   OH223885   8.108   4.614   3.738
 7981TIP3    H123886   8.136   4.665   3.816
 7981TIP3    H223887   8.169   4.538   3.738
 7982TIP3   OH223888   7.978   4.013   3.031
 7982TIP3    H123889   8.006   4.065   3.109
 7982TIP3    H223890   8.033   4.056   2.961
 7983TIP3   OH223891   7.400   5.314   2.588
 7983TIP3    H123892   7.370   5.379   2.521
 7983TIP3    H223893   7.383   5.363   2.671
 7984TIP3   OH223894   7.497   4.025   2.823
 7984TIP3    H123895   7.493   4.115   2.861
 7984TIP3    H223896   7.593   4.008   2.830
 7985TIP3   OH223897   8.396   4.695   3.139
 7985TIP3    H123898   8.311   4.656   3.112
 7985TIP3    H223899   8.403   4.656   3.228
 7986TIP3   OH223900   7.125   4.942   2.570
 7986TIP3    H123901   7.198   5.006   2.577
 7986TIP3    H223902   7.164   4.880   2.504
 7987TIP3   OH223903   7.058   4.215   2.711
 7987TIP3    H123904   7.057   4.313   2.710
 7987TIP3    H223905   6.977   4.195   2.663
 7988TIP3   OH223906   8.412   5.677   3.036
 7988TIP3    H123907   8.350   5.721   2.975
 7988TIP3    H223908   8.493   5.726   3.021
 7989TIP3   OH223909   7.448   3.936   3.582
 7989TIP3    H123910   7.416   3.902   3.496
 7989TIP3    H223911   7.436   3.857   3.640
 7990TIP3   OH223912   6.990   5.164   2.962
 7990TIP3    H123913   6.919   5.180   3.025
 7990TIP3    H223914   6.950   5.197   2.879
 7991TIP3   OH223915   7.145   5.702   4.035
 7991TIP3    H123916   7.231   5.703   4.083
 7991TIP3    H223917   7.126   5.607   4.035
 7992TIP3   OH223918   7.621   5.658   4.082
 7992TIP3    H123919   7.717   5.643   4.087
 7992TIP3    H223920   7.598   5.598   4.008
 7993TIP3   OH223921   7.606   5.237   2.209
 7993TIP3    H123922   7.551   5.163   2.245
 7993TIP3    H223923   7.680   5.187   2.171
 7994TIP3   OH223924   8.249   5.579   3.823
 7994TIP3    H123925   8.250   5.503   3.885
 7994TIP3    H223926   8.332   5.626   3.846
 7995TIP3   OH223927   8.033   5.279   2.118
 7995TIP3    H123928   8.078   5.217   2.178
 7995TIP3    H223929   8.088   5.274   2.036
 7996TIP3   OH223930   7.273   5.105   4.236
 7996TIP3    H123931   7.290   5.009   4.243
 7996TIP3    H223932   7.185   5.107   4.192
 7997TIP3   OH223933   7.253   4.750   2.429
 7997TIP3    H123934   7.308   4.718   2.502
 7997TIP3    H223935   7.320   4.754   2.357
 7998TIP3   OH223936   7.881   5.190   4.012
 7998TIP3    H123937   7.843   5.212   3.925
 7998TIP3    H223938   7.913   5.098   3.999
 7999TIP3   OH223939   7.761   4.953   2.240
 7999TIP3    H123940   7.763   4.963   2.337
 7999TIP3    H223941   7.765   4.855   2.232
 8000TIP3   OH223942   8.385   5.187   3.615
 8000TIP3    H123943   8.460   5.236   3.574
 8000TIP3    H223944   8.317   5.258   3.614
 8001TIP3   OH223945   7.392   4.841   4.219
 8001TIP3    H123946   7.468   4.785   4.196
 8001TIP3    H223947   7.419   4.872   4.308
 8002TIP3   OH223948   7.461   4.658   2.652
 8002TIP3    H123949   7.429   4.615   2.732
 8002TIP3    H223950   7.495   4.582   2.600
 8003TIP3   OH223951   7.727   4.721   3.878
 8003TIP3    H123952   7.651   4.782   3.880
 8003TIP3    H223953   7.778   4.755   3.800
 8004TIP3   OH223954   7.560   4.454   2.491
 8004TIP3    H123955   7.533   4.458   2.396
 8004TIP3    H223956   7.657   4.457   2.482
 8005TIP3   OH223957   8.245   5.124   4.014
 8005TIP3    H123958   8.319   5.095   3.959
 8005TIP3    H223959   8.241   5.055   4.082
 8006TIP3   OH223960   7.853   4.512   4.004
 8006TIP3    H123961   7.852   4.433   3.946
 8006TIP3    H223962   7.809   4.579   3.947
 8007TIP3   OH223963   7.853   4.297   3.814
 8007TIP3    H123964   7.881   4.341   3.730
 8007TIP3    H223965   7.759   4.276   3.794
 8008TIP3   OH223966   7.879   4.830   3.683
 8008TIP3    H123967   7.967   4.845   3.645
 8008TIP3    H223968   7.826   4.900   3.640
 8009TIP3   OH223969   8.464   4.803   4.070
 8009TIP3    H123970   8.507   4.718   4.054
 8009TIP3    H223971   8.525   4.865   4.027
 8010TIP3   OH223972   8.510   5.048   3.809
 8010TIP3    H123973   8.458   5.102   3.745
 8010TIP3    H223974   8.592   5.034   3.756
 8011TIP3   OH223975   7.731   4.618   4.238
 8011TIP3    H123976   7.662   4.550   4.253
 8011TIP3    H223977   7.764   4.593   4.149
 8012TIP3   OH223978   7.974   4.060   3.886
 8012TIP3    H123979   7.924   4.141   3.863
 8012TIP3    H223980   7.906   3.990   3.874
 8013TIP3   OH223981   8.112   4.560   4.096
 8013TIP3    H123982   8.093   4.548   4.191
 8013TIP3    H223983   8.023   4.539   4.060
 8014TIP3   OH223984   8.355   4.519   3.951
 8014TIP3    H123985   8.274   4.520   4.006
 8014TIP3    H223986   8.419   4.476   4.011
 8015TIP3   OH223987   8.555   4.422   4.113
 8015TIP3    H123988   8.601   4.343   4.142
 8015TIP3    H223989   8.562   4.481   4.191
 8016TIP3   OH223990   7.568   4.399   4.292
 8016TIP3    H123991   7.573   4.307   4.259
 8016TIP3    H223992   7.605   4.388   4.382
 8017TIP3   OH223993   8.079   4.071   4.140
 8017TIP3    H123994   8.135   3.992   4.137
 8017TIP3    H223995   8.037   4.067   4.052
 8018TIP3   OH223996   8.148   4.288   4.296
 8018TIP3    H123997   8.124   4.216   4.233
 8018TIP3    H223998   8.070   4.346   4.291
 8019TIP3   OH223999   7.369   5.515   2.400
 8019TIP3    H124000   7.464   5.508   2.379
 8019TIP3    H224001   7.339   5.563   2.321
 8020TIP3   OH224002   6.874   4.869   2.650
 8020TIP3    H124003   6.953   4.899   2.602
 8020TIP3    H224004   6.831   4.809   2.587
 8021TIP3   OH224005   6.760   5.506   3.031
 8021TIP3    H124006   6.697   5.444   2.990
 8021TIP3    H224007   6.806   5.446   3.094
 8022TIP3   OH224008   6.904   5.358   3.218
 8022TIP3    H124009   6.885   5.284   3.277
 8022TIP3    H224010   6.944   5.421   3.280
 8023TIP3   OH224011   8.697   5.746   3.295
 8023TIP3    H124012   8.634   5.672   3.278
 8023TIP3    H224013   8.674   5.766   3.387
 8024TIP3   OH224014   8.672   5.473   3.874
 8024TIP3    H124015   8.602   5.473   3.942
 8024TIP3    H224016   8.709   5.563   3.881
 8025TIP3   OH224017   8.507   5.531   3.312
 8025TIP3    H124018   8.453   5.569   3.383
 8025TIP3    H224019   8.438   5.521   3.244
 8026TIP3   OH224020   8.433   4.659   2.833
 8026TIP3    H124021   8.522   4.618   2.843
 8026TIP3    H224022   8.428   4.706   2.918
 8027TIP3   OH224023   7.083   4.768   3.583
 8027TIP3    H124024   7.082   4.734   3.491
 8027TIP3    H224025   7.179   4.767   3.602
 8028TIP3   OH224026   7.302   4.453   4.262
 8028TIP3    H124027   7.399   4.447   4.265
 8028TIP3    H224028   7.278   4.366   4.301
 8029TIP3   OH224029   7.264   4.145   3.587
 8029TIP3    H124030   7.326   4.070   3.598
 8029TIP3    H224031   7.327   4.219   3.582
 8030TIP3   OH224032   7.066   4.422   3.663
 8030TIP3    H124033   7.116   4.416   3.579
 8030TIP3    H224034   7.100   4.503   3.701
 8031TIP3   OH224035   7.049   3.920   3.164
 8031TIP3    H124036   6.956   3.917   3.194
 8031TIP3    H224037   7.043   3.979   3.087
 8032TIP3   OH224038   8.200   5.629   2.674
 8032TIP3    H124039   8.251   5.618   2.590
 8032TIP3    H224040   8.259   5.687   2.725
 8033TIP3   OH224041   7.270   3.999   3.979
 8033TIP3    H124042   7.219   3.996   4.061
 8033TIP3    H224043   7.204   4.039   3.919
 8034TIP3   OH224044   7.306   5.430   4.054
 8034TIP3    H124045   7.213   5.405   4.041
 8034TIP3    H224046   7.320   5.411   4.147
 8035TIP3   OH224047   7.491   5.462   3.600
 8035TIP3    H124048   7.446   5.541   3.562
 8035TIP3    H224049   7.579   5.474   3.557
 8036TIP3   OH224050   7.928   5.711   3.744
 8036TIP3    H124051   7.973   5.709   3.831
 8036TIP3    H224052   7.996   5.755   3.689
 8037TIP3   OH224053   8.110   5.854   3.597
 8037TIP3    H124054   8.179   5.801   3.553
 8037TIP3    H224055   8.164   5.910   3.656
 8038TIP3   OH224056   7.160   5.718   3.630
 8038TIP3    H124057   7.070   5.752   3.610
 8038TIP3    H224058   7.178   5.763   3.713
 8039TIP3   OH224059   7.392   5.690   3.482
 8039TIP3    H124060   7.307   5.706   3.530
 8039TIP3    H224061   7.376   5.735   3.397
 8040TIP3   OH224062   7.781   5.731   3.276
 8040TIP3    H124063   7.809   5.781   3.199
 8040TIP3    H224064   7.843   5.767   3.342
 8041TIP3   OH224065   8.328   5.861   3.250
 8041TIP3    H124066   8.291   5.935   3.197
 8041TIP3    H224067   8.305   5.783   3.197
 8042TIP3   OH224068   7.087   5.512   3.374
 8042TIP3    H124069   7.086   5.495   3.470
 8042TIP3    H224070   7.169   5.466   3.353
 8043TIP3   OH224071   8.064   4.102   3.280
 8043TIP3    H124072   8.049   4.049   3.360
 8043TIP3    H224073   8.161   4.096   3.269
 8044TIP3   OH224074   7.358   3.842   3.335
 8044TIP3    H124075   7.266   3.809   3.337
 8044TIP3    H224076   7.407   3.757   3.331
 8045TIP3   OH224077   7.148   3.714   2.986
 8045TIP3    H124078   7.176   3.771   2.912
 8045TIP3    H224079   7.118   3.780   3.052
 8046TIP3   OH224080   7.804   3.874   3.216
 8046TIP3    H124081   7.858   3.922   3.151
 8046TIP3    H224082   7.833   3.916   3.299
 8047TIP3   OH224083   8.319   4.007   3.198
 8047TIP3    H124084   8.337   3.982   3.106
 8047TIP3    H224085   8.315   3.919   3.241
 8048TIP3   OH224086   6.869   5.291   2.760
 8048TIP3    H124087   6.787   5.248   2.727
 8048TIP3    H224088   6.850   5.381   2.726
 8049TIP3   OH224089   7.264   3.872   2.747
 8049TIP3    H124090   7.313   3.809   2.690
 8049TIP3    H224091   7.338   3.926   2.783
 8050TIP3   OH224092   7.774   4.051   2.844
 8050TIP3    H124093   7.834   4.006   2.905
 8050TIP3    H224094   7.794   4.144   2.869
 8051TIP3   OH224095   7.636   5.471   2.347
 8051TIP3    H124096   7.724   5.493   2.310
 8051TIP3    H224097   7.613   5.396   2.287
 8052TIP3   OH224098   8.339   5.599   2.442
 8052TIP3    H124099   8.336   5.501   2.430
 8052TIP3    H224100   8.314   5.628   2.352
 8053TIP3   OH224101   7.566   4.123   4.227
 8053TIP3    H124102   7.531   4.053   4.284
 8053TIP3    H224103   7.660   4.124   4.255
 8054TIP3   OH224104   7.815   4.121   4.346
 8054TIP3    H124105   7.901   4.095   4.310
 8054TIP3    H224106   7.801   4.051   4.414
 8055TIP3   OH224107   6.941   5.314   2.400
 8055TIP3    H124108   6.931   5.323   2.495
 8055TIP3    H224109   7.027   5.268   2.391
 8056TIP3   OH224110   8.569   5.743   3.630
 8056TIP3    H124111   8.490   5.709   3.582
 8056TIP3    H224112   8.548   5.839   3.631
 8057TIP3   OH224113   0.504   5.643   4.592
 8057TIP3    H124114   0.467   5.732   4.591
 8057TIP3    H224115   0.433   5.594   4.545
 8058TIP3   OH224116   0.522   5.625   4.965
 8058TIP3    H124117   0.543   5.599   5.056
 8058TIP3    H224118   0.469   5.549   4.934
 8059TIP3   OH224119   0.749   5.942   4.659
 8059TIP3    H124120   0.734   5.874   4.726
 8059TIP3    H224121   0.774   6.019   4.713
 8060TIP3   OH224122   0.446   6.427   4.661
 8060TIP3    H124123   0.490   6.343   4.639
 8060TIP3    H224124   0.376   6.396   4.722
 8061TIP3   OH224125   0.327   5.830   5.043
 8061TIP3    H124126   0.357   5.761   4.981
 8061TIP3    H224127   0.410   5.882   5.053
 8062TIP3   OH224128   1.314   5.184   5.022
 8062TIP3    H124129   1.344   5.267   5.064
 8062TIP3    H224130   1.339   5.199   4.929
 8063TIP3   OH224131   0.712   5.366   5.057
 8063TIP3    H124132   0.754   5.279   5.075
 8063TIP3    H224133   0.681   5.352   4.966
 8064TIP3   OH224134   0.747   5.122   4.643
 8064TIP3    H124135   0.820   5.106   4.707
 8064TIP3    H224136   0.798   5.154   4.567
 8065TIP3   OH224137   1.388   5.394   5.192
 8065TIP3    H124138   1.303   5.439   5.174
 8065TIP3    H224139   1.407   5.423   5.282
 8066TIP3   OH224140   0.368   5.871   4.475
 8066TIP3    H124141   0.353   5.826   4.391
 8066TIP3    H224142   0.440   5.932   4.453
 8067TIP3   OH224143   0.953   5.122   4.820
 8067TIP3    H124144   0.939   5.076   4.903
 8067TIP3    H224145   1.007   5.199   4.847
 8068TIP3   OH224146   0.815   6.184   4.820
 8068TIP3    H124147   0.726   6.176   4.861
 8068TIP3    H224148   0.807   6.274   4.780
 8069TIP3   OH224149   1.106   5.089   5.189
 8069TIP3    H124150   1.019   5.114   5.154
 8069TIP3    H224151   1.167   5.118   5.118
 8070TIP3   OH224152   0.410   4.716   5.162
 8070TIP3    H124153   0.401   4.619   5.181
 8070TIP3    H224154   0.359   4.753   5.234
 8071TIP3   OH224155   0.511   6.212   4.484
 8071TIP3    H124156   0.561   6.129   4.463
 8071TIP3    H224157   0.575   6.279   4.450
 8072TIP3   OH224158   0.635   5.983   4.409
 8072TIP3    H124159   0.666   5.916   4.345
 8072TIP3    H224160   0.689   5.962   4.489
 8073TIP3   OH224161   1.041   6.097   5.169
 8073TIP3    H124162   1.028   6.020   5.110
 8073TIP3    H224163   1.021   6.172   5.109
 8074TIP3   OH224164   0.333   5.511   4.426
 8074TIP3    H124165   0.252   5.459   4.448
 8074TIP3    H224166   0.356   5.483   4.336
 8075TIP3   OH224167   0.309   5.282   4.140
 8075TIP3    H124168   0.384   5.332   4.179
 8075TIP3    H224169   0.358   5.214   4.090
 8076TIP3   OH224170   1.236   5.737   5.014
 8076TIP3    H124171   1.152   5.788   5.018
 8076TIP3    H224172   1.265   5.758   4.923
 8077TIP3   OH224173   0.682   5.575   4.396
 8077TIP3    H124174   0.628   5.597   4.475
 8077TIP3    H224175   0.766   5.546   4.438
 8078TIP3   OH224176   0.916   5.612   5.313
 8078TIP3    H124177   0.912   5.696   5.363
 8078TIP3    H224178   0.830   5.616   5.266
 8079TIP3   OH224179   0.575   6.182   4.940
 8079TIP3    H124180   0.554   6.264   4.988
 8079TIP3    H224181   0.560   6.112   5.007
 8080TIP3   OH224182   0.522   5.431   4.223
 8080TIP3    H124183   0.578   5.492   4.277
 8080TIP3    H224184   0.550   5.456   4.131
 8081TIP3   OH224185   1.037   4.673   4.274
 8081TIP3    H124186   0.955   4.695   4.322
 8081TIP3    H224187   1.051   4.753   4.220
 8082TIP3   OH224188   0.839   6.040   3.826
 8082TIP3    H124189   0.846   6.136   3.805
 8082TIP3    H224190   0.930   6.010   3.809
 8083TIP3   OH224191   1.277   6.443   5.218
 8083TIP3    H124192   1.276   6.347   5.232
 8083TIP3    H224193   1.193   6.468   5.262
 8084TIP3   OH224194   0.351   6.264   3.938
 8084TIP3    H124195   0.409   6.191   3.907
 8084TIP3    H224196   0.368   6.266   4.034
 8085TIP3   OH224197   0.395   6.309   4.218
 8085TIP3    H124198   0.329   6.313   4.290
 8085TIP3    H224199   0.475   6.287   4.268
 8086TIP3   OH224200   1.167   5.573   5.491
 8086TIP3    H124201   1.085   5.582   5.439
 8086TIP3    H224202   1.184   5.477   5.482
 8087TIP3   OH224203   0.707   4.920   5.492
 8087TIP3    H124204   0.775   4.893   5.557
 8087TIP3    H224205   0.623   4.901   5.540
 8088TIP3   OH224206   0.934   5.348   5.411
 8088TIP3    H124207   0.887   5.344   5.497
 8088TIP3    H224208   0.911   5.436   5.378
 8089TIP3   OH224209   0.596   5.483   3.969
 8089TIP3    H124210   0.560   5.455   3.883
 8089TIP3    H224211   0.683   5.519   3.942
 8090TIP3   OH224212   0.296   4.862   4.244
 8090TIP3    H124213   0.287   4.860   4.343
 8090TIP3    H224214   0.269   4.770   4.226
 8091TIP3   OH224215   0.475   5.301   4.563
 8091TIP3    H124216   0.421   5.370   4.522
 8091TIP3    H224217   0.525   5.265   4.487
 8092TIP3   OH224218   0.668   5.559   5.638
 8092TIP3    H124219   0.641   5.487   5.698
 8092TIP3    H224220   0.762   5.569   5.663
 8093TIP3   OH224221   0.626   5.319   4.799
 8093TIP3    H124222   0.565   5.346   4.727
 8093TIP3    H224223   0.663   5.239   4.755
 8094TIP3   OH224224   0.636   5.565   5.222
 8094TIP3    H124225   0.671   5.496   5.161
 8094TIP3    H224226   0.609   5.508   5.297
 8095TIP3   OH224227   0.317   5.023   4.883
 8095TIP3    H124228   0.225   5.046   4.905
 8095TIP3    H224229   0.364   5.036   4.966
 8096TIP3   OH224230   0.797   5.103   5.099
 8096TIP3    H124231   0.763   5.117   5.190
 8096TIP3    H224232   0.731   5.039   5.066
 8097TIP3   OH224233   0.976   6.788   5.316
 8097TIP3    H124234   0.966   6.817   5.223
 8097TIP3    H224235   1.049   6.845   5.347
 8098TIP3   OH224236   0.401   5.347   4.991
 8098TIP3    H124237   0.473   5.313   4.934
 8098TIP3    H224238   0.420   5.305   5.076
 8099TIP3   OH224239   0.393   5.239   5.277
 8099TIP3    H124240   0.326   5.312   5.273
 8099TIP3    H224241   0.464   5.285   5.326
 8100TIP3   OH224242   1.001   5.880   5.004
 8100TIP3    H124243   1.026   5.930   4.923
 8100TIP3    H224244   0.917   5.837   4.976
 8101TIP3   OH224245   0.557   4.952   4.247
 8101TIP3    H124246   0.459   4.939   4.245
 8101TIP3    H224247   0.566   5.047   4.268
 8102TIP3   OH224248   0.497   5.968   5.368
 8102TIP3    H124249   0.522   5.959   5.460
 8102TIP3    H224250   0.442   6.050   5.370
 8103TIP3   OH224251   0.629   5.204   4.345
 8103TIP3    H124252   0.726   5.207   4.357
 8103TIP3    H224253   0.612   5.282   4.288
 8104TIP3   OH224254   0.239   5.797   4.214
 8104TIP3    H124255   0.171   5.865   4.208
 8104TIP3    H224256   0.192   5.725   4.257
 8105TIP3   OH224257   0.454   5.691   5.739
 8105TIP3    H124258   0.395   5.624   5.703
 8105TIP3    H224259   0.539   5.665   5.698
 8106TIP3   OH224260   0.667   6.218   5.262
 8106TIP3    H124261   0.571   6.223   5.274
 8106TIP3    H224262   0.699   6.270   5.339
 8107TIP3   OH224263   1.069   5.297   4.178
 8107TIP3    H124264   1.007   5.252   4.116
 8107TIP3    H224265   1.069   5.385   4.134
 8108TIP3   OH224266   1.291   6.155   5.256
 8108TIP3    H124267   1.193   6.147   5.247
 8108TIP3    H224268   1.318   6.124   5.167
 8109TIP3   OH224269   0.780   6.111   4.089
 8109TIP3    H124270   0.742   6.036   4.136
 8109TIP3    H224271   0.789   6.076   3.998
 8110TIP3   OH224272   0.774   5.742   4.916
 8110TIP3    H124273   0.681   5.715   4.931
 8110TIP3    H224274   0.808   5.662   4.872
 8111TIP3   OH224275   0.568   5.947   5.104
 8111TIP3    H124276   0.554   5.955   5.201
 8111TIP3    H224277   0.652   5.899   5.100
 8112TIP3   OH224278   0.535   5.845   3.985
 8112TIP3    H124279   0.577   5.819   4.070
 8112TIP3    H224280   0.446   5.807   3.993
 8113TIP3   OH224281   0.807   6.476   5.150
 8113TIP3    H124282   0.725   6.422   5.146
 8113TIP3    H224283   0.787   6.544   5.082
 8114TIP3   OH224284   0.871   6.313   3.806
 8114TIP3    H124285   0.903   6.381   3.745
 8114TIP3    H224286   0.792   6.360   3.841
 8115TIP3   OH224287   0.693   5.786   4.218
 8115TIP3    H124288   0.682   5.709   4.277
 8115TIP3    H224289   0.787   5.775   4.194
 8116TIP3   OH224290   0.722   5.161   5.359
 8116TIP3    H124291   0.807   5.196   5.392
 8116TIP3    H224292   0.714   5.077   5.410
 8117TIP3   OH224293   0.614   4.901   4.523
 8117TIP3    H124294   0.588   4.922   4.431
 8117TIP3    H224295   0.647   4.987   4.556
 8118TIP3   OH224296   0.290   5.100   4.620
 8118TIP3    H124297   0.360   5.168   4.608
 8118TIP3    H224298   0.293   5.085   4.716
 8119TIP3   OH224299   0.574   5.399   5.427
 8119TIP3    H124300   0.601   5.453   5.504
 8119TIP3    H224301   0.629   5.319   5.437
 8120TIP3   OH224302   0.454   4.814   4.744
 8120TIP3    H124303   0.419   4.897   4.781
 8120TIP3    H224304   0.497   4.846   4.662
 8121TIP3   OH224305   1.201   5.307   5.410
 8121TIP3    H124306   1.103   5.304   5.417
 8121TIP3    H224307   1.213   5.264   5.324
 8122TIP3   OH224308   0.854   5.499   4.796
 8122TIP3    H124309   0.777   5.441   4.808
 8122TIP3    H224310   0.924   5.450   4.845
 8123TIP3   OH224311   0.830   6.452   4.747
 8123TIP3    H124312   0.785   6.500   4.674
 8123TIP3    H224313   0.923   6.470   4.724
 8124TIP3   OH224314   0.736   6.346   5.490
 8124TIP3    H124315   0.714   6.291   5.568
 8124TIP3    H224316   0.788   6.417   5.530
 8125TIP3   OH224317   0.496   6.067   3.813
 8125TIP3    H124318   0.534   5.995   3.867
 8125TIP3    H224319   0.548   6.061   3.730
 8126TIP3   OH224320   0.239   5.746   3.933
 8126TIP3    H124321   0.225   5.755   4.029
 8126TIP3    H224322   0.231   5.649   3.922
 8127TIP3   OH224323   0.824   5.987   5.307
 8127TIP3    H124324   0.900   6.031   5.264
 8127TIP3    H224325   0.755   6.054   5.294
 8128TIP3   OH224326   0.046   5.258   4.231
 8128TIP3    H124327   0.023   5.253   4.136
 8128TIP3    H224328   0.144   5.257   4.223
 8129TIP3   OH224329   0.693   5.914   5.711
 8129TIP3    H124330   0.762   5.880   5.653
 8129TIP3    H224331   0.692   5.847   5.782
 8130TIP3   OH224332   0.831   5.568   3.850
 8130TIP3    H124333   0.814   5.522   3.765
 8130TIP3    H224334   0.799   5.658   3.825
 8131TIP3   OH224335   0.268   5.035   5.422
 8131TIP3    H124336   0.320   5.101   5.371
 8131TIP3    H224337   0.231   5.090   5.492
 8132TIP3   OH224338   0.386   5.681   5.327
 8132TIP3    H124339   0.477   5.662   5.301
 8132TIP3    H224340   0.369   5.761   5.276
 8133TIP3   OH224341   0.922   5.581   5.754
 8133TIP3    H124342   0.968   5.499   5.777
 8133TIP3    H224343   0.993   5.634   5.715
 8134TIP3   OH224344   0.955   5.843   5.496
 8134TIP3    H124345   0.898   5.897   5.436
 8134TIP3    H224346   1.043   5.862   5.457
 8135TIP3   OH224347   0.447   4.850   5.558
 8135TIP3    H124348   0.386   4.920   5.529
 8135TIP3    H224349   0.391   4.771   5.547
 8136TIP3   OH224350   0.570   5.357   5.795
 8136TIP3    H124351   0.603   5.351   5.887
 8136TIP3    H224352   0.486   5.308   5.802
 8137TIP3   OH224353   0.806   5.296   5.643
 8137TIP3    H124354   0.733   5.292   5.707
 8137TIP3    H224355   0.882   5.267   5.698
 8138TIP3   OH224356   1.034   5.243   5.792
 8138TIP3    H124357   1.047   5.147   5.809
 8138TIP3    H224358   1.028   5.280   5.883
 8139TIP3   OH224359   0.541   4.864   5.819
 8139TIP3    H124360   0.602   4.788   5.820
 8139TIP3    H224361   0.499   4.854   5.731
 8140TIP3   OH224362   0.614   5.073   5.974
 8140TIP3    H124363   0.594   4.995   5.918
 8140TIP3    H224364   0.526   5.115   5.979
 8141TIP3   OH224365   1.095   6.535   4.704
 8141TIP3    H124366   1.103   6.564   4.797
 8141TIP3    H224367   1.106   6.619   4.657
 8142TIP3   OH224368   1.106   6.564   4.983
 8142TIP3    H124369   1.060   6.477   4.985
 8142TIP3    H224370   1.179   6.545   5.044
 8143TIP3   OH224371   1.159   6.249   5.564
 8143TIP3    H124372   1.081   6.256   5.622
 8143TIP3    H224373   1.198   6.338   5.574
 8144TIP3   OH224374   0.966   5.757   4.181
 8144TIP3    H124375   1.034   5.819   4.149
 8144TIP3    H224376   1.012   5.717   4.258
 8145TIP3   OH224377   1.096   5.628   4.385
 8145TIP3    H124378   1.030   5.582   4.442
 8145TIP3    H224379   1.162   5.660   4.449
 8146TIP3   OH224380   1.152   6.015   4.816
 8146TIP3    H124381   1.208   5.948   4.771
 8146TIP3    H224382   1.139   6.081   4.746
 8147TIP3   OH224383   0.981   6.315   5.008
 8147TIP3    H124384   0.911   6.360   5.060
 8147TIP3    H224385   0.928   6.269   4.939
 8148TIP3   OH224386   1.035   5.534   4.029
 8148TIP3    H124387   0.963   5.532   3.961
 8148TIP3    H224388   1.003   5.609   4.083
 8149TIP3   OH224389   0.899   5.209   3.987
 8149TIP3    H124390   0.867   5.239   3.901
 8149TIP3    H224391   0.877   5.113   3.981
 8150TIP3   OH224392   0.909   5.481   4.526
 8150TIP3    H124393   0.917   5.384   4.517
 8150TIP3    H224394   0.896   5.492   4.623
 8151TIP3   OH224395   1.200   5.906   5.388
 8151TIP3    H124396   1.271   5.839   5.377
 8151TIP3    H224397   1.225   5.973   5.322
 8152TIP3   OH224398   1.382   5.708   5.398
 8152TIP3    H124399   1.308   5.658   5.437
 8152TIP3    H224400   1.456   5.645   5.414
 8153TIP3   OH224401   0.845   4.944   3.978
 8153TIP3    H124402   0.921   4.906   4.024
 8153TIP3    H224403   0.775   4.878   3.990
 8154TIP3   OH224404   0.907   5.200   4.420
 8154TIP3    H124405   0.948   5.111   4.436
 8154TIP3    H224406   0.964   5.231   4.347
 8155TIP3   OH224407   1.066   5.368   4.920
 8155TIP3    H124408   1.151   5.393   4.877
 8155TIP3    H224409   1.081   5.406   5.008
 8156TIP3   OH224410   1.138   5.515   5.150
 8156TIP3    H124411   1.061   5.549   5.199
 8156TIP3    H224412   1.170   5.596   5.104
 8157TIP3   OH224413   1.587   5.108   5.705
 8157TIP3    H124414   1.647   5.043   5.664
 8157TIP3    H224415   1.559   5.162   5.628
 8158TIP3   OH224416   1.014   4.950   4.463
 8158TIP3    H124417   1.061   4.931   4.547
 8158TIP3    H224418   0.953   4.873   4.459
 8159TIP3   OH224419   1.458   5.245   5.509
 8159TIP3    H124420   1.371   5.286   5.530
 8159TIP3    H224421   1.428   5.171   5.453
 8160TIP3   OH224422   1.095   4.878   4.096
 8160TIP3    H124423   1.133   4.808   4.037
 8160TIP3    H224424   1.161   4.949   4.088
 8161TIP3   OH224425   0.661   6.397   4.363
 8161TIP3    H124426   0.715   6.398   4.281
 8161TIP3    H224427   0.694   6.477   4.407
 8162TIP3   OH224428   0.556   6.635   5.301
 8162TIP3    H124429   0.621   6.579   5.256
 8162TIP3    H224430   0.614   6.695   5.352
 8163TIP3   OH224431   1.360   5.008   5.391
 8163TIP3    H124432   1.269   4.999   5.358
 8163TIP3    H224433   1.393   4.915   5.381
 8164TIP3   OH224434   0.541   6.457   5.031
 8164TIP3    H124435   0.453   6.479   5.065
 8164TIP3    H224436   0.564   6.538   4.984
 8165TIP3   OH224437   0.766   6.649   4.939
 8165TIP3    H124438   0.742   6.730   4.891
 8165TIP3    H224439   0.779   6.585   4.867
 8166TIP3   OH224440   0.578   4.924   5.030
 8166TIP3    H124441   0.523   4.851   5.062
 8166TIP3    H224442   0.627   4.882   4.957
 8167TIP3   OH224443   1.086   4.811   4.931
 8167TIP3    H124444   1.123   4.859   4.854
 8167TIP3    H224445   0.990   4.823   4.916
 8168TIP3   OH224446   1.177   4.897   4.683
 8168TIP3    H124447   1.251   4.847   4.642
 8168TIP3    H224448   1.209   4.989   4.669
 8169TIP3   OH224449   0.275   4.658   4.910
 8169TIP3    H124450   0.323   4.710   4.844
 8169TIP3    H224451   0.314   4.690   4.992
 8170TIP3   OH224452   0.811   4.807   4.885
 8170TIP3    H124453   0.782   4.777   4.798
 8170TIP3    H224454   0.789   4.730   4.942
 8171TIP3   OH224455   0.833   4.736   4.456
 8171TIP3    H124456   0.748   4.783   4.471
 8171TIP3    H224457   0.814   4.649   4.497
 8172TIP3   OH224458   0.278   4.845   4.512
 8172TIP3    H124459   0.253   4.790   4.588
 8172TIP3    H224460   0.264   4.935   4.547
 8173TIP3   OH224461   0.807   6.381   4.130
 8173TIP3    H124462   0.801   6.284   4.116
 8173TIP3    H224463   0.763   6.415   4.049
 8174TIP3   OH224464   1.094   4.973   5.823
 8174TIP3    H124465   1.112   4.942   5.915
 8174TIP3    H224466   1.183   4.967   5.783
 8175TIP3   OH224467   1.029   6.520   5.319
 8175TIP3    H124468   0.951   6.490   5.268
 8175TIP3    H224469   1.012   6.616   5.321
 8176TIP3   OH224470   2.302   5.881   4.091
 8176TIP3    H124471   2.275   5.972   4.064
 8176TIP3    H224472   2.231   5.830   4.048
 8177TIP3   OH224473   2.283   5.902   4.472
 8177TIP3    H124474   2.327   5.874   4.555
 8177TIP3    H224475   2.257   5.817   4.433
 8178TIP3   OH224476   1.595   5.791   4.829
 8178TIP3    H124477   1.622   5.722   4.893
 8178TIP3    H224478   1.678   5.839   4.818
 8179TIP3   OH224479   2.532   6.208   4.148
 8179TIP3    H124480   2.535   6.131   4.207
 8179TIP3    H224481   2.576   6.276   4.201
 8180TIP3   OH224482   1.547   6.188   4.495
 8180TIP3    H124483   1.549   6.092   4.521
 8180TIP3    H224484   1.633   6.217   4.531
 8181TIP3   OH224485   1.273   5.405   4.336
 8181TIP3    H124486   1.221   5.486   4.349
 8181TIP3    H224487   1.206   5.349   4.292
 8182TIP3   OH224488   1.336   5.690   4.512
 8182TIP3    H124489   1.382   5.612   4.550
 8182TIP3    H224490   1.391   5.708   4.435
 8183TIP3   OH224491   2.185   6.647   4.150
 8183TIP3    H124492   2.244   6.573   4.133
 8183TIP3    H224493   2.175   6.644   4.246
 8184TIP3   OH224494   2.097   6.123   4.511
 8184TIP3    H124495   2.139   6.042   4.478
 8184TIP3    H224496   2.179   6.172   4.534
 8185TIP3   OH224497   2.503   5.621   4.543
 8185TIP3    H124498   2.555   5.541   4.563
 8185TIP3    H224499   2.477   5.603   4.451
 8186TIP3   OH224500   1.847   5.284   4.509
 8186TIP3    H124501   1.830   5.355   4.444
 8186TIP3    H224502   1.801   5.209   4.463
 8187TIP3   OH224503   2.542   5.378   4.131
 8187TIP3    H124504   2.615   5.365   4.196
 8187TIP3    H224505   2.594   5.410   4.055
 8188TIP3   OH224506   1.480   5.483   4.617
 8188TIP3    H124507   1.564   5.463   4.663
 8188TIP3    H224508   1.493   5.428   4.536
 8189TIP3   OH224509   1.919   5.683   4.413
 8189TIP3    H124510   2.014   5.659   4.423
 8189TIP3    H224511   1.882   5.599   4.380
 8190TIP3   OH224512   3.203   5.639   4.694
 8190TIP3    H124513   3.124   5.672   4.647
 8190TIP3    H224514   3.202   5.694   4.774
 8191TIP3   OH224515   1.843   5.267   4.943
 8191TIP3    H124516   1.784   5.303   4.874
 8191TIP3    H224517   1.790   5.285   5.023
 8192TIP3   OH224518   2.188   6.089   3.951
 8192TIP3    H124519   2.158   6.073   3.860
 8192TIP3    H224520   2.125   6.152   3.986
 8193TIP3   OH224521   1.950   6.042   4.733
 8193TIP3    H124522   1.890   6.111   4.770
 8193TIP3    H224523   1.998   6.091   4.664
 8194TIP3   OH224524   2.749   5.380   4.303
 8194TIP3    H124525   2.757   5.326   4.382
 8194TIP3    H224526   2.832   5.430   4.309
 8195TIP3   OH224527   1.715   5.381   4.726
 8195TIP3    H124528   1.777   5.454   4.749
 8195TIP3    H224529   1.763   5.341   4.651
 8196TIP3   OH224530   1.777   6.239   4.831
 8196TIP3    H124531   1.755   6.330   4.801
 8196TIP3    H224532   1.699   6.222   4.888
 8197TIP3   OH224533   1.159   5.928   4.061
 8197TIP3    H124534   1.124   5.927   3.969
 8197TIP3    H224535   1.151   6.022   4.083
 8198TIP3   OH224536   2.607   6.444   4.312
 8198TIP3    H124537   2.516   6.436   4.348
 8198TIP3    H224538   2.604   6.531   4.269
 8199TIP3   OH224539   2.905   5.339   4.679
 8199TIP3    H124540   2.822   5.373   4.644
 8199TIP3    H224541   2.961   5.341   4.597
 8200TIP3   OH224542   2.198   4.985   4.658
 8200TIP3    H124543   2.179   4.891   4.674
 8200TIP3    H224544   2.121   5.026   4.704
 8201TIP3   OH224545   2.301   6.475   3.949
 8201TIP3    H124546   2.363   6.397   3.948
 8201TIP3    H224547   2.367   6.547   3.928
 8202TIP3   OH224548   2.441   6.258   3.892
 8202TIP3    H124549   2.456   6.182   3.834
 8202TIP3    H224550   2.480   6.227   3.977
 8203TIP3   OH224551   2.835   6.353   4.656
 8203TIP3    H124552   2.826   6.276   4.595
 8203TIP3    H224553   2.822   6.428   4.594
 8204TIP3   OH224554   2.131   5.751   3.913
 8204TIP3    H124555   2.049   5.791   3.880
 8204TIP3    H224556   2.182   5.737   3.830
 8205TIP3   OH224557   2.086   5.534   3.625
 8205TIP3    H124558   2.160   5.582   3.667
 8205TIP3    H224559   2.138   5.465   3.578
 8206TIP3   OH224560   3.032   5.997   4.513
 8206TIP3    H124561   2.948   6.048   4.511
 8206TIP3    H224562   3.059   6.004   4.420
 8207TIP3   OH224563   2.477   5.832   3.884
 8207TIP3    H124564   2.426   5.849   3.966
 8207TIP3    H224565   2.562   5.803   3.922
 8208TIP3   OH224566   2.710   5.867   4.802
 8208TIP3    H124567   2.709   5.950   4.852
 8208TIP3    H224568   2.627   5.874   4.752
 8209TIP3   OH224569   1.714   5.831   4.298
 8209TIP3    H124570   1.667   5.770   4.237
 8209TIP3    H224571   1.787   5.774   4.331
 8210TIP3   OH224572   1.841   6.245   4.442
 8210TIP3    H124573   1.825   6.175   4.378
 8210TIP3    H224574   1.930   6.219   4.475
 8211TIP3   OH224575   1.839   5.802   4.655
 8211TIP3    H124576   1.876   5.773   4.569
 8211TIP3    H224577   1.888   5.885   4.673
 8212TIP3   OH224578   2.360   6.438   4.426
 8212TIP3    H124579   2.356   6.518   4.483
 8212TIP3    H224580   2.353   6.365   4.491
 8213TIP3   OH224581   1.984   6.357   4.979
 8213TIP3    H124582   1.923   6.418   5.026
 8213TIP3    H224583   1.919   6.302   4.930
 8214TIP3   OH224584   2.308   5.698   3.710
 8214TIP3    H124585   2.376   5.749   3.760
 8214TIP3    H224586   2.338   5.715   3.617
 8215TIP3   OH224587   1.739   5.913   5.083
 8215TIP3    H124588   1.742   6.001   5.126
 8215TIP3    H224589   1.644   5.892   5.094
 8216TIP3   OH224590   1.776   6.522   5.066
 8216TIP3    H124591   1.741   6.525   4.976
 8216TIP3    H224592   1.696   6.502   5.119
 8217TIP3   OH224593   2.831   4.926   3.758
 8217TIP3    H124594   2.751   4.950   3.809
 8217TIP3    H224595   2.848   5.009   3.710
 8218TIP3   OH224596   1.568   5.675   4.118
 8218TIP3    H124597   1.503   5.713   4.056
 8218TIP3    H224598   1.546   5.581   4.115
 8219TIP3   OH224599   2.635   6.299   3.314
 8219TIP3    H124600   2.646   6.394   3.293
 8219TIP3    H224601   2.726   6.265   3.298
 8220TIP3   OH224602   1.356   6.056   5.013
 8220TIP3    H124603   1.288   6.032   4.947
 8220TIP3    H224604   1.394   5.969   5.038
 8221TIP3   OH224605   1.220   6.255   4.640
 8221TIP3    H124606   1.309   6.260   4.678
 8221TIP3    H224607   1.176   6.328   4.686
 8222TIP3   OH224608   3.073   6.701   4.702
 8222TIP3    H124609   3.074   6.604   4.716
 8222TIP3    H224610   2.990   6.724   4.749
 8223TIP3   OH224611   2.178   6.488   4.834
 8223TIP3    H124612   2.177   6.579   4.869
 8223TIP3    H224613   2.110   6.445   4.890
 8224TIP3   OH224614   1.389   6.390   4.227
 8224TIP3    H124615   1.375   6.482   4.254
 8224TIP3    H224616   1.304   6.372   4.183
 8225TIP3   OH224617   2.161   6.505   3.436
 8225TIP3    H124618   2.190   6.431   3.378
 8225TIP3    H224619   2.245   6.523   3.480
 8226TIP3   OH224620   2.960   5.827   4.979
 8226TIP3    H124621   2.886   5.837   4.917
 8226TIP3    H224622   2.980   5.731   4.969
 8227TIP3   OH224623   1.558   6.241   4.996
 8227TIP3    H124624   1.609   6.226   5.079
 8227TIP3    H224625   1.487   6.175   5.005
 8228TIP3   OH224626   1.960   5.060   4.789
 8228TIP3    H124627   1.871   5.030   4.761
 8228TIP3    H224628   1.935   5.143   4.834
 8229TIP3   OH224629   2.496   5.174   4.980
 8229TIP3    H124630   2.563   5.150   5.047
 8229TIP3    H224631   2.411   5.157   5.027
 8230TIP3   OH224632   2.726   5.599   4.893
 8230TIP3    H124633   2.682   5.602   4.981
 8230TIP3    H224634   2.712   5.689   4.860
 8231TIP3   OH224635   2.394   5.746   3.459
 8231TIP3    H124636   2.357   5.716   3.374
 8231TIP3    H224637   2.481   5.778   3.430
 8232TIP3   OH224638   2.109   5.105   3.759
 8232TIP3    H124639   2.069   5.102   3.848
 8232TIP3    H224640   2.064   5.029   3.719
 8233TIP3   OH224641   1.889   5.579   4.803
 8233TIP3    H124642   1.841   5.600   4.886
 8233TIP3    H224643   1.873   5.660   4.751
 8234TIP3   OH224644   1.774   5.465   4.319
 8234TIP3    H124645   1.683   5.435   4.337
 8234TIP3    H224646   1.789   5.425   4.231
 8235TIP3   OH224647   2.265   5.548   4.048
 8235TIP3    H124648   2.216   5.618   4.001
 8235TIP3    H224649   2.324   5.514   3.977
 8236TIP3   OH224650   2.441   5.826   5.134
 8236TIP3    H124651   2.421   5.752   5.194
 8236TIP3    H224652   2.537   5.838   5.152
 8237TIP3   OH224653   2.418   5.574   4.285
 8237TIP3    H124654   2.360   5.599   4.210
 8237TIP3    H224655   2.459   5.495   4.244
 8238TIP3   OH224656   1.708   5.607   5.014
 8238TIP3    H124657   1.748   5.666   5.079
 8238TIP3    H224658   1.698   5.524   5.064
 8239TIP3   OH224659   1.751   5.064   3.729
 8239TIP3    H124660   1.737   5.081   3.823
 8239TIP3    H224661   1.690   5.127   3.687
 8240TIP3   OH224662   1.301   5.123   4.601
 8240TIP3    H124663   1.379   5.156   4.649
 8240TIP3    H224664   1.337   5.094   4.516
 8241TIP3   OH224665   1.271   5.106   4.118
 8241TIP3    H124666   1.315   5.142   4.038
 8241TIP3    H224667   1.209   5.179   4.135
 8242TIP3   OH224668   2.424   5.821   4.704
 8242TIP3    H124669   2.461   5.750   4.646
 8242TIP3    H224670   2.401   5.768   4.782
 8243TIP3   OH224671   2.106   5.286   4.380
 8243TIP3    H124672   2.029   5.284   4.438
 8243TIP3    H224673   2.180   5.278   4.442
 8244TIP3   OH224674   1.536   5.341   4.388
 8244TIP3    H124675   1.443   5.346   4.358
 8244TIP3    H224676   1.562   5.250   4.363
 8245TIP3   OH224677   1.802   5.342   4.077
 8245TIP3    H124678   1.898   5.350   4.057
 8245TIP3    H224679   1.759   5.361   3.990
 8246TIP3   OH224680   2.595   5.363   4.591
 8246TIP3    H124681   2.552   5.374   4.679
 8246TIP3    H224682   2.534   5.302   4.547
 8247TIP3   OH224683   1.650   5.378   3.850
 8247TIP3    H124684   1.585   5.326   3.800
 8247TIP3    H224685   1.705   5.412   3.776
 8248TIP3   OH224686   2.760   7.048   4.800
 8248TIP3    H124687   2.762   7.073   4.706
 8248TIP3    H224688   2.845   7.087   4.831
 8249TIP3   OH224689   1.721   6.162   5.220
 8249TIP3    H124690   1.802   6.190   5.267
 8249TIP3    H224691   1.657   6.160   5.294
 8250TIP3   OH224692   2.186   5.614   4.472
 8250TIP3    H124693   2.259   5.580   4.418
 8250TIP3    H224694   2.200   5.569   4.557
 8251TIP3   OH224695   1.707   5.103   4.356
 8251TIP3    H124696   1.674   5.023   4.402
 8251TIP3    H224697   1.747   5.065   4.276
 8252TIP3   OH224698   2.161   5.507   4.774
 8252TIP3    H124699   2.073   5.549   4.783
 8252TIP3    H224700   2.221   5.571   4.819
 8253TIP3   OH224701   1.887   5.909   3.859
 8253TIP3    H124702   1.823   5.836   3.848
 8253TIP3    H224703   1.873   5.934   3.953
 8254TIP3   OH224704   2.796   6.140   4.488
 8254TIP3    H124705   2.826   6.187   4.407
 8254TIP3    H224706   2.714   6.096   4.459
 8255TIP3   OH224707   2.360   5.204   3.744
 8255TIP3    H124708   2.264   5.184   3.741
 8255TIP3    H224709   2.362   5.302   3.740
 8256TIP3   OH224710   2.289   6.215   4.860
 8256TIP3    H124711   2.334   6.200   4.944
 8256TIP3    H224712   2.261   6.307   4.866
 8257TIP3   OH224713   2.425   5.468   3.836
 8257TIP3    H124714   2.522   5.467   3.846
 8257TIP3    H224715   2.411   5.535   3.767
 8258TIP3   OH224716   1.593   5.924   4.533
 8258TIP3    H124717   1.634   5.889   4.452
 8258TIP3    H224718   1.632   5.866   4.601
 8259TIP3   OH224719   2.038   6.071   3.704
 8259TIP3    H124720   1.965   6.121   3.667
 8259TIP3    H224721   1.991   5.999   3.753
 8260TIP3   OH224722   1.472   5.845   5.152
 8260TIP3    H124723   1.493   5.830   5.246
 8260TIP3    H224724   1.406   5.777   5.135
 8261TIP3   OH224725   2.201   5.958   5.171
 8261TIP3    H124726   2.143   5.901   5.119
 8261TIP3    H224727   2.289   5.925   5.145
 8262TIP3   OH224728   2.455   6.478   4.757
 8262TIP3    H124729   2.359   6.481   4.769
 8262TIP3    H224730   2.485   6.531   4.834
 8263TIP3   OH224731   2.865   5.554   3.663
 8263TIP3    H124732   2.805   5.508   3.600
 8263TIP3    H224733   2.861   5.643   3.622
 8264TIP3   OH224734   3.086   6.412   4.743
 8264TIP3    H124735   2.989   6.403   4.735
 8264TIP3    H224736   3.113   6.380   4.653
 8265TIP3   OH224737   2.543   6.368   3.566
 8265TIP3    H124738   2.566   6.294   3.625
 8265TIP3    H224739   2.575   6.335   3.480
 8266TIP3   OH224740   2.563   6.002   4.403
 8266TIP3    H124741   2.471   5.975   4.416
 8266TIP3    H224742   2.600   5.921   4.362
 8267TIP3   OH224743   1.643   6.228   4.171
 8267TIP3    H124744   1.688   6.312   4.149
 8267TIP3    H224745   1.605   6.208   4.085
 8268TIP3   OH224746   1.259   5.531   3.867
 8268TIP3    H124747   1.304   5.615   3.890
 8268TIP3    H224748   1.181   5.534   3.927
 8269TIP3   OH224749   1.824   6.007   4.109
 8269TIP3    H124750   1.772   6.081   4.142
 8269TIP3    H224751   1.802   5.938   4.176
 8270TIP3   OH224752   1.965   6.570   4.632
 8270TIP3    H124753   2.007   6.642   4.581
 8270TIP3    H224754   2.041   6.535   4.681
 8271TIP3   OH224755   1.626   6.468   4.020
 8271TIP3    H124756   1.540   6.476   4.061
 8271TIP3    H224757   1.656   6.562   4.020
 8272TIP3   OH224758   2.349   6.209   4.590
 8272TIP3    H124759   2.338   6.202   4.687
 8272TIP3    H224760   2.428   6.156   4.576
 8273TIP3   OH224761   2.330   6.103   3.477
 8273TIP3    H124762   2.382   6.082   3.557
 8273TIP3    H224763   2.249   6.051   3.492
 8274TIP3   OH224764   2.596   6.739   4.643
 8274TIP3    H124765   2.517   6.682   4.633
 8274TIP3    H224766   2.583   6.802   4.569
 8275TIP3   OH224767   2.661   6.574   3.291
 8275TIP3    H124768   2.710   6.647   3.250
 8275TIP3    H224769   2.580   6.622   3.318
 8276TIP3   OH224770   1.683   5.351   5.157
 8276TIP3    H124771   1.586   5.352   5.169
 8276TIP3    H224772   1.711   5.292   5.229
 8277TIP3   OH224773   2.485   6.045   3.706
 8277TIP3    H124774   2.474   5.969   3.767
 8277TIP3    H224775   2.580   6.034   3.683
 8278TIP3   OH224776   1.411   6.421   4.795
 8278TIP3    H124777   1.462   6.362   4.854
 8278TIP3    H224778   1.420   6.506   4.840
 8279TIP3   OH224779   1.697   6.073   3.474
 8279TIP3    H124780   1.701   5.981   3.442
 8279TIP3    H224781   1.664   6.059   3.565
 8280TIP3   OH224782   1.635   6.079   3.746
 8280TIP3    H124783   1.709   6.049   3.801
 8280TIP3    H224784   1.641   6.178   3.752
 8281TIP3   OH224785   1.371   5.778   3.950
 8281TIP3    H124786   1.304   5.824   4.004
 8281TIP3    H224787   1.384   5.843   3.878
 8282TIP3   OH224788   2.511   5.421   4.850
 8282TIP3    H124789   2.599   5.457   4.871
 8282TIP3    H224790   2.510   5.337   4.901
 8283TIP3   OH224791   2.401   5.162   4.014
 8283TIP3    H124792   2.388   5.182   3.919
 8283TIP3    H224793   2.443   5.244   4.046
 8284TIP3   OH224794   2.083   5.347   4.109
 8284TIP3    H124795   2.152   5.415   4.089
 8284TIP3    H224796   2.095   5.337   4.206
 8285TIP3   OH224797   2.359   5.660   4.914
 8285TIP3    H124798   2.389   5.708   4.994
 8285TIP3    H224799   2.414   5.579   4.916
 8286TIP3   OH224800   2.232   5.064   4.208
 8286TIP3    H124801   2.231   5.140   4.269
 8286TIP3    H224802   2.294   5.098   4.140
 8287TIP3   OH224803   1.638   6.348   3.766
 8287TIP3    H124804   1.621   6.415   3.695
 8287TIP3    H224805   1.634   6.404   3.845
 8288TIP3   OH224806   1.741   5.071   4.010
 8288TIP3    H124807   1.744   5.164   4.042
 8288TIP3    H224808   1.837   5.051   4.009
 8289TIP3   OH224809   2.998   5.564   4.899
 8289TIP3    H124810   2.900   5.555   4.895
 8289TIP3    H224811   3.021   5.536   4.810
 8290TIP3   OH224812   2.645   5.761   4.286
 8290TIP3    H124813   2.576   5.693   4.296
 8290TIP3    H224814   2.721   5.719   4.333
 8291TIP3   OH224815   1.363   5.982   3.752
 8291TIP3    H124816   1.430   6.053   3.752
 8291TIP3    H224817   1.406   5.922   3.687
 8292TIP3   OH224818   1.302   5.259   3.897
 8292TIP3    H124819   1.304   5.357   3.886
 8292TIP3    H224820   1.241   5.233   3.827
 8293TIP3   OH224821   2.618   6.713   4.231
 8293TIP3    H124822   2.579   6.760   4.154
 8293TIP3    H224823   2.713   6.732   4.215
 8294TIP3   OH224824   1.694   4.981   4.761
 8294TIP3    H124825   1.664   4.949   4.673
 8294TIP3    H224826   1.681   4.902   4.817
 8295TIP3   OH224827   1.394   6.745   5.213
 8295TIP3    H124828   1.480   6.747   5.260
 8295TIP3    H224829   1.376   6.649   5.211
 8296TIP3   OH224830   1.869   6.702   5.259
 8296TIP3    H124831   1.964   6.688   5.266
 8296TIP3    H224832   1.847   6.642   5.185
 8297TIP3   OH224833   1.859   6.277   3.392
 8297TIP3    H124834   1.802   6.202   3.420
 8297TIP3    H224835   1.930   6.230   3.343
 8298TIP3   OH224836   2.507   6.614   4.993
 8298TIP3    H124837   2.503   6.543   5.061
 8298TIP3    H224838   2.587   6.663   5.020
 8299TIP3   OH224839   2.288   6.317   3.292
 8299TIP3    H124840   2.335   6.256   3.352
 8299TIP3    H224841   2.346   6.316   3.212
 8300TIP3   OH224842   1.521   6.149   5.414
 8300TIP3    H124843   1.539   6.053   5.418
 8300TIP3    H224844   1.434   6.151   5.368
 8301TIP3   OH224845   1.499   5.796   3.608
 8301TIP3    H124846   1.555   5.757   3.677
 8301TIP3    H224847   1.564   5.799   3.534
 8302TIP3   OH224848   2.127   6.233   5.188
 8302TIP3    H124849   2.091   6.252   5.099
 8302TIP3    H224850   2.161   6.142   5.178
 8303TIP3   OH224851   2.020   5.994   3.420
 8303TIP3    H124852   2.020   5.995   3.516
 8303TIP3    H224853   2.022   5.897   3.404
 8304TIP3   OH224854   2.619   6.248   4.794
 8304TIP3    H124855   2.698   6.285   4.749
 8304TIP3    H224856   2.554   6.319   4.776
 8305TIP3   OH224857   1.641   5.885   5.396
 8305TIP3    H124858   1.717   5.833   5.369
 8305TIP3    H224859   1.669   5.916   5.484
 8306TIP3   OH224860   1.712   5.701   3.829
 8306TIP3    H124861   1.683   5.647   3.904
 8306TIP3    H224862   1.749   5.631   3.770
 8307TIP3   OH224863   1.971   5.762   5.054
 8307TIP3    H124864   1.897   5.827   5.058
 8307TIP3    H224865   2.024   5.797   4.979
 8308TIP3   OH224866   1.810   5.503   3.665
 8308TIP3    H124867   1.787   5.495   3.570
 8308TIP3    H224868   1.908   5.500   3.658
 8309TIP3   OH224869   2.494   6.168   5.188
 8309TIP3    H124870   2.573   6.142   5.140
 8309TIP3    H224871   2.491   6.102   5.259
 8310TIP3   OH224872   2.626   5.828   3.335
 8310TIP3    H124873   2.607   5.781   3.251
 8310TIP3    H224874   2.595   5.918   3.310
 8311TIP3   OH224875   2.098   5.555   5.183
 8311TIP3    H124876   2.101   5.476   5.126
 8311TIP3    H224877   2.055   5.622   5.124
 8312TIP3   OH224878   2.102   5.341   4.993
 8312TIP3    H124879   2.132   5.384   4.910
 8312TIP3    H224880   2.009   5.319   4.972
 8313TIP3   OH224881   2.125   5.875   4.866
 8313TIP3    H124882   2.212   5.881   4.823
 8313TIP3    H224883   2.074   5.943   4.817
 8314TIP3   OH224884   2.712   5.845   5.243
 8314TIP3    H124885   2.758   5.760   5.248
 8314TIP3    H224886   2.780   5.901   5.204
 8315TIP3   OH224887   2.748   6.100   4.980
 8315TIP3    H124888   2.693   6.155   4.920
 8315TIP3    H224889   2.837   6.118   4.942
 8316TIP3   OH224890   1.977   5.664   5.415
 8316TIP3    H124891   1.909   5.595   5.430
 8316TIP3    H224892   2.012   5.639   5.327
 8317TIP3   OH224893   2.233   5.105   5.061
 8317TIP3    H124894   2.186   5.188   5.036
 8317TIP3    H224895   2.164   5.038   5.047
 8318TIP3   OH224896   2.359   5.608   5.275
 8318TIP3    H124897   2.345   5.594   5.370
 8318TIP3    H224898   2.270   5.584   5.242
 8319TIP3   OH224899   2.599   5.565   5.131
 8319TIP3    H124900   2.524   5.562   5.193
 8319TIP3    H224901   2.674   5.533   5.186
 8320TIP3   OH224902   2.819   5.498   5.283
 8320TIP3    H124903   2.838   5.403   5.300
 8320TIP3    H224904   2.822   5.537   5.372
 8321TIP3   OH224905   1.816   5.444   5.469
 8321TIP3    H124906   1.822   5.353   5.435
 8321TIP3    H224907   1.854   5.431   5.559
 8322TIP3   OH224908   2.326   5.113   5.318
 8322TIP3    H124909   2.393   5.042   5.310
 8322TIP3    H224910   2.287   5.111   5.229
 8323TIP3   OH224911   2.393   5.328   5.477
 8323TIP3    H124912   2.371   5.258   5.411
 8323TIP3    H224913   2.315   5.388   5.469
 8324TIP3   OH224914   1.624   6.552   3.578
 8324TIP3    H124915   1.721   6.551   3.565
 8324TIP3    H224916   1.596   6.603   3.500
 8325TIP3   OH224917   1.096   5.932   3.794
 8325TIP3    H124918   1.190   5.955   3.773
 8325TIP3    H224919   1.088   5.846   3.747
 8326TIP3   OH224920   1.015   6.545   4.208
 8326TIP3    H124921   0.946   6.489   4.166
 8326TIP3    H224922   1.055   6.481   4.270
 8327TIP3   OH224923   1.156   6.397   4.395
 8327TIP3    H124924   1.127   6.330   4.459
 8327TIP3    H224925   1.208   6.455   4.453
 8328TIP3   OH224926   2.868   6.812   4.194
 8328TIP3    H124927   2.904   6.841   4.279
 8328TIP3    H224928   2.938   6.837   4.132
 8329TIP3   OH224929   2.902   6.824   4.478
 8329TIP3    H124930   2.860   6.736   4.471
 8329TIP3    H224931   2.980   6.801   4.531
 8330TIP3   OH224932   2.946   6.503   5.046
 8330TIP3    H124933   2.876   6.511   5.113
 8330TIP3    H224934   2.991   6.590   5.052
 8331TIP3   OH224935   2.756   6.013   3.668
 8331TIP3    H124936   2.822   6.079   3.634
 8331TIP3    H224937   2.806   5.975   3.743
 8332TIP3   OH224938   2.892   5.882   3.869
 8332TIP3    H124939   2.829   5.839   3.931
 8332TIP3    H224940   2.961   5.916   3.929
 8333TIP3   OH224941   2.941   6.271   4.297
 8333TIP3    H124942   3.000   6.204   4.256
 8333TIP3    H224943   2.948   6.346   4.234
 8334TIP3   OH224944   2.777   6.573   4.496
 8334TIP3    H124945   2.705   6.612   4.547
 8334TIP3    H224946   2.730   6.524   4.426
 8335TIP3   OH224947   2.828   5.789   3.517
 8335TIP3    H124948   2.757   5.792   3.450
 8335TIP3    H224949   2.803   5.866   3.572
 8336TIP3   OH224950   2.701   5.461   3.469
 8336TIP3    H124951   2.655   5.495   3.391
 8336TIP3    H224952   2.679   5.365   3.461
 8337TIP3   OH224953   2.702   5.738   4.015
 8337TIP3    H124954   2.713   5.642   4.008
 8337TIP3    H224955   2.691   5.751   4.112
 8338TIP3   OH224956   1.331   5.814   4.761
 8338TIP3    H124957   1.331   5.778   4.670
 8338TIP3    H224958   1.428   5.814   4.779
 8339TIP3   OH224959   2.994   6.163   4.874
 8339TIP3    H124960   3.064   6.095   4.865
 8339TIP3    H224961   3.022   6.229   4.809
 8340TIP3   OH224962   3.176   5.966   4.891
 8340TIP3    H124963   3.102   5.913   4.927
 8340TIP3    H224964   3.251   5.905   4.908
 8341TIP3   OH224965   2.647   5.195   3.446
 8341TIP3    H124966   2.716   5.163   3.507
 8341TIP3    H224967   2.568   5.142   3.472
 8342TIP3   OH224968   2.702   5.457   3.907
 8342TIP3    H124969   2.741   5.367   3.921
 8342TIP3    H224970   2.760   5.488   3.835
 8343TIP3   OH224971   2.859   5.648   4.409
 8343TIP3    H124972   2.946   5.666   4.368
 8343TIP3    H224973   2.883   5.665   4.502
 8344TIP3   OH224974   2.942   5.771   4.648
 8344TIP3    H124975   2.860   5.807   4.685
 8344TIP3    H224976   2.977   5.847   4.598
 8345TIP3   OH224977   1.549   5.497   5.438
 8345TIP3    H124978   1.647   5.491   5.441
 8345TIP3    H224979   1.526   5.410   5.476
 8346TIP3   OH224980   3.380   5.360   5.192
 8346TIP3    H124981   3.442   5.299   5.148
 8346TIP3    H224982   3.351   5.417   5.117
 8347TIP3   OH224983   2.808   5.209   3.946
 8347TIP3    H124984   2.865   5.196   4.026
 8347TIP3    H224985   2.753   5.128   3.949
 8348TIP3   OH224986   1.511   5.191   4.772
 8348TIP3    H124987   1.573   5.115   4.779
 8348TIP3    H224988   1.574   5.264   4.761
 8349TIP3   OH224989   1.310   5.463   4.840
 8349TIP3    H124990   1.360   5.454   4.756
 8349TIP3    H224991   1.348   5.544   4.876
 8350TIP3   OH224992   3.253   5.503   4.999
 8350TIP3    H124993   3.165   5.544   5.011
 8350TIP3    H224994   3.228   5.430   4.939
 8351TIP3   OH224995   2.887   5.136   3.580
 8351TIP3    H124996   2.931   5.066   3.528
 8351TIP3    H224997   2.955   5.206   3.584
 8352TIP3   OH224998   1.297   4.972   4.350
 8352TIP3    H124999   1.202   4.962   4.369
 8352TIP3    H225000   1.295   5.025   4.268
 8353TIP3   OH225001   2.438   6.677   3.840
 8353TIP3    H125002   2.501   6.663   3.765
 8353TIP3    H225003   2.492   6.735   3.897
 8354TIP3   OH225004   1.519   5.048   5.157
 8354TIP3    H125005   1.467   5.042   5.238
 8354TIP3    H225006   1.452   5.083   5.095
 8355TIP3   OH225007   1.555   6.474   5.229
 8355TIP3    H125008   1.462   6.449   5.217
 8355TIP3    H225009   1.570   6.458   5.322
 8356TIP3   OH225010   1.738   6.507   4.778
 8356TIP3    H125011   1.691   6.585   4.741
 8356TIP3    H225012   1.825   6.521   4.735
 8357TIP3   OH225013   2.178   6.753   4.918
 8357TIP3    H125014   2.220   6.752   5.006
 8357TIP3    H225015   2.245   6.803   4.866
 8358TIP3   OH225016   2.360   6.904   4.778
 8358TIP3    H125017   2.433   6.854   4.738
 8358TIP3    H225018   2.410   6.962   4.839
 8359TIP3   OH225019   3.149   5.268   4.883
 8359TIP3    H125020   3.066   5.268   4.832
 8359TIP3    H225021   3.185   5.178   4.864
 8360TIP3   OH225022   1.409   6.759   4.806
 8360TIP3    H125023   1.317   6.790   4.786
 8360TIP3    H225024   1.427   6.811   4.886
 8361TIP3   OH225025   1.641   6.736   4.660
 8361TIP3    H125026   1.557   6.755   4.707
 8361TIP3    H225027   1.627   6.780   4.574
 8362TIP3   OH225028   2.074   6.771   4.454
 8362TIP3    H125029   2.001   6.793   4.395
 8362TIP3    H225030   2.088   6.857   4.501
 8363TIP3   OH225031   2.344   6.708   4.510
 8363TIP3    H125032   2.250   6.730   4.492
 8363TIP3    H225033   2.390   6.784   4.471
 8364TIP3   OH225034   2.543   6.899   4.424
 8364TIP3    H125035   2.534   6.985   4.378
 8364TIP3    H225036   2.575   6.841   4.352
 8365TIP3   OH225037   1.353   6.547   4.539
 8365TIP3    H125038   1.332   6.520   4.630
 8365TIP3    H225039   1.449   6.559   4.548
 8366TIP3   OH225040   1.790   6.529   4.405
 8366TIP3    H125041   1.808   6.433   4.404
 8366TIP3    H225042   1.832   6.552   4.490
 8367TIP3   OH225043   2.352   5.179   4.492
 8367TIP3    H125044   2.317   5.105   4.544
 8367TIP3    H225045   2.430   5.140   4.448
 8368TIP3   OH225046   2.878   5.046   4.395
 8368TIP3    H125047   2.935   5.121   4.368
 8368TIP3    H225048   2.790   5.087   4.393
 8369TIP3   OH225049   2.985   5.177   4.148
 8369TIP3    H125050   3.064   5.126   4.120
 8369TIP3    H225051   3.021   5.234   4.219
 8370TIP3   OH225052   1.605   4.890   4.513
 8370TIP3    H125053   1.513   4.857   4.513
 8370TIP3    H225054   1.654   4.804   4.507
 8371TIP3   OH225055   1.406   4.758   4.166
 8371TIP3    H125056   1.432   4.811   4.088
 8371TIP3    H225057   1.373   4.827   4.227
 8372TIP3   OH225058   2.056   4.918   4.395
 8372TIP3    H125059   2.107   4.964   4.327
 8372TIP3    H225060   2.086   4.963   4.475
 8373TIP3   OH225061   2.584   5.068   4.380
 8373TIP3    H125062   2.603   5.036   4.291
 8373TIP3    H225063   2.581   4.984   4.431
 8374TIP3   OH225064   2.629   4.990   3.938
 8374TIP3    H125065   2.543   5.034   3.951
 8374TIP3    H225066   2.614   4.906   3.986
 8375TIP3   OH225067   1.115   6.342   3.957
 8375TIP3    H125068   1.035   6.293   3.929
 8375TIP3    H225069   1.095   6.428   3.916
 8376TIP3   OH225070   1.513   4.912   3.929
 8376TIP3    H125071   1.559   4.852   3.866
 8376TIP3    H225072   1.587   4.967   3.961
 8377TIP3   OH225073   2.018   5.095   4.024
 8377TIP3    H125074   2.083   5.048   4.080
 8377TIP3    H225075   2.042   5.188   4.047
 8378TIP3   OH225076   1.895   6.511   3.533
 8378TIP3    H125077   1.979   6.533   3.489
 8378TIP3    H225078   1.872   6.429   3.483
 8379TIP3   OH225079   2.590   6.634   3.617
 8379TIP3    H125080   2.586   6.537   3.600
 8379TIP3    H225081   2.559   6.668   3.530
 8380TIP3   OH225082   1.814   5.167   5.403
 8380TIP3    H125083   1.780   5.097   5.461
 8380TIP3    H225084   1.909   5.168   5.430
 8381TIP3   OH225085   2.064   5.167   5.523
 8381TIP3    H125086   2.149   5.142   5.483
 8381TIP3    H225087   2.051   5.096   5.589
 8382TIP3   OH225088   1.187   6.352   3.576
 8382TIP3    H125089   1.192   6.379   3.668
 8382TIP3    H225090   1.274   6.309   3.561
 8383TIP3   OH225091   2.894   5.228   5.313
 8383TIP3    H125092   2.919   5.198   5.403
 8383TIP3    H225093   2.981   5.228   5.267
 8384TIP3   OH225094   2.825   6.780   4.805
 8384TIP3    H125095   2.748   6.750   4.753
 8384TIP3    H225096   2.807   6.876   4.808
 8385TIP3   OH225097   4.097   6.153   3.565
 8385TIP3    H125098   4.066   6.244   3.544
 8385TIP3    H225099   4.018   6.103   3.540
 8386TIP3   OH225100   4.098   6.152   3.953
 8386TIP3    H125101   4.131   6.128   4.041
 8386TIP3    H225102   4.052   6.071   3.926
 8387TIP3   OH225103   3.388   6.047   4.320
 8387TIP3    H125104   3.422   5.978   4.380
 8387TIP3    H225105   3.470   6.094   4.298
 8388TIP3   OH225106   4.343   6.450   3.635
 8388TIP3    H125107   4.323   6.384   3.703
 8388TIP3    H225108   4.369   6.527   3.688
 8389TIP3   OH225109   3.364   6.459   4.045
 8389TIP3    H125110   3.355   6.361   4.041
 8389TIP3    H225111   3.460   6.467   4.030
 8390TIP3   OH225112   3.068   5.655   3.824
 8390TIP3    H125113   3.024   5.740   3.841
 8390TIP3    H225114   2.998   5.608   3.777
 8391TIP3   OH225115   3.128   5.946   4.001
 8391TIP3    H125116   3.181   5.870   4.035
 8391TIP3    H225117   3.190   5.988   3.940
 8392TIP3   OH225118   3.990   6.922   3.653
 8392TIP3    H125119   4.033   6.851   3.599
 8392TIP3    H225120   3.977   6.876   3.737
 8393TIP3   OH225121   3.891   6.380   3.998
 8393TIP3    H125122   3.928   6.304   3.951
 8393TIP3    H225123   3.975   6.424   4.023
 8394TIP3   OH225124   4.909   5.700   3.996
 8394TIP3    H125125   4.936   5.782   4.041
 8394TIP3    H225126   4.927   5.722   3.904
 8395TIP3   OH225127   4.308   5.881   4.028
 8395TIP3    H125128   4.348   5.794   4.050
 8395TIP3    H225129   4.274   5.862   3.938
 8396TIP3   OH225130   3.651   5.538   3.991
 8396TIP3    H125131   3.625   5.612   3.932
 8396TIP3    H225132   3.598   5.465   3.952
 8397TIP3   OH225133   4.339   5.628   3.616
 8397TIP3    H125134   4.410   5.614   3.684
 8397TIP3    H225135   4.392   5.666   3.544
 8398TIP3   OH225136   3.283   5.741   4.102
 8398TIP3    H125137   3.361   5.713   4.154
 8398TIP3    H225138   3.298   5.687   4.021
 8399TIP3   OH225139   3.717   5.937   3.900
 8399TIP3    H125140   3.811   5.911   3.912
 8399TIP3    H225141   3.678   5.854   3.866
 8400TIP3   OH225142   4.979   5.910   4.164
 8400TIP3    H125143   4.894   5.954   4.146
 8400TIP3    H225144   4.989   5.931   4.258
 8401TIP3   OH225145   3.636   5.524   4.429
 8401TIP3    H125146   3.573   5.552   4.359
 8401TIP3    H225147   3.581   5.544   4.508
 8402TIP3   OH225148   3.979   6.369   3.441
 8402TIP3    H125149   3.941   6.355   3.353
 8402TIP3    H225150   3.938   6.455   3.465
 8403TIP3   OH225151   3.746   6.299   4.221
 8403TIP3    H125152   3.685   6.366   4.258
 8403TIP3    H225153   3.788   6.347   4.147
 8404TIP3   OH225154   4.545   5.635   3.794
 8404TIP3    H125155   4.521   5.597   3.880
 8404TIP3    H225156   4.596   5.714   3.821
 8405TIP3   OH225157   3.517   5.643   4.210
 8405TIP3    H125158   3.584   5.711   4.232
 8405TIP3    H225159   3.562   5.595   4.138
 8406TIP3   OH225160   3.576   6.494   4.324
 8406TIP3    H125161   3.548   6.578   4.282
 8406TIP3    H225162   3.497   6.476   4.379
 8407TIP3   OH225163   2.948   6.184   3.566
 8407TIP3    H125164   2.931   6.218   3.477
 8407TIP3    H225165   3.025   6.239   3.591
 8408TIP3   OH225166   4.408   6.701   3.799
 8408TIP3    H125167   4.319   6.690   3.838
 8408TIP3    H225168   4.397   6.786   3.753
 8409TIP3   OH225169   4.702   5.596   4.161
 8409TIP3    H125170   4.614   5.627   4.133
 8409TIP3    H225171   4.760   5.630   4.089
 8410TIP3   OH225172   3.997   5.246   4.145
 8410TIP3    H125173   3.978   5.152   4.163
 8410TIP3    H225174   3.921   5.287   4.192
 8411TIP3   OH225175   4.107   6.753   3.473
 8411TIP3    H125176   4.154   6.667   3.455
 8411TIP3    H225177   4.169   6.814   3.428
 8412TIP3   OH225178   4.244   6.535   3.389
 8412TIP3    H125179   4.230   6.459   3.331
 8412TIP3    H225180   4.282   6.492   3.469
 8413TIP3   OH225181   4.635   6.612   4.140
 8413TIP3    H125182   4.621   6.532   4.084
 8413TIP3    H225183   4.617   6.685   4.077
 8414TIP3   OH225184   3.924   6.000   3.401
 8414TIP3    H125185   3.843   6.054   3.387
 8414TIP3    H225186   3.968   6.008   3.315
 8415TIP3   OH225187   3.879   5.795   3.112
 8415TIP3    H125188   3.947   5.842   3.164
 8415TIP3    H225189   3.934   5.728   3.067
 8416TIP3   OH225190   4.830   6.252   3.989
 8416TIP3    H125191   4.745   6.300   3.995
 8416TIP3    H225192   4.857   6.275   3.897
 8417TIP3   OH225193   4.275   6.084   3.371
 8417TIP3    H125194   4.219   6.111   3.447
 8417TIP3    H225195   4.358   6.062   3.417
 8418TIP3   OH225196   4.505   6.123   4.284
 8418TIP3    H125197   4.507   6.201   4.343
 8418TIP3    H225198   4.418   6.134   4.242
 8419TIP3   OH225199   3.506   6.084   3.790
 8419TIP3    H125200   3.465   6.030   3.719
 8419TIP3    H225201   3.582   6.029   3.817
 8420TIP3   OH225202   3.629   6.501   3.933
 8420TIP3    H125203   3.603   6.466   3.845
 8420TIP3    H225204   3.716   6.459   3.946
 8421TIP3   OH225205   3.635   6.057   4.143
 8421TIP3    H125206   3.669   6.032   4.055
 8421TIP3    H225207   3.681   6.142   4.161
 8422TIP3   OH225208   4.168   6.694   3.921
 8422TIP3    H125209   4.154   6.771   3.978
 8422TIP3    H225210   4.152   6.618   3.981
 8423TIP3   OH225211   3.780   6.614   4.465
 8423TIP3    H125212   3.719   6.675   4.512
 8423TIP3    H225213   3.715   6.560   4.415
 8424TIP3   OH225214   4.117   5.939   3.198
 8424TIP3    H125215   4.173   6.002   3.251
 8424TIP3    H225216   4.142   5.965   3.106
 8425TIP3   OH225217   3.537   6.168   4.573
 8425TIP3    H125218   3.539   6.256   4.615
 8425TIP3    H225219   3.442   6.148   4.578
 8426TIP3   OH225220   3.863   6.621   3.470
 8426TIP3    H125221   3.940   6.678   3.482
 8426TIP3    H225222   3.796   6.680   3.434
 8427TIP3   OH225223   3.573   6.780   4.553
 8427TIP3    H125224   3.539   6.779   4.461
 8427TIP3    H225225   3.492   6.759   4.605
 8428TIP3   OH225226   4.626   5.191   3.240
 8428TIP3    H125227   4.546   5.201   3.297
 8428TIP3    H225228   4.625   5.278   3.195
 8429TIP3   OH225229   3.381   5.929   3.583
 8429TIP3    H125230   3.313   5.984   3.538
 8429TIP3    H225231   3.332   5.849   3.603
 8430TIP3   OH225232   3.152   6.311   4.500
 8430TIP3    H125233   3.090   6.285   4.428
 8430TIP3    H225234   3.192   6.226   4.525
 8431TIP3   OH225235   3.011   6.498   4.141
 8431TIP3    H125236   3.103   6.486   4.115
 8431TIP3    H225237   3.016   6.579   4.193
 8432TIP3   OH225238   4.870   6.958   4.188
 8432TIP3    H125239   4.871   6.861   4.203
 8432TIP3    H225240   4.787   6.982   4.235
 8433TIP3   OH225241   3.976   6.743   4.322
 8433TIP3    H125242   3.972   6.835   4.356
 8433TIP3    H225243   3.905   6.701   4.376
 8434TIP3   OH225244   3.742   6.874   3.273
 8434TIP3    H125245   3.688   6.851   3.195
 8434TIP3    H225246   3.705   6.959   3.301
 8435TIP3   OH225247   3.173   6.715   3.650
 8435TIP3    H125248   3.214   6.694   3.737
 8435TIP3    H225249   3.134   6.629   3.626
 8436TIP3   OH225250   3.939   6.771   2.913
 8436TIP3    H125251   3.998   6.700   2.880
 8436TIP3    H225252   3.972   6.782   3.005
 8437TIP3   OH225253   3.991   6.820   3.181
 8437TIP3    H125254   3.903   6.830   3.223
 8437TIP3    H225255   4.040   6.774   3.251
 8438TIP3   OH225256   4.771   6.089   4.454
 8438TIP3    H125257   4.676   6.106   4.453
 8438TIP3    H225258   4.775   5.992   4.454
 8439TIP3   OH225259   3.357   6.496   4.489
 8439TIP3    H125260   3.407   6.476   4.570
 8439TIP3    H225261   3.283   6.431   4.494
 8440TIP3   OH225262   3.766   5.324   4.275
 8440TIP3    H125263   3.679   5.285   4.246
 8440TIP3    H225264   3.732   5.404   4.320
 8441TIP3   OH225265   4.290   5.430   4.467
 8441TIP3    H125266   4.360   5.406   4.532
 8441TIP3    H225267   4.207   5.413   4.516
 8442TIP3   OH225268   4.532   5.866   4.389
 8442TIP3    H125269   4.482   5.862   4.473
 8442TIP3    H225270   4.509   5.954   4.355
 8443TIP3   OH225271   4.189   5.978   2.939
 8443TIP3    H125272   4.157   5.958   2.849
 8443TIP3    H225273   4.264   6.037   2.921
 8444TIP3   OH225274   3.912   5.362   3.248
 8444TIP3    H125275   3.874   5.362   3.338
 8444TIP3    H225276   3.867   5.283   3.212
 8445TIP3   OH225277   3.696   5.837   4.293
 8445TIP3    H125278   3.640   5.851   4.372
 8445TIP3    H225279   3.674   5.917   4.240
 8446TIP3   OH225280   3.573   5.719   3.805
 8446TIP3    H125281   3.480   5.695   3.824
 8446TIP3    H225282   3.583   5.677   3.716
 8447TIP3   OH225283   4.063   5.806   3.536
 8447TIP3    H125284   4.009   5.877   3.494
 8447TIP3    H225285   4.116   5.774   3.461
 8448TIP3   OH225286   4.238   6.082   4.617
 8448TIP3    H125287   4.222   6.011   4.683
 8448TIP3    H225288   4.333   6.099   4.634
 8449TIP3   OH225289   4.221   5.832   3.771
 8449TIP3    H125290   4.157   5.861   3.703
 8449TIP3    H225291   4.252   5.750   3.727
 8450TIP3   OH225292   3.509   5.862   4.498
 8450TIP3    H125293   3.541   5.920   4.568
 8450TIP3    H225294   3.493   5.778   4.546
 8451TIP3   OH225295   3.560   5.342   3.209
 8451TIP3    H125296   3.550   5.339   3.306
 8451TIP3    H225297   3.481   5.394   3.184
 8452TIP3   OH225298   3.069   5.367   3.599
 8452TIP3    H125299   3.114   5.406   3.521
 8452TIP3    H225300   3.008   5.441   3.622
 8453TIP3   OH225301   4.226   6.078   4.192
 8453TIP3    H125302   4.263   6.007   4.135
 8453TIP3    H225303   4.200   6.026   4.271
 8454TIP3   OH225304   3.903   5.536   3.864
 8454TIP3    H125305   3.819   5.538   3.915
 8454TIP3    H225306   3.969   5.538   3.936
 8455TIP3   OH225307   3.334   5.601   3.870
 8455TIP3    H125308   3.238   5.605   3.847
 8455TIP3    H225309   3.356   5.507   3.856
 8456TIP3   OH225310   3.601   5.590   3.564
 8456TIP3    H125311   3.693   5.611   3.541
 8456TIP3    H225312   3.551   5.614   3.483
 8457TIP3   OH225313   4.391   5.616   4.063
 8457TIP3    H125314   4.366   5.629   4.157
 8457TIP3    H225315   4.319   5.557   4.034
 8458TIP3   OH225316   3.449   5.623   3.341
 8458TIP3    H125317   3.374   5.582   3.294
 8458TIP3    H225318   3.499   5.662   3.266
 8459TIP3   OH225319   4.564   7.307   4.290
 8459TIP3    H125320   4.565   7.328   4.195
 8459TIP3    H225321   4.645   7.353   4.320
 8460TIP3   OH225322   3.518   6.419   4.709
 8460TIP3    H125323   3.599   6.446   4.757
 8460TIP3    H225324   3.454   6.415   4.783
 8461TIP3   OH225325   3.982   5.870   3.967
 8461TIP3    H125326   4.057   5.828   3.921
 8461TIP3    H225327   3.986   5.829   4.055
 8462TIP3   OH225328   3.503   5.357   3.846
 8462TIP3    H125329   3.462   5.283   3.896
 8462TIP3    H225330   3.546   5.310   3.774
 8463TIP3   OH225331   3.961   5.772   4.249
 8463TIP3    H125332   3.871   5.804   4.267
 8463TIP3    H225333   4.017   5.831   4.304
 8464TIP3   OH225334   3.700   6.153   3.353
 8464TIP3    H125335   3.623   6.094   3.339
 8464TIP3    H225336   3.678   6.191   3.441
 8465TIP3   OH225337   4.595   6.393   3.976
 8465TIP3    H125338   4.617   6.443   3.895
 8465TIP3    H225339   4.509   6.351   3.952
 8466TIP3   OH225340   4.140   5.490   3.166
 8466TIP3    H125341   4.057   5.452   3.203
 8466TIP3    H225342   4.160   5.565   3.226
 8467TIP3   OH225343   4.099   6.478   4.345
 8467TIP3    H125344   4.127   6.452   4.433
 8467TIP3    H225345   4.055   6.563   4.359
 8468TIP3   OH225346   4.223   5.710   3.315
 8468TIP3    H125347   4.318   5.720   3.335
 8468TIP3    H225348   4.201   5.794   3.269
 8469TIP3   OH225349   3.387   6.181   4.023
 8469TIP3    H125350   3.421   6.158   3.934
 8469TIP3    H225351   3.436   6.118   4.078
 8470TIP3   OH225352   3.837   6.304   3.168
 8470TIP3    H125353   3.790   6.391   3.175
 8470TIP3    H225354   3.784   6.251   3.231
 8471TIP3   OH225355   3.269   6.103   4.639
 8471TIP3    H125356   3.289   6.084   4.733
 8471TIP3    H225357   3.200   6.037   4.620
 8472TIP3   OH225358   3.997   6.217   4.657
 8472TIP3    H125359   3.939   6.155   4.609
 8472TIP3    H225360   4.086   6.183   4.631
 8473TIP3   OH225361   4.253   6.746   4.238
 8473TIP3    H125362   4.158   6.735   4.253
 8473TIP3    H225363   4.280   6.792   4.320
 8474TIP3   OH225364   4.668   5.811   3.155
 8474TIP3    H125365   4.599   5.767   3.100
 8474TIP3    H225366   4.664   5.900   3.113
 8475TIP3   OH225367   4.884   6.670   4.229
 8475TIP3    H125368   4.786   6.662   4.223
 8475TIP3    H225369   4.910   6.638   4.140
 8476TIP3   OH225370   4.360   6.258   3.890
 8476TIP3    H125371   4.267   6.231   3.907
 8476TIP3    H225372   4.394   6.176   3.849
 8477TIP3   OH225373   3.486   6.480   3.663
 8477TIP3    H125374   3.470   6.555   3.603
 8477TIP3    H225375   3.404   6.427   3.647
 8478TIP3   OH225376   3.053   5.790   3.356
 8478TIP3    H125377   3.097   5.875   3.376
 8478TIP3    H225378   2.976   5.795   3.417
 8479TIP3   OH225379   3.626   6.250   3.595
 8479TIP3    H125380   3.590   6.339   3.613
 8479TIP3    H225381   3.581   6.199   3.666
 8480TIP3   OH225382   3.759   6.826   4.120
 8480TIP3    H125383   3.802   6.897   4.068
 8480TIP3    H225384   3.836   6.788   4.166
 8481TIP3   OH225385   3.406   6.723   3.497
 8481TIP3    H125386   3.321   6.723   3.544
 8481TIP3    H225387   3.432   6.817   3.504
 8482TIP3   OH225388   4.146   6.463   4.077
 8482TIP3    H125389   4.135   6.462   4.175
 8482TIP3    H225390   4.224   6.406   4.067
 8483TIP3   OH225391   4.117   6.353   2.959
 8483TIP3    H125392   4.173   6.335   3.038
 8483TIP3    H225393   4.031   6.325   2.993
 8484TIP3   OH225394   4.395   6.994   4.130
 8484TIP3    H125395   4.318   6.934   4.128
 8484TIP3    H225396   4.374   7.055   4.056
 8485TIP3   OH225397   4.464   6.853   2.735
 8485TIP3    H125398   4.515   6.935   2.745
 8485TIP3    H225399   4.388   6.871   2.792
 8486TIP3   OH225400   3.474   5.608   4.642
 8486TIP3    H125401   3.376   5.609   4.650
 8486TIP3    H225402   3.498   5.547   4.714
 8487TIP3   OH225403   4.271   6.283   3.175
 8487TIP3    H125404   4.273   6.217   3.247
 8487TIP3    H225405   4.367   6.293   3.157
 8488TIP3   OH225406   3.193   6.690   4.279
 8488TIP3    H125407   3.248   6.613   4.301
 8488TIP3    H225408   3.229   6.757   4.338
 8489TIP3   OH225409   3.486   6.335   2.957
 8489TIP3    H125410   3.500   6.241   2.934
 8489TIP3    H225411   3.470   6.327   3.054
 8490TIP3   OH225412   3.437   6.337   3.226
 8490TIP3    H125413   3.471   6.307   3.311
 8490TIP3    H225414   3.432   6.434   3.240
 8491TIP3   OH225415   3.165   6.031   3.438
 8491TIP3    H125416   3.125   6.084   3.509
 8491TIP3    H225417   3.189   6.104   3.378
 8492TIP3   OH225418   4.327   5.663   4.323
 8492TIP3    H125419   4.395   5.709   4.375
 8492TIP3    H225420   4.308   5.585   4.379
 8493TIP3   OH225421   4.206   5.418   3.494
 8493TIP3    H125422   4.181   5.455   3.408
 8493TIP3    H225423   4.245   5.497   3.538
 8494TIP3   OH225424   3.702   6.540   3.178
 8494TIP3    H125425   3.613   6.555   3.216
 8494TIP3    H225426   3.711   6.619   3.123
 8495TIP3   OH225427   3.888   5.600   3.595
 8495TIP3    H125428   3.949   5.675   3.581
 8495TIP3    H225429   3.890   5.591   3.693
 8496TIP3   OH225430   4.159   5.919   4.404
 8496TIP3    H125431   4.180   5.976   4.481
 8496TIP3    H225432   4.212   5.841   4.423
 8497TIP3   OH225433   4.029   5.324   3.697
 8497TIP3    H125434   4.017   5.401   3.755
 8497TIP3    H225435   4.092   5.360   3.631
 8498TIP3   OH225436   3.445   6.611   3.247
 8498TIP3    H125437   3.412   6.683   3.189
 8498TIP3    H225438   3.426   6.648   3.337
 8499TIP3   OH225439   3.543   5.325   3.485
 8499TIP3    H125440   3.537   5.414   3.524
 8499TIP3    H225441   3.639   5.309   3.494
 8500TIP3   OH225442   4.795   5.811   4.382
 8500TIP3    H125443   4.698   5.818   4.395
 8500TIP3    H225444   4.797   5.768   4.295
 8501TIP3   OH225445   4.447   6.012   3.771
 8501TIP3    H125446   4.369   5.956   3.786
 8501TIP3    H225447   4.516   5.965   3.822
 8502TIP3   OH225448   3.148   6.247   3.229
 8502TIP3    H125449   3.206   6.308   3.279
 8502TIP3    H225450   3.212   6.202   3.171
 8503TIP3   OH225451   3.104   5.519   3.371
 8503TIP3    H125452   3.104   5.616   3.371
 8503TIP3    H225453   3.018   5.499   3.332
 8504TIP3   OH225454   4.414   6.975   3.721
 8504TIP3    H125455   4.372   7.022   3.646
 8504TIP3    H225456   4.509   6.991   3.700
 8505TIP3   OH225457   3.519   5.225   4.236
 8505TIP3    H125458   3.461   5.216   4.158
 8505TIP3    H225459   3.477   5.163   4.299
 8506TIP3   OH225460   3.196   7.000   4.694
 8506TIP3    H125461   3.281   6.997   4.743
 8506TIP3    H225462   3.174   6.906   4.692
 8507TIP3   OH225463   3.664   6.962   4.743
 8507TIP3    H125464   3.758   6.941   4.753
 8507TIP3    H225465   3.640   6.901   4.670
 8508TIP3   OH225466   3.648   6.536   2.868
 8508TIP3    H125467   3.589   6.468   2.909
 8508TIP3    H225468   3.725   6.481   2.846
 8509TIP3   OH225469   4.305   6.869   4.478
 8509TIP3    H125470   4.298   6.797   4.545
 8509TIP3    H225471   4.383   6.919   4.509
 8510TIP3   OH225472   4.092   6.574   2.788
 8510TIP3    H125473   4.119   6.510   2.857
 8510TIP3    H225474   4.173   6.581   2.736
 8511TIP3   OH225475   3.316   6.405   4.900
 8511TIP3    H125476   3.335   6.309   4.906
 8511TIP3    H225477   3.230   6.406   4.854
 8512TIP3   OH225478   3.299   6.053   3.093
 8512TIP3    H125479   3.351   6.024   3.170
 8512TIP3    H225480   3.370   6.058   3.025
 8513TIP3   OH225481   3.924   6.492   4.674
 8513TIP3    H125482   3.884   6.507   4.587
 8513TIP3    H225483   3.959   6.400   4.667
 8514TIP3   OH225484   3.807   6.255   2.899
 8514TIP3    H125485   3.806   6.268   2.996
 8514TIP3    H225486   3.804   6.157   2.894
 8515TIP3   OH225487   4.415   6.503   4.277
 8515TIP3    H125488   4.491   6.549   4.235
 8515TIP3    H225489   4.344   6.568   4.263
 8516TIP3   OH225490   3.436   6.142   4.884
 8516TIP3    H125491   3.513   6.090   4.855
 8516TIP3    H225492   3.464   6.171   4.973
 8517TIP3   OH225493   3.499   5.962   3.314
 8517TIP3    H125494   3.471   5.930   3.401
 8517TIP3    H225495   3.534   5.881   3.271
 8518TIP3   OH225496   3.773   6.023   4.546
 8518TIP3    H125497   3.695   6.083   4.548
 8518TIP3    H225498   3.822   6.057   4.467
 8519TIP3   OH225499   3.603   5.752   3.154
 8519TIP3    H125500   3.576   5.760   3.061
 8519TIP3    H225501   3.700   5.762   3.147
 8520TIP3   OH225502   4.300   6.428   4.681
 8520TIP3    H125503   4.374   6.398   4.627
 8520TIP3    H225504   4.326   6.387   4.767
 8521TIP3   OH225505   4.421   6.089   2.816
 8521TIP3    H125506   4.391   6.049   2.732
 8521TIP3    H225507   4.400   6.184   2.799
 8522TIP3   OH225508   3.896   5.812   4.669
 8522TIP3    H125509   3.895   5.733   4.611
 8522TIP3    H225510   3.852   5.880   4.613
 8523TIP3   OH225511   3.896   5.599   4.475
 8523TIP3    H125512   3.924   5.639   4.391
 8523TIP3    H225513   3.802   5.577   4.457
 8524TIP3   OH225514   3.923   6.133   4.351
 8524TIP3    H125515   4.007   6.143   4.306
 8524TIP3    H225516   3.866   6.199   4.304
 8525TIP3   OH225517   4.517   6.089   4.687
 8525TIP3    H125518   4.561   6.024   4.742
 8525TIP3    H225519   4.506   6.163   4.750
 8526TIP3   OH225520   4.548   6.347   4.454
 8526TIP3    H125521   4.490   6.405   4.400
 8526TIP3    H225522   4.637   6.373   4.420
 8527TIP3   OH225523   3.774   5.921   4.901
 8527TIP3    H125524   3.706   5.852   4.916
 8527TIP3    H225525   3.808   5.895   4.813
 8528TIP3   OH225526   4.028   5.362   4.547
 8528TIP3    H125527   3.980   5.444   4.522
 8528TIP3    H225528   3.958   5.295   4.533
 8529TIP3   OH225529   4.159   5.862   4.760
 8529TIP3    H125530   4.147   5.851   4.856
 8529TIP3    H225531   4.068   5.839   4.729
 8530TIP3   OH225532   4.390   5.797   4.609
 8530TIP3    H125533   4.317   5.810   4.673
 8530TIP3    H225534   4.466   5.782   4.668
 8531TIP3   OH225535   4.633   5.759   4.765
 8531TIP3    H125536   4.640   5.664   4.785
 8531TIP3    H225537   4.620   5.800   4.853
 8532TIP3   OH225538   3.612   5.700   4.954
 8532TIP3    H125539   3.618   5.610   4.919
 8532TIP3    H225540   3.648   5.687   5.044
 8533TIP3   OH225541   4.121   5.369   4.805
 8533TIP3    H125542   4.189   5.300   4.797
 8533TIP3    H225543   4.082   5.366   4.715
 8534TIP3   OH225544   4.187   5.583   4.965
 8534TIP3    H125545   4.166   5.514   4.899
 8534TIP3    H225546   4.110   5.644   4.956
 8535TIP3   OH225547   3.414   6.821   3.063
 8535TIP3    H125548   3.508   6.809   3.042
 8535TIP3    H225549   3.385   6.869   2.983
 8536TIP3   OH225550   2.885   6.199   3.265
 8536TIP3    H125551   2.980   6.223   3.258
 8536TIP3    H225552   2.887   6.107   3.230
 8537TIP3   OH225553   2.800   6.808   3.692
 8537TIP3    H125554   2.741   6.740   3.655
 8537TIP3    H225555   2.851   6.754   3.757
 8538TIP3   OH225556   2.931   6.672   3.886
 8538TIP3    H125557   2.935   6.584   3.927
 8538TIP3    H225558   2.993   6.722   3.941
 8539TIP3   OH225559   4.670   7.061   3.680
 8539TIP3    H125560   4.698   7.091   3.768
 8539TIP3    H225561   4.737   7.101   3.622
 8540TIP3   OH225562   4.701   7.080   3.963
 8540TIP3    H125563   4.653   6.994   3.957
 8540TIP3    H225564   4.773   7.054   4.022
 8541TIP3   OH225565   4.748   6.758   4.529
 8541TIP3    H125566   4.673   6.761   4.591
 8541TIP3    H225567   4.787   6.847   4.539
 8542TIP3   OH225568   4.551   6.252   3.150
 8542TIP3    H125569   4.584   6.340   3.125
 8542TIP3    H225570   4.607   6.230   3.228
 8543TIP3   OH225571   4.695   6.134   3.360
 8543TIP3    H125572   4.625   6.095   3.417
 8543TIP3    H225573   4.755   6.174   3.426
 8544TIP3   OH225574   4.746   6.532   3.790
 8544TIP3    H125575   4.798   6.465   3.742
 8544TIP3    H225576   4.738   6.603   3.723
 8545TIP3   OH225577   4.573   6.832   3.981
 8545TIP3    H125578   4.501   6.870   4.035
 8545TIP3    H225579   4.523   6.784   3.912
 8546TIP3   OH225580   4.624   6.038   2.996
 8546TIP3    H125581   4.552   6.049   2.930
 8546TIP3    H225582   4.600   6.112   3.056
 8547TIP3   OH225583   4.496   5.720   2.968
 8547TIP3    H125584   4.477   5.773   2.890
 8547TIP3    H225585   4.489   5.629   2.938
 8548TIP3   OH225586   4.504   5.995   3.504
 8548TIP3    H125587   4.509   5.898   3.501
 8548TIP3    H225588   4.488   6.011   3.600
 8549TIP3   OH225589   3.125   6.072   4.251
 8549TIP3    H125590   3.123   6.036   4.160
 8549TIP3    H225591   3.222   6.074   4.267
 8550TIP3   OH225592   4.796   6.421   4.359
 8550TIP3    H125593   4.866   6.353   4.348
 8550TIP3    H225594   4.822   6.489   4.296
 8551TIP3   OH225595   4.984   6.225   4.364
 8551TIP3    H125596   4.906   6.177   4.401
 8551TIP3    H225597   5.054   6.160   4.385
 8552TIP3   OH225598   4.497   5.710   3.397
 8552TIP3    H125599   4.539   5.621   3.411
 8552TIP3    H225600   4.559   5.747   3.332
 8553TIP3   OH225601   4.659   5.879   3.891
 8553TIP3    H125602   4.745   5.905   3.852
 8553TIP3    H225603   4.670   5.918   3.980
 8554TIP3   OH225604   4.728   6.026   4.119
 8554TIP3    H125605   4.655   6.057   4.178
 8554TIP3    H225606   4.759   6.111   4.081
 8555TIP3   OH225607   3.345   5.759   4.937
 8555TIP3    H125608   3.443   5.751   4.932
 8555TIP3    H225609   3.322   5.670   4.967
 8556TIP3   OH225610   5.183   5.623   4.678
 8556TIP3    H125611   5.241   5.557   4.634
 8556TIP3    H225612   5.151   5.676   4.602
 8557TIP3   OH225613   4.610   5.460   3.431
 8557TIP3    H125614   4.656   5.445   3.516
 8557TIP3    H225615   4.547   5.384   3.432
 8558TIP3   OH225616   3.102   5.742   4.325
 8558TIP3    H125617   3.146   5.691   4.255
 8558TIP3    H225618   3.161   5.818   4.331
 8559TIP3   OH225619   5.050   5.758   4.484
 8559TIP3    H125620   4.965   5.800   4.507
 8559TIP3    H225621   5.017   5.686   4.426
 8560TIP3   OH225622   4.694   5.409   3.033
 8560TIP3    H125623   4.750   5.331   3.039
 8560TIP3    H225624   4.756   5.481   3.056
 8561TIP3   OH225625   3.086   5.194   3.808
 8561TIP3    H125626   3.004   5.211   3.858
 8561TIP3    H225627   3.088   5.270   3.746
 8562TIP3   OH225628   4.256   6.929   3.327
 8562TIP3    H125629   4.305   6.902   3.247
 8562TIP3    H225630   4.318   6.990   3.370
 8563TIP3   OH225631   3.311   5.299   4.629
 8563TIP3    H125632   3.253   5.321   4.703
 8563TIP3    H225633   3.254   5.323   4.553
 8564TIP3   OH225634   3.352   6.738   4.721
 8564TIP3    H125635   3.261   6.707   4.703
 8564TIP3    H225636   3.366   6.708   4.811
 8565TIP3   OH225637   3.531   6.767   4.269
 8565TIP3    H125638   3.485   6.844   4.229
 8565TIP3    H225639   3.618   6.778   4.224
 8566TIP3   OH225640   3.974   7.010   4.405
 8566TIP3    H125641   4.016   7.006   4.494
 8566TIP3    H225642   4.040   7.060   4.354
 8567TIP3   OH225643   4.153   7.163   4.264
 8567TIP3    H125644   4.221   7.107   4.224
 8567TIP3    H225645   4.207   7.217   4.325
 8568TIP3   OH225646   4.951   5.520   4.363
 8568TIP3    H125647   4.859   5.513   4.332
 8568TIP3    H225648   4.981   5.427   4.353
 8569TIP3   OH225649   3.208   7.023   4.291
 8569TIP3    H125650   3.118   7.055   4.268
 8569TIP3    H225651   3.220   7.067   4.377
 8570TIP3   OH225652   3.445   7.003   4.151
 8570TIP3    H125653   3.358   7.013   4.195
 8570TIP3    H225654   3.424   7.031   4.060
 8571TIP3   OH225655   3.870   7.025   3.947
 8571TIP3    H125656   3.799   7.042   3.882
 8571TIP3    H225657   3.879   7.113   3.989
 8572TIP3   OH225658   4.139   6.969   4.001
 8572TIP3    H125659   4.044   6.981   3.980
 8572TIP3    H225660   4.179   7.042   3.952
 8573TIP3   OH225661   4.350   7.163   3.912
 8573TIP3    H125662   4.331   7.244   3.861
 8573TIP3    H225663   4.374   7.099   3.842
 8574TIP3   OH225664   3.117   6.813   4.040
 8574TIP3    H125665   3.148   6.786   4.129
 8574TIP3    H225666   3.188   6.771   3.986
 8575TIP3   OH225667   3.309   6.687   3.895
 8575TIP3    H125668   3.325   6.599   3.936
 8575TIP3    H225669   3.400   6.720   3.884
 8576TIP3   OH225670   3.584   6.783   3.894
 8576TIP3    H125671   3.607   6.690   3.879
 8576TIP3    H225672   3.629   6.797   3.980
 8577TIP3   OH225673   4.158   5.437   3.985
 8577TIP3    H125674   4.112   5.368   4.037
 8577TIP3    H225675   4.230   5.387   3.942
 8578TIP3   OH225676   4.675   5.314   3.882
 8578TIP3    H125677   4.711   5.370   3.810
 8578TIP3    H225678   4.581   5.338   3.881
 8579TIP3   OH225679   4.773   5.417   3.648
 8579TIP3    H125680   4.848   5.365   3.612
 8579TIP3    H225681   4.807   5.508   3.636
 8580TIP3   OH225682   3.400   5.147   3.988
 8580TIP3    H125683   3.308   5.114   3.995
 8580TIP3    H225684   3.450   5.063   3.992
 8581TIP3   OH225685   3.191   5.005   3.640
 8581TIP3    H125686   3.220   5.069   3.572
 8581TIP3    H225687   3.156   5.066   3.709
 8582TIP3   OH225688   3.852   5.172   3.878
 8582TIP3    H125689   3.909   5.225   3.820
 8582TIP3    H225690   3.860   5.218   3.962
 8583TIP3   OH225691   4.392   5.323   3.863
 8583TIP3    H125692   4.390   5.282   3.776
 8583TIP3    H225693   4.381   5.244   3.921
 8584TIP3   OH225694   4.425   5.247   3.426
 8584TIP3    H125695   4.341   5.293   3.444
 8584TIP3    H225696   4.410   5.162   3.472
 8585TIP3   OH225697   2.906   6.590   3.424
 8585TIP3    H125698   2.822   6.553   3.394
 8585TIP3    H225699   2.892   6.684   3.413
 8586TIP3   OH225700   3.309   5.175   3.407
 8586TIP3    H125701   3.359   5.112   3.352
 8586TIP3    H225702   3.381   5.228   3.446
 8587TIP3   OH225703   3.820   5.350   3.508
 8587TIP3    H125704   3.878   5.304   3.572
 8587TIP3    H225705   3.838   5.443   3.535
 8588TIP3   OH225706   3.679   6.770   3.007
 8588TIP3    H125707   3.767   6.792   2.972
 8588TIP3    H225708   3.657   6.694   2.949
 8589TIP3   OH225709   4.406   6.869   3.094
 8589TIP3    H125710   4.423   6.775   3.069
 8589TIP3    H225711   4.355   6.901   3.017
 8590TIP3   OH225712   3.611   5.421   4.890
 8590TIP3    H125713   3.578   5.351   4.949
 8590TIP3    H225714   3.705   5.424   4.917
 8591TIP3   OH225715   3.861   5.422   5.008
 8591TIP3    H125716   3.946   5.402   4.966
 8591TIP3    H225717   3.853   5.349   5.072
 8592TIP3   OH225718   2.985   6.611   3.069
 8592TIP3    H125719   2.985   6.619   3.165
 8592TIP3    H225720   3.071   6.568   3.051
 8593TIP3   OH225721   4.686   5.484   4.796
 8593TIP3    H125722   4.704   5.455   4.888
 8593TIP3    H225723   4.774   5.480   4.756
 8594TIP3   OH225724   4.623   7.037   4.290
 8594TIP3    H125725   4.545   7.005   4.241
 8594TIP3    H225726   4.603   7.132   4.296
 8595TIP3   OH225727   5.930   6.407   2.998
 8595TIP3    H125728   5.894   6.498   3.006
 8595TIP3    H225729   5.847   6.357   3.013
 8596TIP3   OH225730   5.893   6.403   3.438
 8596TIP3    H125731   5.928   6.388   3.528
 8596TIP3    H225732   5.846   6.319   3.422
 8597TIP3   OH225733   5.190   6.301   3.799
 8597TIP3    H125734   5.217   6.232   3.862
 8597TIP3    H225735   5.264   6.362   3.804
 8598TIP3   OH225736   6.136   6.713   3.120
 8598TIP3    H125737   6.122   6.649   3.190
 8598TIP3    H225738   6.164   6.792   3.171
 8599TIP3   OH225739   5.162   6.716   3.524
 8599TIP3    H125740   5.153   6.618   3.525
 8599TIP3    H225741   5.259   6.724   3.523
 8600TIP3   OH225742   4.872   5.919   3.308
 8600TIP3    H125743   4.823   6.000   3.330
 8600TIP3    H225744   4.800   5.866   3.269
 8601TIP3   OH225745   4.930   6.206   3.489
 8601TIP3    H125746   4.979   6.129   3.523
 8601TIP3    H225747   4.985   6.235   3.415
 8602TIP3   OH225748   5.787   7.174   3.133
 8602TIP3    H125749   5.833   7.100   3.088
 8602TIP3    H225750   5.772   7.137   3.221
 8603TIP3   OH225751   5.689   6.636   3.483
 8603TIP3    H125752   5.728   6.557   3.442
 8603TIP3    H225753   5.771   6.682   3.509
 8604TIP3   OH225754   6.704   5.956   3.482
 8604TIP3    H125755   6.733   6.039   3.526
 8604TIP3    H225756   6.726   5.976   3.389
 8605TIP3   OH225757   6.108   6.139   3.512
 8605TIP3    H125758   6.146   6.052   3.536
 8605TIP3    H225759   6.070   6.119   3.424
 8606TIP3   OH225760   5.443   5.796   3.479
 8606TIP3    H125761   5.419   5.868   3.417
 8606TIP3    H225762   5.393   5.721   3.439
 8607TIP3   OH225763   6.135   5.889   3.098
 8607TIP3    H125764   6.202   5.871   3.168
 8607TIP3    H225765   6.194   5.920   3.027
 8608TIP3   OH225766   5.075   5.998   3.589
 8608TIP3    H125767   5.157   5.977   3.638
 8608TIP3    H225768   5.087   5.941   3.510
 8609TIP3   OH225769   5.514   6.196   3.379
 8609TIP3    H125770   5.607   6.169   3.397
 8609TIP3    H225771   5.474   6.111   3.351
 8610TIP3   OH225772   6.777   6.165   3.650
 8610TIP3    H125773   6.691   6.209   3.634
 8610TIP3    H225774   6.791   6.187   3.743
 8611TIP3   OH225775   5.436   5.780   3.917
 8611TIP3    H125776   5.376   5.815   3.850
 8611TIP3    H225777   5.383   5.796   3.998
 8612TIP3   OH225778   5.797   6.646   2.910
 8612TIP3    H125779   5.742   6.616   2.835
 8612TIP3    H225780   5.743   6.723   2.940
 8613TIP3   OH225781   5.542   6.556   3.708
 8613TIP3    H125782   5.480   6.622   3.746
 8613TIP3    H225783   5.583   6.607   3.636
 8614TIP3   OH225784   6.338   5.894   3.278
 8614TIP3    H125785   6.326   5.844   3.360
 8614TIP3    H225786   6.391   5.970   3.309
 8615TIP3   OH225787   5.309   5.894   3.699
 8615TIP3    H125788   5.370   5.966   3.723
 8615TIP3    H225789   5.359   5.853   3.625
 8616TIP3   OH225790   5.371   6.751   3.807
 8616TIP3    H125791   5.345   6.838   3.772
 8616TIP3    H225792   5.293   6.733   3.864
 8617TIP3   OH225793   4.764   6.444   3.034
 8617TIP3    H125794   4.679   6.479   2.999
 8617TIP3    H225795   4.799   6.524   3.077
 8618TIP3   OH225796   6.202   6.955   3.280
 8618TIP3    H125797   6.114   6.947   3.323
 8618TIP3    H225798   6.195   7.044   3.239
 8619TIP3   OH225799   6.497   5.856   3.648
 8619TIP3    H125800   6.409   5.883   3.618
 8619TIP3    H225801   6.555   5.888   3.576
 8620TIP3   OH225802   5.788   5.496   3.631
 8620TIP3    H125803   5.774   5.401   3.651
 8620TIP3    H225804   5.711   5.535   3.678
 8621TIP3   OH225805   5.911   6.997   2.957
 8621TIP3    H125806   5.964   6.918   2.938
 8621TIP3    H225807   5.968   7.066   2.916
 8622TIP3   OH225808   6.043   6.760   2.864
 8622TIP3    H125809   5.958   6.715   2.877
 8622TIP3    H225810   6.089   6.741   2.948
 8623TIP3   OH225811   6.430   6.868   3.628
 8623TIP3    H125812   6.417   6.790   3.570
 8623TIP3    H225813   6.412   6.942   3.567
 8624TIP3   OH225814   5.720   6.247   2.852
 8624TIP3    H125815   5.639   6.297   2.874
 8624TIP3    H225816   5.729   6.275   2.760
 8625TIP3   OH225817   5.677   6.042   2.600
 8625TIP3    H125818   5.720   6.055   2.685
 8625TIP3    H225819   5.744   5.990   2.551
 8626TIP3   OH225820   6.625   6.506   3.474
 8626TIP3    H125821   6.541   6.557   3.479
 8626TIP3    H225822   6.654   6.529   3.383
 8627TIP3   OH225823   6.303   6.382   3.772
 8627TIP3    H125824   6.301   6.465   3.824
 8627TIP3    H225825   6.216   6.386   3.728
 8628TIP3   OH225826   5.302   6.340   3.272
 8628TIP3    H125827   5.261   6.283   3.205
 8628TIP3    H225828   5.378   6.286   3.303
 8629TIP3   OH225829   5.434   6.757   3.420
 8629TIP3    H125830   5.410   6.714   3.336
 8629TIP3    H225831   5.522   6.720   3.438
 8630TIP3   OH225832   5.443   6.310   3.629
 8630TIP3    H125833   5.473   6.291   3.537
 8630TIP3    H225834   5.482   6.398   3.647
 8631TIP3   OH225835   5.966   6.950   3.407
 8631TIP3    H125836   5.950   7.030   3.459
 8631TIP3    H225837   5.948   6.877   3.470
 8632TIP3   OH225838   5.576   6.869   3.952
 8632TIP3    H125839   5.515   6.930   3.999
 8632TIP3    H225840   5.510   6.815   3.903
 8633TIP3   OH225841   5.329   6.424   4.053
 8633TIP3    H125842   5.335   6.511   4.098
 8633TIP3    H225843   5.235   6.403   4.071
 8634TIP3   OH225844   5.657   6.876   2.961
 8634TIP3    H125845   5.731   6.938   2.975
 8634TIP3    H225846   5.591   6.930   2.916
 8635TIP3   OH225847   5.370   7.035   4.041
 8635TIP3    H125848   5.334   7.035   3.951
 8635TIP3    H225849   5.290   7.014   4.095
 8636TIP3   OH225850   6.423   5.445   2.736
 8636TIP3    H125851   6.340   5.464   2.786
 8636TIP3    H225852   6.433   5.526   2.683
 8637TIP3   OH225853   5.170   6.186   3.072
 8637TIP3    H125854   5.098   6.231   3.022
 8637TIP3    H225855   5.128   6.102   3.094
 8638TIP3   OH225856   6.226   6.808   2.284
 8638TIP3    H125857   6.232   6.905   2.268
 8638TIP3    H225858   6.319   6.780   2.269
 8639TIP3   OH225859   4.949   6.568   3.986
 8639TIP3    H125860   4.880   6.548   3.920
 8639TIP3    H225861   4.985   6.480   4.009
 8640TIP3   OH225862   4.804   6.761   3.616
 8640TIP3    H125863   4.900   6.757   3.610
 8640TIP3    H225864   4.791   6.838   3.674
 8641TIP3   OH225865   6.665   7.213   3.676
 8641TIP3    H125866   6.665   7.117   3.690
 8641TIP3    H225867   6.581   7.237   3.722
 8642TIP3   OH225868   5.772   6.997   3.810
 8642TIP3    H125869   5.769   7.090   3.842
 8642TIP3    H225870   5.701   6.957   3.864
 8643TIP3   OH225871   5.538   7.128   2.761
 8643TIP3    H125872   5.490   7.106   2.679
 8643TIP3    H225873   5.501   7.214   2.786
 8644TIP3   OH225874   4.974   6.975   3.145
 8644TIP3    H125875   5.016   6.964   3.233
 8644TIP3    H225876   4.922   6.892   3.139
 8645TIP3   OH225877   5.737   7.033   2.401
 8645TIP3    H125878   5.796   6.963   2.365
 8645TIP3    H225879   5.769   7.039   2.494
 8646TIP3   OH225880   5.789   7.078   2.671
 8646TIP3    H125881   5.698   7.088   2.708
 8646TIP3    H225882   5.835   7.038   2.746
 8647TIP3   OH225883   6.557   6.343   3.950
 8647TIP3    H125884   6.473   6.353   3.903
 8647TIP3    H225885   6.573   6.247   3.942
 8648TIP3   OH225886   5.154   6.751   3.972
 8648TIP3    H125887   5.203   6.735   4.055
 8648TIP3    H225888   5.079   6.688   3.980
 8649TIP3   OH225889   5.552   5.576   3.761
 8649TIP3    H125890   5.465   5.543   3.733
 8649TIP3    H225891   5.524   5.655   3.812
 8650TIP3   OH225892   6.087   5.689   3.955
 8650TIP3    H125893   6.155   5.661   4.019
 8650TIP3    H225894   6.003   5.669   4.002
 8651TIP3   OH225895   6.325   6.120   3.875
 8651TIP3    H125896   6.275   6.115   3.959
 8651TIP3    H225897   6.298   6.207   3.839
 8652TIP3   OH225898   6.005   6.249   2.450
 8652TIP3    H125899   5.954   6.227   2.371
 8652TIP3    H225900   6.084   6.290   2.410
 8653TIP3   OH225901   5.703   5.621   2.730
 8653TIP3    H125902   5.667   5.618   2.821
 8653TIP3    H225903   5.661   5.539   2.695
 8654TIP3   OH225904   5.486   6.089   3.780
 8654TIP3    H125905   5.434   6.108   3.860
 8654TIP3    H225906   5.470   6.171   3.727
 8655TIP3   OH225907   5.368   5.978   3.292
 8655TIP3    H125908   5.276   5.950   3.312
 8655TIP3    H225909   5.379   5.935   3.204
 8656TIP3   OH225910   5.862   6.071   3.012
 8656TIP3    H125911   5.804   6.133   2.965
 8656TIP3    H225912   5.920   6.042   2.940
 8657TIP3   OH225913   6.033   6.338   4.105
 8657TIP3    H125914   6.009   6.266   4.167
 8657TIP3    H225915   6.127   6.351   4.129
 8658TIP3   OH225916   6.017   6.089   3.255
 8658TIP3    H125917   5.952   6.112   3.186
 8658TIP3    H225918   6.053   6.007   3.215
 8659TIP3   OH225919   5.305   6.117   3.986
 8659TIP3    H125920   5.325   6.181   4.056
 8659TIP3    H225921   5.290   6.035   4.037
 8660TIP3   OH225922   5.354   5.599   2.696
 8660TIP3    H125923   5.346   5.595   2.793
 8660TIP3    H225924   5.275   5.652   2.673
 8661TIP3   OH225925   4.900   5.639   3.563
 8661TIP3    H125926   4.970   5.673   3.623
 8661TIP3    H225927   4.949   5.606   3.487
 8662TIP3   OH225928   4.865   5.623   3.086
 8662TIP3    H125929   4.913   5.662   3.010
 8662TIP3    H225930   4.807   5.698   3.109
 8663TIP3   OH225931   6.026   6.336   3.677
 8663TIP3    H125932   6.060   6.264   3.620
 8663TIP3    H225933   5.997   6.284   3.755
 8664TIP3   OH225934   5.700   5.805   3.354
 8664TIP3    H125935   5.618   5.797   3.405
 8664TIP3    H225936   5.768   5.790   3.422
 8665TIP3   OH225937   5.133   5.855   3.360
 8665TIP3    H125938   5.038   5.862   3.333
 8665TIP3    H225939   5.155   5.762   3.338
 8666TIP3   OH225940   5.395   5.849   3.052
 8666TIP3    H125941   5.489   5.862   3.029
 8666TIP3    H225942   5.348   5.870   2.969
 8667TIP3   OH225943   6.186   5.874   3.554
 8667TIP3    H125944   6.156   5.886   3.647
 8667TIP3    H225945   6.119   5.812   3.522
 8668TIP3   OH225946   5.244   5.884   2.827
 8668TIP3    H125947   5.171   5.839   2.781
 8668TIP3    H225948   5.294   5.920   2.752
 8669TIP3   OH225949   6.353   7.560   3.773
 8669TIP3    H125950   6.347   7.583   3.678
 8669TIP3    H225951   6.437   7.604   3.797
 8670TIP3   OH225952   5.317   6.674   4.193
 8670TIP3    H125953   5.395   6.703   4.244
 8670TIP3    H225954   5.251   6.670   4.265
 8671TIP3   OH225955   5.779   6.132   3.455
 8671TIP3    H125956   5.846   6.079   3.409
 8671TIP3    H225957   5.777   6.089   3.543
 8672TIP3   OH225958   5.298   5.610   3.334
 8672TIP3    H125959   5.262   5.534   3.384
 8672TIP3    H225960   5.358   5.565   3.273
 8673TIP3   OH225961   5.755   6.032   3.730
 8673TIP3    H125962   5.664   6.061   3.753
 8673TIP3    H225963   5.810   6.089   3.788
 8674TIP3   OH225964   5.497   6.407   2.844
 8674TIP3    H125965   5.421   6.346   2.828
 8674TIP3    H225966   5.472   6.445   2.932
 8675TIP3   OH225967   6.391   6.650   3.462
 8675TIP3    H125968   6.415   6.701   3.382
 8675TIP3    H225969   6.305   6.610   3.436
 8676TIP3   OH225970   5.946   5.735   2.717
 8676TIP3    H125971   5.855   5.695   2.717
 8676TIP3    H225972   5.926   5.829   2.712
 8677TIP3   OH225973   5.895   6.735   3.832
 8677TIP3    H125974   5.915   6.711   3.923
 8677TIP3    H225975   5.851   6.822   3.842
 8678TIP3   OH225976   6.032   6.022   2.779
 8678TIP3    H125977   6.116   5.987   2.816
 8678TIP3    H225978   6.050   6.016   2.684
 8679TIP3   OH225979   5.189   6.441   3.510
 8679TIP3    H125980   5.226   6.407   3.426
 8679TIP3    H225981   5.221   6.376   3.575
 8680TIP3   OH225982   5.644   6.563   2.673
 8680TIP3    H125983   5.595   6.648   2.671
 8680TIP3    H225984   5.582   6.508   2.726
 8681TIP3   OH225985   5.067   6.352   4.122
 8681TIP3    H125986   5.077   6.336   4.218
 8681TIP3    H225987   4.994   6.291   4.102
 8682TIP3   OH225988   5.791   6.473   4.143
 8682TIP3    H125989   5.729   6.412   4.102
 8682TIP3    H225990   5.877   6.436   4.115
 8683TIP3   OH225991   6.050   6.996   3.726
 8683TIP3    H125992   5.954   6.991   3.741
 8683TIP3    H225993   6.078   7.046   3.806
 8684TIP3   OH225994   6.455   6.066   2.639
 8684TIP3    H125995   6.393   6.020   2.578
 8684TIP3    H225996   6.457   6.152   2.593
 8685TIP3   OH225997   6.680   6.925   3.717
 8685TIP3    H125998   6.582   6.917   3.709
 8685TIP3    H225999   6.706   6.894   3.627
 8686TIP3   OH226000   6.167   6.887   2.549
 8686TIP3    H126001   6.144   6.819   2.613
 8686TIP3    H226002   6.175   6.839   2.465
 8687TIP3   OH226003   6.156   6.513   3.372
 8687TIP3    H126004   6.065   6.486   3.393
 8687TIP3    H226005   6.191   6.431   3.334
 8688TIP3   OH226006   5.283   6.739   3.132
 8688TIP3    H126007   5.279   6.822   3.081
 8688TIP3    H226008   5.190   6.723   3.150
 8689TIP3   OH226009   4.849   6.045   2.836
 8689TIP3    H126010   4.893   6.130   2.858
 8689TIP3    H226011   4.772   6.050   2.897
 8690TIP3   OH226012   5.424   6.507   3.083
 8690TIP3    H126013   5.385   6.596   3.099
 8690TIP3    H226014   5.384   6.456   3.156
 8691TIP3   OH226015   5.556   7.083   3.605
 8691TIP3    H126016   5.597   7.156   3.555
 8691TIP3    H226017   5.632   7.048   3.654
 8692TIP3   OH226018   5.205   6.978   2.989
 8692TIP3    H126019   5.118   6.986   3.034
 8692TIP3    H226020   5.235   7.072   2.991
 8693TIP3   OH226021   5.941   6.717   3.564
 8693TIP3    H126022   5.929   6.719   3.662
 8693TIP3    H226023   6.023   6.666   3.557
 8694TIP3   OH226024   5.907   6.613   2.438
 8694TIP3    H126025   5.918   6.610   2.534
 8694TIP3    H226026   5.818   6.575   2.429
 8695TIP3   OH226027   6.192   7.249   3.615
 8695TIP3    H126028   6.113   7.191   3.611
 8695TIP3    H226029   6.173   7.312   3.542
 8696TIP3   OH226030   6.256   7.084   2.265
 8696TIP3    H126031   6.288   7.158   2.211
 8696TIP3    H226032   6.176   7.127   2.303
 8697TIP3   OH226033   5.273   5.862   4.130
 8697TIP3    H126034   5.177   5.867   4.144
 8697TIP3    H226035   5.300   5.805   4.203
 8698TIP3   OH226036   4.994   6.945   3.763
 8698TIP3    H126037   5.045   6.871   3.799
 8698TIP3    H226038   5.018   7.016   3.825
 8699TIP3   OH226039   5.282   6.591   2.442
 8699TIP3    H126040   5.293   6.498   2.415
 8699TIP3    H226041   5.267   6.581   2.538
 8700TIP3   OH226042   5.239   6.599   2.714
 8700TIP3    H126043   5.295   6.572   2.788
 8700TIP3    H226044   5.240   6.697   2.722
 8701TIP3   OH226045   4.959   6.288   2.922
 8701TIP3    H126046   4.888   6.333   2.973
 8701TIP3    H226047   4.977   6.359   2.857
 8702TIP3   OH226048   6.117   5.923   3.814
 8702TIP3    H126049   6.195   5.963   3.857
 8702TIP3    H226050   6.101   5.843   3.868
 8703TIP3   OH226051   5.993   5.675   2.987
 8703TIP3    H126052   5.981   5.697   2.892
 8703TIP3    H226053   6.037   5.755   3.022
 8704TIP3   OH226054   5.500   6.791   2.672
 8704TIP3    H126055   5.415   6.824   2.705
 8704TIP3    H226056   5.501   6.831   2.583
 8705TIP3   OH226057   5.681   5.861   3.083
 8705TIP3    H126058   5.747   5.932   3.069
 8705TIP3    H226059   5.685   5.849   3.181
 8706TIP3   OH226060   5.955   6.176   3.886
 8706TIP3    H126061   5.975   6.228   3.966
 8706TIP3    H226062   6.006   6.094   3.902
 8707TIP3   OH226063   5.822   5.583   3.187
 8707TIP3    H126064   5.819   5.661   3.245
 8707TIP3    H226065   5.885   5.614   3.117
 8708TIP3   OH226066   5.243   6.870   2.736
 8708TIP3    H126067   5.211   6.939   2.674
 8708TIP3    H226068   5.223   6.912   2.823
 8709TIP3   OH226069   5.337   5.582   2.970
 8709TIP3    H126070   5.334   5.670   3.013
 8709TIP3    H226071   5.432   5.562   2.980
 8710TIP3   OH226072   6.591   6.075   3.868
 8710TIP3    H126073   6.493   6.076   3.878
 8710TIP3    H226074   6.597   6.024   3.786
 8711TIP3   OH226075   6.245   6.266   3.240
 8711TIP3    H126076   6.168   6.211   3.265
 8711TIP3    H226077   6.316   6.225   3.294
 8712TIP3   OH226078   4.977   6.496   2.743
 8712TIP3    H126079   5.041   6.569   2.744
 8712TIP3    H226080   5.013   6.444   2.668
 8713TIP3   OH226081   4.903   5.777   2.862
 8713TIP3    H126082   4.908   5.875   2.860
 8713TIP3    H226083   4.816   5.762   2.823
 8714TIP3   OH226084   6.212   7.227   3.205
 8714TIP3    H126085   6.169   7.273   3.130
 8714TIP3    H226086   6.306   7.246   3.185
 8715TIP3   OH226087   5.288   5.494   3.733
 8715TIP3    H126088   5.258   5.458   3.646
 8715TIP3    H226089   5.278   5.416   3.791
 8716TIP3   OH226090   4.832   6.729   3.117
 8716TIP3    H126091   4.752   6.735   3.170
 8716TIP3    H226092   4.799   6.758   3.029
 8717TIP3   OH226093   4.986   7.259   4.185
 8717TIP3    H126094   5.071   7.259   4.233
 8717TIP3    H226095   4.965   7.164   4.185
 8718TIP3   OH226096   5.464   7.218   4.229
 8718TIP3    H126097   5.557   7.196   4.238
 8718TIP3    H226098   5.437   7.157   4.158
 8719TIP3   OH226099   5.454   6.797   2.376
 8719TIP3    H126100   5.393   6.722   2.391
 8719TIP3    H226101   5.507   6.764   2.300
 8720TIP3   OH226102   6.107   7.124   3.962
 8720TIP3    H126103   6.096   7.054   4.031
 8720TIP3    H226104   6.182   7.176   3.997
 8721TIP3   OH226105   5.894   6.845   2.276
 8721TIP3    H126106   5.933   6.774   2.330
 8721TIP3    H226107   5.942   6.836   2.191
 8722TIP3   OH226108   5.117   6.661   4.383
 8722TIP3    H126109   5.132   6.565   4.388
 8722TIP3    H226110   5.027   6.665   4.344
 8723TIP3   OH226111   5.092   6.309   2.576
 8723TIP3    H126112   5.144   6.279   2.652
 8723TIP3    H226113   5.162   6.314   2.508
 8724TIP3   OH226114   5.723   6.749   4.159
 8724TIP3    H126115   5.678   6.766   4.074
 8724TIP3    H226116   5.752   6.656   4.151
 8725TIP3   OH226117   5.632   6.512   2.389
 8725TIP3    H126118   5.604   6.527   2.481
 8725TIP3    H226119   5.618   6.415   2.381
 8726TIP3   OH226120   6.214   6.756   3.766
 8726TIP3    H126121   6.288   6.804   3.723
 8726TIP3    H226122   6.141   6.821   3.754
 8727TIP3   OH226123   5.239   6.402   4.369
 8727TIP3    H126124   5.310   6.340   4.349
 8727TIP3    H226125   5.261   6.429   4.461
 8728TIP3   OH226126   5.302   6.217   2.805
 8728TIP3    H126127   5.267   6.179   2.888
 8728TIP3    H226128   5.332   6.138   2.756
 8729TIP3   OH226129   5.570   6.283   4.033
 8729TIP3    H126130   5.490   6.339   4.034
 8729TIP3    H226131   5.618   6.316   3.954
 8730TIP3   OH226132   5.397   6.011   2.639
 8730TIP3    H126133   5.368   6.016   2.546
 8730TIP3    H226134   5.494   6.017   2.628
 8731TIP3   OH226135   6.086   6.683   4.163
 8731TIP3    H126136   6.165   6.651   4.117
 8731TIP3    H226137   6.078   6.619   4.236
 8732TIP3   OH226138   6.226   6.341   2.305
 8732TIP3    H126139   6.202   6.294   2.223
 8732TIP3    H226140   6.191   6.431   2.283
 8733TIP3   OH226141   5.694   6.070   4.155
 8733TIP3    H126142   5.692   5.991   4.098
 8733TIP3    H226143   5.648   6.137   4.099
 8734TIP3   OH226144   5.695   5.857   3.962
 8734TIP3    H126145   5.721   5.894   3.876
 8734TIP3    H226146   5.601   5.833   3.946
 8735TIP3   OH226147   5.719   6.390   3.836
 8735TIP3    H126148   5.803   6.401   3.791
 8735TIP3    H226149   5.662   6.456   3.791
 8736TIP3   OH226150   6.301   6.355   4.215
 8736TIP3    H126151   6.347   6.272   4.233
 8736TIP3    H226152   6.372   6.411   4.182
 8737TIP3   OH226153   6.344   6.610   3.953
 8737TIP3    H126154   6.286   6.665   3.894
 8737TIP3    H226155   6.432   6.631   3.913
 8738TIP3   OH226156   5.570   6.177   4.387
 8738TIP3    H126157   5.503   6.108   4.404
 8738TIP3    H226158   5.604   6.150   4.299
 8739TIP3   OH226159   5.826   5.619   4.032
 8739TIP3    H126160   5.777   5.700   4.010
 8739TIP3    H226161   5.756   5.550   4.022
 8740TIP3   OH226162   5.952   6.121   4.247
 8740TIP3    H126163   5.938   6.107   4.343
 8740TIP3    H226164   5.862   6.097   4.215
 8741TIP3   OH226165   6.190   6.070   4.102
 8741TIP3    H126166   6.115   6.072   4.164
 8741TIP3    H226167   6.264   6.040   4.159
 8742TIP3   OH226168   6.423   6.014   4.251
 8742TIP3    H126169   6.434   5.918   4.268
 8742TIP3    H226170   6.416   6.051   4.342
 8743TIP3   OH226171   5.411   5.957   4.442
 8743TIP3    H126172   5.414   5.865   4.409
 8743TIP3    H226173   5.447   5.944   4.533
 8744TIP3   OH226174   5.920   5.628   4.291
 8744TIP3    H126175   5.986   5.557   4.284
 8744TIP3    H226176   5.879   5.623   4.202
 8745TIP3   OH226177   5.987   5.843   4.448
 8745TIP3    H126178   5.964   5.771   4.385
 8745TIP3    H226179   5.908   5.901   4.442
 8746TIP3   OH226180   5.209   7.073   2.549
 8746TIP3    H126181   5.305   7.066   2.529
 8746TIP3    H226182   5.180   7.124   2.471
 8747TIP3   OH226183   4.710   6.468   2.676
 8747TIP3    H126184   4.788   6.488   2.731
 8747TIP3    H226185   4.692   6.376   2.699
 8748TIP3   OH226186   4.596   7.060   3.177
 8748TIP3    H126187   4.534   6.993   3.140
 8748TIP3    H226188   4.644   7.006   3.243
 8749TIP3   OH226189   4.732   6.921   3.369
 8749TIP3    H126190   4.723   6.844   3.428
 8749TIP3    H226191   4.787   6.979   3.425
 8750TIP3   OH226192   6.467   7.314   3.166
 8750TIP3    H126193   6.491   7.345   3.256
 8750TIP3    H226194   6.529   7.363   3.110
 8751TIP3   OH226195   6.495   7.335   3.448
 8751TIP3    H126196   6.449   7.248   3.444
 8751TIP3    H226197   6.569   7.311   3.506
 8752TIP3   OH226198   6.541   7.016   4.020
 8752TIP3    H126199   6.469   7.022   4.086
 8752TIP3    H226200   6.583   7.103   4.028
 8753TIP3   OH226201   6.359   6.515   2.643
 8753TIP3    H126202   6.413   6.588   2.608
 8753TIP3    H226203   6.412   6.486   2.720
 8754TIP3   OH226204   6.485   6.393   2.852
 8754TIP3    H126205   6.431   6.353   2.922
 8754TIP3    H226206   6.561   6.430   2.903
 8755TIP3   OH226207   6.539   6.786   3.273
 8755TIP3    H126208   6.596   6.721   3.228
 8755TIP3    H226209   6.535   6.859   3.209
 8756TIP3   OH226210   6.368   7.086   3.468
 8756TIP3    H126211   6.297   7.128   3.520
 8756TIP3    H226212   6.318   7.039   3.398
 8757TIP3   OH226213   6.423   6.299   2.489
 8757TIP3    H126214   6.352   6.301   2.420
 8757TIP3    H226215   6.397   6.377   2.541
 8758TIP3   OH226216   6.279   5.978   2.452
 8758TIP3    H126217   6.249   6.008   2.365
 8758TIP3    H226218   6.261   5.882   2.445
 8759TIP3   OH226219   6.257   6.254   2.967
 8759TIP3    H126220   6.292   6.161   2.966
 8759TIP3    H226221   6.256   6.269   3.065
 8760TIP3   OH226222   4.924   6.325   3.738
 8760TIP3    H126223   4.921   6.291   3.646
 8760TIP3    H226224   5.021   6.325   3.754
 8761TIP3   OH226225   6.589   6.676   3.847
 8761TIP3    H126226   6.660   6.608   3.836
 8761TIP3    H226227   6.616   6.744   3.783
 8762TIP3   OH226228   6.772   6.478   3.855
 8762TIP3    H126229   6.697   6.429   3.896
 8762TIP3    H226230   6.845   6.415   3.873
 8763TIP3   OH226231   6.234   5.712   2.435
 8763TIP3    H126232   6.312   5.676   2.483
 8763TIP3    H226233   6.166   5.644   2.448
 8764TIP3   OH226234   6.292   5.965   2.874
 8764TIP3    H126235   6.329   5.875   2.894
 8764TIP3    H226236   6.355   5.991   2.804
 8765TIP3   OH226237   6.453   6.141   3.377
 8765TIP3    H126238   6.541   6.165   3.338
 8765TIP3    H226239   6.467   6.176   3.467
 8766TIP3   OH226240   6.525   6.284   3.608
 8766TIP3    H126241   6.449   6.317   3.660
 8766TIP3    H226242   6.558   6.366   3.566
 8767TIP3   OH226243   5.145   6.011   4.412
 8767TIP3    H126244   5.243   6.002   4.417
 8767TIP3    H226245   5.117   5.926   4.452
 8768TIP3   OH226246   6.976   5.878   4.165
 8768TIP3    H126247   7.036   5.813   4.124
 8768TIP3    H226248   6.948   5.931   4.088
 8769TIP3   OH226249   6.397   5.718   2.924
 8769TIP3    H126250   6.448   5.700   3.006
 8769TIP3    H226251   6.340   5.639   2.921
 8770TIP3   OH226252   5.104   5.702   3.737
 8770TIP3    H126253   5.165   5.627   3.749
 8770TIP3    H226254   5.166   5.776   3.733
 8771TIP3   OH226255   4.904   5.974   3.813
 8771TIP3    H126256   4.955   5.974   3.730
 8771TIP3    H226257   4.930   6.059   3.851
 8772TIP3   OH226258   6.847   6.015   3.968
 8772TIP3    H126259   6.761   6.056   3.992
 8772TIP3    H226260   6.815   5.941   3.913
 8773TIP3   OH226261   6.482   5.651   2.553
 8773TIP3    H126262   6.520   5.577   2.500
 8773TIP3    H226263   6.552   5.718   2.548
 8774TIP3   OH226264   4.887   5.470   3.309
 8774TIP3    H126265   4.798   5.476   3.348
 8774TIP3    H226266   4.883   5.537   3.237
 8775TIP3   OH226267   6.053   7.181   2.823
 8775TIP3    H126268   6.105   7.175   2.740
 8775TIP3    H226269   6.099   7.252   2.870
 8776TIP3   OH226270   5.110   5.559   4.129
 8776TIP3    H126271   5.060   5.554   4.212
 8776TIP3    H226272   5.043   5.598   4.070
 8777TIP3   OH226273   5.150   6.989   4.207
 8777TIP3    H126274   5.057   6.963   4.191
 8777TIP3    H226275   5.160   6.968   4.301
 8778TIP3   OH226276   5.330   7.021   3.754
 8778TIP3    H126277   5.280   7.096   3.716
 8778TIP3    H226278   5.415   7.036   3.708
 8779TIP3   OH226279   5.770   7.263   3.890
 8779TIP3    H126280   5.811   7.262   3.979
 8779TIP3    H226281   5.836   7.316   3.840
 8780TIP3   OH226282   5.949   7.417   3.752
 8780TIP3    H126283   6.020   7.366   3.711
 8780TIP3    H226284   6.001   7.475   3.812
 8781TIP3   OH226285   6.747   5.776   3.850
 8781TIP3    H126286   6.655   5.765   3.819
 8781TIP3    H226287   6.780   5.684   3.840
 8782TIP3   OH226288   5.005   7.279   3.778
 8782TIP3    H126289   4.915   7.310   3.756
 8782TIP3    H226290   5.017   7.320   3.865
 8783TIP3   OH226291   5.241   7.257   3.637
 8783TIP3    H126292   5.154   7.268   3.682
 8783TIP3    H226293   5.220   7.288   3.546
 8784TIP3   OH226294   5.667   7.283   3.433
 8784TIP3    H126295   5.594   7.301   3.370
 8784TIP3    H226296   5.678   7.371   3.476
 8785TIP3   OH226297   5.935   7.222   3.484
 8785TIP3    H126298   5.840   7.239   3.466
 8785TIP3    H226299   5.976   7.299   3.443
 8786TIP3   OH226300   6.143   7.414   3.400
 8786TIP3    H126301   6.128   7.499   3.352
 8786TIP3    H226302   6.167   7.354   3.326
 8787TIP3   OH226303   4.916   7.071   3.524
 8787TIP3    H126304   4.943   7.042   3.614
 8787TIP3    H226305   4.987   7.028   3.472
 8788TIP3   OH226306   5.110   6.944   3.382
 8788TIP3    H126307   5.124   6.860   3.431
 8788TIP3    H226308   5.201   6.979   3.378
 8789TIP3   OH226309   5.379   7.036   3.385
 8789TIP3    H126310   5.407   6.942   3.376
 8789TIP3    H226311   5.424   7.058   3.468
 8790TIP3   OH226312   5.949   5.690   3.469
 8790TIP3    H126313   5.907   5.621   3.523
 8790TIP3    H226314   6.022   5.642   3.426
 8791TIP3   OH226315   6.474   5.577   3.375
 8791TIP3    H126316   6.508   5.627   3.297
 8791TIP3    H226317   6.378   5.590   3.367
 8792TIP3   OH226318   6.568   5.675   3.137
 8792TIP3    H126319   6.641   5.621   3.099
 8792TIP3    H226320   6.603   5.765   3.122
 8793TIP3   OH226321   5.199   5.399   3.485
 8793TIP3    H126322   5.108   5.364   3.490
 8793TIP3    H226323   5.250   5.315   3.483
 8794TIP3   OH226324   4.954   5.276   3.120
 8794TIP3    H126325   5.012   5.329   3.061
 8794TIP3    H226326   4.946   5.336   3.197
 8795TIP3   OH226327   5.639   5.452   3.370
 8795TIP3    H126328   5.703   5.491   3.309
 8795TIP3    H226329   5.676   5.474   3.457
 8796TIP3   OH226330   6.191   5.579   3.348
 8796TIP3    H126331   6.190   5.535   3.262
 8796TIP3    H226332   6.178   5.501   3.408
 8797TIP3   OH226333   6.218   5.505   2.916
 8797TIP3    H126334   6.130   5.543   2.934
 8797TIP3    H226335   6.209   5.418   2.961
 8798TIP3   OH226336   4.709   6.827   2.898
 8798TIP3    H126337   4.634   6.764   2.888
 8798TIP3    H226338   4.666   6.912   2.882
 8799TIP3   OH226339   5.105   5.433   2.891
 8799TIP3    H126340   5.154   5.367   2.838
 8799TIP3    H226341   5.179   5.485   2.929
 8800TIP3   OH226342   5.615   5.609   2.993
 8800TIP3    H126343   5.667   5.556   3.055
 8800TIP3    H226344   5.639   5.699   3.023
 8801TIP3   OH226345   5.475   7.040   2.493
 8801TIP3    H126346   5.564   7.059   2.458
 8801TIP3    H226347   5.455   6.960   2.439
 8802TIP3   OH226348   6.198   7.155   2.589
 8802TIP3    H126349   6.189   7.057   2.577
 8802TIP3    H226350   6.150   7.187   2.510
 8803TIP3   OH226351   5.407   5.683   4.377
 8803TIP3    H126352   5.371   5.613   4.434
 8803TIP3    H226353   5.501   5.682   4.406
 8804TIP3   OH226354   5.657   5.679   4.496
 8804TIP3    H126355   5.742   5.652   4.458
 8804TIP3    H226356   5.643   5.609   4.563
 8805TIP3   OH226357   4.790   6.887   2.557
 8805TIP3    H126358   4.770   6.874   2.650
 8805TIP3    H226359   4.872   6.835   2.545
 8806TIP3   OH226360   6.483   5.743   4.283
 8806TIP3    H126361   6.501   5.712   4.375
 8806TIP3    H226362   6.572   5.737   4.243
 8807TIP3   OH226363   6.418   7.292   3.778
 8807TIP3    H126364   6.340   7.259   3.728
 8807TIP3    H226365   6.396   7.387   3.781
 8808TIP3   OH226366   7.683   6.662   2.549
 8808TIP3    H126367   7.650   6.752   2.528
 8808TIP3    H226368   7.610   6.609   2.512
 8809TIP3   OH226369   7.675   6.664   2.931
 8809TIP3    H126370   7.716   6.639   3.016
 8809TIP3    H226371   7.638   6.579   2.901
 8810TIP3   OH226372   6.982   6.558   3.290
 8810TIP3    H126373   7.012   6.490   3.353
 8810TIP3    H226374   7.062   6.614   3.285
 8811TIP3   OH226375   7.911   6.957   2.613
 8811TIP3    H126376   7.910   6.884   2.676
 8811TIP3    H226377   7.923   7.033   2.671
 8812TIP3   OH226378   6.957   6.970   3.009
 8812TIP3    H126379   6.948   6.872   3.011
 8812TIP3    H226380   7.054   6.979   3.010
 8813TIP3   OH226381   6.664   6.172   2.794
 8813TIP3    H126382   6.617   6.256   2.809
 8813TIP3    H226383   6.593   6.118   2.754
 8814TIP3   OH226384   6.722   6.458   2.969
 8814TIP3    H126385   6.772   6.383   3.007
 8814TIP3    H226386   6.788   6.498   2.911
 8815TIP3   OH226387   7.595   7.399   2.623
 8815TIP3    H126388   7.667   7.334   2.620
 8815TIP3    H226389   7.561   7.385   2.712
 8816TIP3   OH226390   7.484   6.893   2.971
 8816TIP3    H126391   7.525   6.814   2.931
 8816TIP3    H226392   7.566   6.941   2.994
 8817TIP3   OH226393   8.482   6.226   2.963
 8817TIP3    H126394   8.521   6.286   3.028
 8817TIP3    H226395   8.532   6.245   2.883
 8818TIP3   OH226396   7.896   6.396   3.000
 8818TIP3    H126397   7.938   6.311   3.024
 8818TIP3    H226398   7.865   6.376   2.910
 8819TIP3   OH226399   7.236   6.053   2.968
 8819TIP3    H126400   7.218   6.125   2.905
 8819TIP3    H226401   7.189   5.979   2.925
 8820TIP3   OH226402   7.933   6.144   2.594
 8820TIP3    H126403   8.006   6.126   2.657
 8820TIP3    H226404   7.983   6.178   2.518
 8821TIP3   OH226405   6.869   6.255   3.076
 8821TIP3    H126406   6.952   6.236   3.124
 8821TIP3    H226407   6.883   6.199   2.996
 8822TIP3   OH226408   7.309   6.452   2.871
 8822TIP3    H126409   7.403   6.428   2.884
 8822TIP3    H226410   7.271   6.368   2.839
 8823TIP3   OH226411   7.231   6.036   3.402
 8823TIP3    H126412   7.171   6.074   3.335
 8823TIP3    H226413   7.179   6.053   3.484
 8824TIP3   OH226414   7.569   6.879   2.413
 8824TIP3    H126415   7.525   6.865   2.328
 8824TIP3    H226416   7.534   6.967   2.439
 8825TIP3   OH226417   7.338   6.812   3.195
 8825TIP3    H126418   7.277   6.880   3.232
 8825TIP3    H226419   7.382   6.862   3.123
 8826TIP3   OH226420   8.144   6.145   2.770
 8826TIP3    H126421   8.119   6.104   2.854
 8826TIP3    H226422   8.187   6.227   2.800
 8827TIP3   OH226423   7.103   6.152   3.186
 8827TIP3    H126424   7.165   6.225   3.210
 8827TIP3    H226425   7.153   6.111   3.112
 8828TIP3   OH226426   7.166   7.008   3.294
 8828TIP3    H126427   7.142   7.096   3.260
 8828TIP3    H226428   7.088   6.991   3.350
 8829TIP3   OH226429   6.554   6.696   2.531
 8829TIP3    H126430   6.517   6.723   2.445
 8829TIP3    H226431   6.586   6.782   2.566
 8830TIP3   OH226432   8.285   6.109   3.129
 8830TIP3    H126433   8.198   6.146   3.107
 8830TIP3    H226434   8.344   6.148   3.062
 8831TIP3   OH226435   7.570   5.765   3.092
 8831TIP3    H126436   7.628   5.725   3.159
 8831TIP3    H226437   7.496   5.797   3.148
 8832TIP3   OH226438   7.818   7.032   2.365
 8832TIP3    H126439   7.763   6.956   2.340
 8832TIP3    H226440   7.845   7.004   2.455
 8833TIP3   OH226441   7.517   6.519   2.375
 8833TIP3    H126442   7.438   6.571   2.350
 8833TIP3    H226443   7.564   6.510   2.290
 8834TIP3   OH226444   7.476   6.304   2.085
 8834TIP3    H126445   7.544   6.355   2.132
 8834TIP3    H226446   7.533   6.240   2.038
 8835TIP3   OH226447   8.455   6.743   2.996
 8835TIP3    H126448   8.361   6.771   3.000
 8835TIP3    H226449   8.480   6.783   2.912
 8836TIP3   OH226450   7.857   6.582   2.355
 8836TIP3    H126451   7.807   6.608   2.436
 8836TIP3    H226452   7.944   6.559   2.394
 8837TIP3   OH226453   8.098   6.636   3.265
 8837TIP3    H126454   8.095   6.717   3.319
 8837TIP3    H226455   8.012   6.641   3.219
 8838TIP3   OH226456   7.099   6.597   2.762
 8838TIP3    H126457   7.058   6.538   2.695
 8838TIP3    H226458   7.175   6.544   2.793
 8839TIP3   OH226459   7.230   7.012   2.907
 8839TIP3    H126460   7.212   6.966   2.824
 8839TIP3    H226461   7.320   6.979   2.928
 8840TIP3   OH226462   7.230   6.571   3.114
 8840TIP3    H126463   7.267   6.545   3.027
 8840TIP3    H226464   7.276   6.655   3.134
 8841TIP3   OH226465   7.724   7.193   2.863
 8841TIP3    H126466   7.751   7.273   2.914
 8841TIP3    H226467   7.731   7.123   2.930
 8842TIP3   OH226468   7.371   7.124   3.441
 8842TIP3    H126469   7.311   7.186   3.488
 8842TIP3    H226470   7.306   7.072   3.391
 8843TIP3   OH226471   7.697   6.459   2.170
 8843TIP3    H126472   7.760   6.509   2.225
 8843TIP3    H226473   7.728   6.483   2.079
 8844TIP3   OH226474   7.126   6.682   3.542
 8844TIP3    H126475   7.131   6.770   3.585
 8844TIP3    H226476   7.032   6.661   3.555
 8845TIP3   OH226477   7.465   7.138   2.451
 8845TIP3    H126478   7.498   7.212   2.504
 8845TIP3    H226479   7.390   7.177   2.405
 8846TIP3   OH226480   7.165   7.291   3.526
 8846TIP3    H126481   7.131   7.292   3.435
 8846TIP3    H226482   7.084   7.272   3.579
 8847TIP3   OH226483   8.213   5.703   2.213
 8847TIP3    H126484   8.135   5.710   2.271
 8847TIP3    H226485   8.237   5.794   2.199
 8848TIP3   OH226486   6.964   6.442   2.566
 8848TIP3    H126487   6.894   6.483   2.511
 8848TIP3    H226488   6.931   6.352   2.577
 8849TIP3   OH226489   6.745   6.825   3.474
 8849TIP3    H126490   6.678   6.802   3.406
 8849TIP3    H226491   6.783   6.738   3.498
 8850TIP3   OH226492   6.599   7.018   3.103
 8850TIP3    H126493   6.695   7.013   3.098
 8850TIP3    H226494   6.586   7.096   3.159
 8851TIP3   OH226495   7.558   7.261   3.291
 8851TIP3    H126496   7.560   7.353   3.325
 8851TIP3    H226497   7.492   7.219   3.351
 8852TIP3   OH226498   6.771   7.231   2.632
 8852TIP3    H126499   6.817   7.223   2.719
 8852TIP3    H226500   6.715   7.152   2.633
 8853TIP3   OH226501   8.361   6.613   3.442
 8853TIP3    H126502   8.290   6.622   3.378
 8853TIP3    H226503   8.392   6.522   3.422
 8854TIP3   OH226504   6.949   7.009   3.460
 8854TIP3    H126505   7.000   6.992   3.542
 8854TIP3    H226506   6.876   6.944   3.468
 8855TIP3   OH226507   7.346   5.831   3.250
 8855TIP3    H126508   7.256   5.804   3.221
 8855TIP3    H226509   7.322   5.914   3.297
 8856TIP3   OH226510   7.889   5.944   3.441
 8856TIP3    H126511   7.958   5.913   3.502
 8856TIP3    H226512   7.806   5.920   3.486
 8857TIP3   OH226513   8.112   6.368   3.354
 8857TIP3    H126514   8.071   6.368   3.443
 8857TIP3    H226515   8.101   6.461   3.326
 8858TIP3   OH226516   7.783   6.514   1.919
 8858TIP3    H126517   7.743   6.483   1.836
 8858TIP3    H226518   7.866   6.552   1.887
 8859TIP3   OH226519   7.491   5.880   2.217
 8859TIP3    H126520   7.459   5.877   2.309
 8859TIP3    H226521   7.454   5.796   2.184
 8860TIP3   OH226522   7.279   6.348   3.264
 8860TIP3    H126523   7.231   6.369   3.347
 8860TIP3    H226524   7.263   6.429   3.212
 8861TIP3   OH226525   7.164   6.234   2.779
 8861TIP3    H126526   7.072   6.205   2.798
 8861TIP3    H226527   7.177   6.192   2.691
 8862TIP3   OH226528   7.655   6.318   2.508
 8862TIP3    H126529   7.603   6.388   2.464
 8862TIP3    H226530   7.711   6.285   2.435
 8863TIP3   OH226531   7.829   6.596   3.592
 8863TIP3    H126532   7.808   6.522   3.654
 8863TIP3    H226533   7.924   6.609   3.612
 8864TIP3   OH226534   7.812   6.345   2.743
 8864TIP3    H126535   7.749   6.370   2.672
 8864TIP3    H226536   7.848   6.265   2.701
 8865TIP3   OH226537   7.098   6.375   3.474
 8865TIP3    H126538   7.133   6.436   3.541
 8865TIP3    H226539   7.087   6.292   3.525
 8866TIP3   OH226540   7.149   5.853   2.184
 8866TIP3    H126541   7.141   5.850   2.281
 8866TIP3    H226542   7.069   5.904   2.160
 8867TIP3   OH226543   6.691   5.901   3.054
 8867TIP3    H126544   6.769   5.929   3.106
 8867TIP3    H226545   6.729   5.864   2.973
 8868TIP3   OH226546   6.661   5.876   2.575
 8868TIP3    H126547   6.707   5.912   2.496
 8868TIP3    H226548   6.601   5.950   2.594
 8869TIP3   OH226549   7.820   6.593   3.166
 8869TIP3    H126550   7.855   6.523   3.107
 8869TIP3    H226551   7.793   6.539   3.244
 8870TIP3   OH226552   7.494   6.057   2.840
 8870TIP3    H126553   7.415   6.052   2.896
 8870TIP3    H226554   7.566   6.050   2.905
 8871TIP3   OH226555   6.927   6.111   2.847
 8871TIP3    H126556   6.832   6.116   2.819
 8871TIP3    H226557   6.952   6.020   2.826
 8872TIP3   OH226558   7.191   6.106   2.538
 8872TIP3    H126559   7.286   6.120   2.518
 8872TIP3    H226560   7.147   6.129   2.453
 8873TIP3   OH226561   7.980   6.134   3.038
 8873TIP3    H126562   7.952   6.144   3.132
 8873TIP3    H226563   7.913   6.071   3.006
 8874TIP3   OH226564   7.038   6.144   2.313
 8874TIP3    H126565   6.969   6.096   2.264
 8874TIP3    H226566   7.091   6.180   2.239
 8875TIP3   OH226567   7.111   6.931   3.681
 8875TIP3    H126568   7.191   6.959   3.729
 8875TIP3    H226569   7.047   6.927   3.755
 8876TIP3   OH226570   7.574   6.385   2.938
 8876TIP3    H126571   7.646   6.342   2.890
 8876TIP3    H226572   7.579   6.342   3.026
 8877TIP3   OH226573   7.092   5.871   2.819
 8877TIP3    H126574   7.057   5.793   2.866
 8877TIP3    H226575   7.140   5.830   2.745
 8878TIP3   OH226576   7.551   6.285   3.223
 8878TIP3    H126577   7.461   6.320   3.242
 8878TIP3    H226578   7.609   6.342   3.276
 8879TIP3   OH226579   7.285   6.675   2.316
 8879TIP3    H126580   7.216   6.606   2.307
 8879TIP3    H226581   7.268   6.705   2.409
 8880TIP3   OH226582   8.196   6.813   2.929
 8880TIP3    H126583   8.186   6.909   2.917
 8880TIP3    H226584   8.102   6.785   2.927
 8881TIP3   OH226585   7.745   5.978   2.193
 8881TIP3    H126586   7.648   5.962   2.197
 8881TIP3    H226587   7.753   6.073   2.211
 8882TIP3   OH226588   7.685   6.978   3.322
 8882TIP3    H126589   7.712   6.956   3.412
 8882TIP3    H226590   7.649   7.068   3.332
 8883TIP3   OH226591   7.812   6.231   2.291
 8883TIP3    H126592   7.908   6.234   2.305
 8883TIP3    H226593   7.796   6.305   2.230
 8884TIP3   OH226594   6.978   6.690   2.996
 8884TIP3    H126595   7.020   6.663   2.912
 8884TIP3    H226596   7.026   6.635   3.060
 8885TIP3   OH226597   7.434   6.825   2.139
 8885TIP3    H126598   7.390   6.912   2.148
 8885TIP3    H226599   7.379   6.769   2.199
 8886TIP3   OH226600   6.862   6.614   3.612
 8886TIP3    H126601   6.882   6.599   3.706
 8886TIP3    H226602   6.794   6.546   3.596
 8887TIP3   OH226603   7.589   6.729   3.630
 8887TIP3    H126604   7.530   6.668   3.584
 8887TIP3    H226605   7.677   6.693   3.604
 8888TIP3   OH226606   7.833   7.228   3.242
 8888TIP3    H126607   7.736   7.237   3.230
 8888TIP3    H226608   7.845   7.280   3.325
 8889TIP3   OH226609   7.930   6.762   2.860
 8889TIP3    H126610   7.836   6.737   2.875
 8889TIP3    H226611   7.964   6.681   2.816
 8890TIP3   OH226612   7.080   6.997   2.619
 8890TIP3    H126613   7.074   7.079   2.568
 8890TIP3    H226614   6.987   6.980   2.641
 8891TIP3   OH226615   6.646   6.301   2.326
 8891TIP3    H126616   6.691   6.384   2.349
 8891TIP3    H226617   6.569   6.304   2.387
 8892TIP3   OH226618   7.214   6.760   2.563
 8892TIP3    H126619   7.178   6.849   2.584
 8892TIP3    H226620   7.182   6.708   2.639
 8893TIP3   OH226621   7.349   7.329   3.096
 8893TIP3    H126622   7.388   7.395   3.035
 8893TIP3    H226623   7.428   7.299   3.144
 8894TIP3   OH226624   6.999   7.239   2.470
 8894TIP3    H126625   6.915   7.244   2.519
 8894TIP3    H226626   7.030   7.331   2.476
 8895TIP3   OH226627   7.738   6.973   3.050
 8895TIP3    H126628   7.725   6.969   3.147
 8895TIP3    H226629   7.812   6.911   3.038
 8896TIP3   OH226630   7.628   6.864   1.918
 8896TIP3    H126631   7.716   6.849   1.954
 8896TIP3    H226632   7.570   6.838   1.991
 8897TIP3   OH226633   7.071   6.118   3.617
 8897TIP3    H126634   6.975   6.123   3.632
 8897TIP3    H226635   7.101   6.064   3.692
 8898TIP3   OH226636   7.891   6.780   2.171
 8898TIP3    H126637   7.853   6.723   2.240
 8898TIP3    H226638   7.972   6.731   2.152
 8899TIP3   OH226639   6.790   7.201   3.250
 8899TIP3    H126640   6.843   7.128   3.286
 8899TIP3    H226641   6.815   7.273   3.308
 8900TIP3   OH226642   7.067   6.854   1.935
 8900TIP3    H126643   7.097   6.767   1.902
 8900TIP3    H226644   7.052   6.835   2.030
 8901TIP3   OH226645   7.023   6.855   2.211
 8901TIP3    H126646   7.094   6.818   2.265
 8901TIP3    H226647   7.038   6.951   2.220
 8902TIP3   OH226648   6.755   6.544   2.411
 8902TIP3    H126649   6.689   6.590   2.467
 8902TIP3    H226650   6.771   6.613   2.344
 8903TIP3   OH226651   7.909   6.181   3.298
 8903TIP3    H126652   7.990   6.223   3.332
 8903TIP3    H226653   7.902   6.100   3.354
 8904TIP3   OH226654   7.788   5.932   2.471
 8904TIP3    H126655   7.777   5.953   2.376
 8904TIP3    H226656   7.831   6.013   2.505
 8905TIP3   OH226657   7.295   7.059   2.141
 8905TIP3    H126658   7.210   7.095   2.173
 8905TIP3    H226659   7.285   7.072   2.045
 8906TIP3   OH226660   7.473   6.116   2.570
 8906TIP3    H126661   7.540   6.186   2.552
 8906TIP3    H226662   7.482   6.106   2.667
 8907TIP3   OH226663   7.749   6.430   3.374
 8907TIP3    H126664   7.774   6.481   3.454
 8907TIP3    H226665   7.805   6.350   3.383
 8908TIP3   OH226666   7.621   5.834   2.669
 8908TIP3    H126667   7.619   5.909   2.730
 8908TIP3    H226668   7.683   5.869   2.600
 8909TIP3   OH226669   7.041   7.132   2.220
 8909TIP3    H126670   6.967   7.169   2.171
 8909TIP3    H226671   7.027   7.170   2.310
 8910TIP3   OH226672   7.135   5.840   2.460
 8910TIP3    H126673   7.133   5.930   2.498
 8910TIP3    H226674   7.231   5.821   2.468
 8911TIP3   OH226675   8.386   6.355   3.340
 8911TIP3    H126676   8.289   6.346   3.345
 8911TIP3    H226677   8.410   6.278   3.288
 8912TIP3   OH226678   8.032   6.529   2.743
 8912TIP3    H126679   7.958   6.467   2.755
 8912TIP3    H226680   8.105   6.483   2.791
 8913TIP3   OH226681   6.755   6.752   2.214
 8913TIP3    H126682   6.828   6.816   2.223
 8913TIP3    H226683   6.795   6.692   2.148
 8914TIP3   OH226684   6.694   6.030   2.351
 8914TIP3    H126685   6.694   6.127   2.345
 8914TIP3    H226686   6.620   6.005   2.295
 8915TIP3   OH226687   7.082   5.750   3.220
 8915TIP3    H126688   7.050   5.717   3.133
 8915TIP3    H226689   7.073   5.671   3.277
 8916TIP3   OH226690   6.618   6.968   2.599
 8916TIP3    H126691   6.557   7.000   2.666
 8916TIP3    H226692   6.584   7.012   2.518
 8917TIP3   OH226693   6.782   7.516   3.677
 8917TIP3    H126694   6.869   7.516   3.722
 8917TIP3    H226695   6.764   7.421   3.671
 8918TIP3   OH226696   7.255   7.473   3.718
 8918TIP3    H126697   7.350   7.458   3.728
 8918TIP3    H226698   7.234   7.410   3.645
 8919TIP3   OH226699   7.246   7.053   1.866
 8919TIP3    H126700   7.188   6.976   1.885
 8919TIP3    H226701   7.320   7.009   1.819
 8920TIP3   OH226702   7.896   7.374   3.462
 8920TIP3    H126703   7.893   7.306   3.533
 8920TIP3    H226704   7.978   7.421   3.485
 8921TIP3   OH226705   6.910   6.920   3.873
 8921TIP3    H126706   6.927   6.824   3.881
 8921TIP3    H226707   6.823   6.921   3.829
 8922TIP3   OH226708   6.888   6.565   2.070
 8922TIP3    H126709   6.945   6.531   2.141
 8922TIP3    H226710   6.954   6.570   1.997
 8923TIP3   OH226711   7.516   7.002   3.649
 8923TIP3    H126712   7.476   7.022   3.562
 8923TIP3    H226713   7.548   6.910   3.638
 8924TIP3   OH226714   7.355   6.751   1.877
 8924TIP3    H126715   7.379   6.768   1.970
 8924TIP3    H226716   7.382   6.657   1.869
 8925TIP3   OH226717   8.006   7.010   3.247
 8925TIP3    H126718   8.066   7.078   3.216
 8925TIP3    H226719   7.922   7.059   3.249
 8926TIP3   OH226720   7.031   6.655   3.855
 8926TIP3    H126721   7.105   6.599   3.832
 8926TIP3    H226722   7.057   6.686   3.945
 8927TIP3   OH226723   7.094   6.474   2.286
 8927TIP3    H126724   7.069   6.433   2.370
 8927TIP3    H226725   7.131   6.399   2.236
 8928TIP3   OH226726   7.361   6.534   3.515
 8928TIP3    H126727   7.286   6.597   3.518
 8928TIP3    H226728   7.413   6.569   3.439
 8929TIP3   OH226729   7.198   6.269   2.129
 8929TIP3    H126730   7.173   6.273   2.034
 8929TIP3    H226731   7.296   6.271   2.121
 8930TIP3   OH226732   7.886   6.935   3.646
 8930TIP3    H126733   7.964   6.905   3.597
 8930TIP3    H226734   7.881   6.871   3.719
 8931TIP3   OH226735   7.486   6.325   3.644
 8931TIP3    H126736   7.489   6.246   3.586
 8931TIP3    H226737   7.443   6.391   3.585
 8932TIP3   OH226738   7.489   6.115   3.450
 8932TIP3    H126739   7.519   6.152   3.365
 8932TIP3    H226740   7.396   6.091   3.430
 8933TIP3   OH226741   7.514   6.645   3.324
 8933TIP3    H126742   7.600   6.655   3.282
 8933TIP3    H226743   7.460   6.712   3.277
 8934TIP3   OH226744   8.102   6.613   3.704
 8934TIP3    H126745   8.144   6.527   3.713
 8934TIP3    H226746   8.174   6.666   3.667
 8935TIP3   OH226747   8.113   6.869   3.455
 8935TIP3    H126748   8.062   6.920   3.388
 8935TIP3    H226749   8.202   6.875   3.413
 8936TIP3   OH226750   7.365   6.434   3.875
 8936TIP3    H126751   7.297   6.365   3.890
 8936TIP3    H226752   7.400   6.407   3.788
 8937TIP3   OH226753   7.622   5.878   3.526
 8937TIP3    H126754   7.574   5.958   3.499
 8937TIP3    H226755   7.558   5.807   3.505
 8938TIP3   OH226756   7.747   6.379   3.735
 8938TIP3    H126757   7.737   6.364   3.831
 8938TIP3    H226758   7.657   6.354   3.705
 8939TIP3   OH226759   7.989   6.333   3.592
 8939TIP3    H126760   7.914   6.329   3.654
 8939TIP3    H226761   8.063   6.300   3.647
 8940TIP3   OH226762   8.218   6.272   3.739
 8940TIP3    H126763   8.229   6.175   3.754
 8940TIP3    H226764   8.215   6.307   3.831
 8941TIP3   OH226765   7.205   6.213   3.929
 8941TIP3    H126766   7.212   6.122   3.896
 8941TIP3    H226767   7.243   6.202   4.019
 8942TIP3   OH226768   7.713   5.884   3.783
 8942TIP3    H126769   7.783   5.815   3.776
 8942TIP3    H226770   7.677   5.881   3.692
 8943TIP3   OH226771   7.782   6.099   3.936
 8943TIP3    H126772   7.761   6.027   3.873
 8943TIP3    H226773   7.703   6.157   3.928
 8944TIP3   OH226774   6.485   6.710   2.249
 8944TIP3    H126775   6.580   6.731   2.235
 8944TIP3    H226776   6.478   6.621   2.208
 8945TIP3   OH226777   6.403   7.322   2.666
 8945TIP3    H126778   6.335   7.262   2.628
 8945TIP3    H226779   6.445   7.262   2.731
 8946TIP3   OH226780   6.536   7.168   2.852
 8946TIP3    H126781   6.523   7.098   2.919
 8946TIP3    H226782   6.587   7.232   2.905
 8947TIP3   OH226783   8.052   6.245   1.941
 8947TIP3    H126784   8.043   6.263   1.847
 8947TIP3    H226785   8.044   6.148   1.943
 8948TIP3   OH226786   8.090   6.503   2.474
 8948TIP3    H126787   8.100   6.407   2.467
 8948TIP3    H226788   8.079   6.517   2.570
 8949TIP3   OH226789   6.719   6.583   3.221
 8949TIP3    H126790   6.719   6.549   3.130
 8949TIP3    H226791   6.816   6.583   3.240
 8950TIP3   OH226792   8.339   6.911   3.313
 8950TIP3    H126793   8.424   6.871   3.338
 8950TIP3    H226794   8.368   6.973   3.244
 8951TIP3   OH226795   8.024   5.971   1.942
 8951TIP3    H126796   8.089   5.907   1.969
 8951TIP3    H226797   7.945   5.917   1.927
 8952TIP3   OH226798   8.087   6.225   2.376
 8952TIP3    H126799   8.123   6.134   2.391
 8952TIP3    H226800   8.138   6.250   2.297
 8953TIP3   OH226801   8.247   6.396   2.851
 8953TIP3    H126802   8.339   6.411   2.825
 8953TIP3    H226803   8.251   6.433   2.943
 8954TIP3   OH226804   8.291   6.528   3.081
 8954TIP3    H126805   8.228   6.567   3.145
 8954TIP3    H226806   8.361   6.597   3.077
 8955TIP3   OH226807   6.939   6.267   3.898
 8955TIP3    H126808   7.037   6.261   3.903
 8955TIP3    H226809   6.915   6.181   3.937
 8956TIP3   OH226810   8.179   5.975   2.421
 8956TIP3    H126811   8.243   5.950   2.491
 8956TIP3    H226812   8.124   5.894   2.417
 8957TIP3   OH226813   6.900   5.960   3.227
 8957TIP3    H126814   6.962   5.885   3.236
 8957TIP3    H226815   6.963   6.034   3.219
 8958TIP3   OH226816   6.699   6.233   3.298
 8958TIP3    H126817   6.752   6.229   3.216
 8958TIP3    H226818   6.733   6.313   3.339
 8959TIP3   OH226819   6.687   5.743   2.809
 8959TIP3    H126820   6.593   5.730   2.830
 8959TIP3    H226821   6.682   5.796   2.726
 8960TIP3   OH226822   6.902   5.811   3.613
 8960TIP3    H126823   6.855   5.809   3.697
 8960TIP3    H226824   6.837   5.855   3.555
 8961TIP3   OH226825   6.943   7.249   3.691
 8961TIP3    H126826   6.851   7.220   3.677
 8961TIP3    H226827   6.959   7.224   3.783
 8962TIP3   OH226828   7.123   7.278   3.243
 8962TIP3    H126829   7.076   7.353   3.201
 8962TIP3    H226830   7.210   7.289   3.198
 8963TIP3   OH226831   7.582   7.534   3.373
 8963TIP3    H126832   7.614   7.525   3.466
 8963TIP3    H226833   7.655   7.586   3.335
 8964TIP3   OH226834   8.531   6.024   3.350
 8964TIP3    H126835   8.443   6.007   3.311
 8964TIP3    H226836   8.584   5.961   3.300
 8965TIP3   OH226837   6.798   7.535   3.265
 8965TIP3    H126838   6.707   7.567   3.244
 8965TIP3    H226839   6.812   7.577   3.351
 8966TIP3   OH226840   7.028   7.507   3.121
 8966TIP3    H126841   6.941   7.518   3.166
 8966TIP3    H226842   7.007   7.539   3.031
 8967TIP3   OH226843   7.445   7.515   2.923
 8967TIP3    H126844   7.431   7.571   2.845
 8967TIP3    H226845   7.477   7.582   2.987
 8968TIP3   OH226846   6.713   7.327   3.008
 8968TIP3    H126847   6.738   7.299   3.099
 8968TIP3    H226848   6.786   7.283   2.958
 8969TIP3   OH226849   6.908   7.198   2.867
 8969TIP3    H126850   6.921   7.114   2.916
 8969TIP3    H226851   7.000   7.234   2.867
 8970TIP3   OH226852   7.174   7.289   2.876
 8970TIP3    H126853   7.203   7.196   2.869
 8970TIP3    H226854   7.223   7.315   2.956
 8971TIP3   OH226855   7.747   5.949   2.948
 8971TIP3    H126856   7.697   5.877   2.992
 8971TIP3    H226857   7.823   5.902   2.908
 8972TIP3   OH226858   8.273   5.832   2.854
 8972TIP3    H126859   8.300   5.885   2.777
 8972TIP3    H226860   8.177   5.850   2.858
 8973TIP3   OH226861   8.378   5.927   2.612
 8973TIP3    H126862   8.446   5.865   2.583
 8973TIP3    H226863   8.424   6.012   2.613
 8974TIP3   OH226864   6.993   5.657   2.973
 8974TIP3    H126865   6.900   5.625   2.973
 8974TIP3    H226866   7.041   5.572   2.966
 8975TIP3   OH226867   6.800   5.537   2.626
 8975TIP3    H126868   6.821   5.593   2.549
 8975TIP3    H226869   6.765   5.601   2.690
 8976TIP3   OH226870   7.443   5.693   2.855
 8976TIP3    H126871   7.496   5.740   2.789
 8976TIP3    H226872   7.483   5.723   2.938
 8977TIP3   OH226873   7.982   5.831   2.841
 8977TIP3    H126874   7.992   5.787   2.755
 8977TIP3    H226875   7.974   5.754   2.902
 8978TIP3   OH226876   8.013   5.757   2.400
 8978TIP3    H126877   7.926   5.799   2.414
 8978TIP3    H226878   8.000   5.671   2.445
 8979TIP3   OH226879   6.500   7.103   2.395
 8979TIP3    H126880   6.414   7.070   2.364
 8979TIP3    H226881   6.489   7.197   2.374
 8980TIP3   OH226882   6.902   5.692   2.381
 8980TIP3    H126883   6.948   5.624   2.327
 8980TIP3    H226884   6.978   5.742   2.418
 8981TIP3   OH226885   7.412   5.865   2.482
 8981TIP3    H126886   7.473   5.819   2.541
 8981TIP3    H226887   7.432   5.958   2.508
 8982TIP3   OH226888   7.204   5.937   3.862
 8982TIP3    H126889   7.169   5.867   3.921
 8982TIP3    H226890   7.298   5.938   3.890
 8983TIP3   OH226891   7.453   5.936   3.981
 8983TIP3    H126892   7.538   5.912   3.942
 8983TIP3    H226893   7.442   5.865   4.049
 8984TIP3   OH226894   6.578   7.122   2.036
 8984TIP3    H126895   6.568   7.143   2.130
 8984TIP3    H226896   6.664   7.076   2.033
 8985TIP3   OH226897   8.275   6.000   3.769
 8985TIP3    H126898   8.296   5.968   3.860
 8985TIP3    H226899   8.363   5.995   3.726
 8986TIP3   OH226900   0.956   7.000   4.660
 8986TIP3    H126901   0.979   7.084   4.704
 8986TIP3    H226902   0.971   7.023   4.567
 8987TIP3   OH226903   0.384   6.889   4.271
 8987TIP3    H126904   0.448   6.908   4.342
 8987TIP3    H226905   0.416   6.950   4.202
 8988TIP3   OH226906   1.018   7.207   4.837
 8988TIP3    H126907   0.936   7.258   4.819
 8988TIP3    H226908   1.050   7.250   4.918
 8989TIP3   OH226909   0.584   6.947   4.451
 8989TIP3    H126910   0.599   6.870   4.508
 8989TIP3    H226911   0.642   7.016   4.487
 8990TIP3   OH226912   0.750   6.904   4.824
 8990TIP3    H126913   0.670   6.950   4.797
 8990TIP3    H226914   0.815   6.931   4.756
 8991TIP3   OH226915   0.669   7.927   4.810
 8991TIP3    H126916   0.654   7.840   4.768
 8991TIP3    H226917   0.704   7.981   4.737
 8992TIP3   OH226918   0.876   7.546   4.651
 8992TIP3    H126919   0.795   7.601   4.659
 8992TIP3    H226920   0.906   7.572   4.561
 8993TIP3   OH226921   0.681   6.485   3.908
 8993TIP3    H126922   0.599   6.505   3.958
 8993TIP3    H226923   0.692   6.568   3.857
 8994TIP3   OH226924   0.820   7.388   5.132
 8994TIP3    H126925   0.739   7.413   5.085
 8994TIP3    H226926   0.819   7.291   5.122
 8995TIP3   OH226927   0.647   7.700   4.649
 8995TIP3    H126928   0.679   7.747   4.569
 8995TIP3    H226929   0.560   7.669   4.622
 8996TIP3   OH226930   0.713   7.109   3.808
 8996TIP3    H126931   0.647   7.067   3.748
 8996TIP3    H226932   0.708   7.200   3.771
 8997TIP3   OH226933   0.922   7.955   4.904
 8997TIP3    H126934   0.825   7.961   4.888
 8997TIP3    H226935   0.952   7.935   4.812
 8998TIP3   OH226936   0.820   7.121   5.055
 8998TIP3    H126937   0.734   7.079   5.071
 8998TIP3    H226938   0.839   7.096   4.964
 8999TIP3   OH226939   0.486   7.297   4.434
 8999TIP3    H126940   0.418   7.233   4.458
 8999TIP3    H226941   0.565   7.259   4.476
 9000TIP3   OH226942   0.483   7.382   3.476
 9000TIP3    H126943   0.434   7.336   3.405
 9000TIP3    H226944   0.468   7.474   3.454
 9001TIP3   OH226945   0.751   7.039   5.476
 9001TIP3    H126946   0.738   6.943   5.463
 9001TIP3    H226947   0.656   7.065   5.482
 9002TIP3   OH226948   0.610   7.561   3.814
 9002TIP3    H126949   0.683   7.621   3.790
 9002TIP3    H226950   0.646   7.520   3.896
 9003TIP3   OH226951   0.739   7.435   4.017
 9003TIP3    H126952   0.677   7.388   4.078
 9003TIP3    H226953   0.806   7.472   4.080
 9004TIP3   OH226954   0.774   7.825   4.447
 9004TIP3    H126955   0.838   7.765   4.403
 9004TIP3    H226956   0.782   7.906   4.396
 9005TIP3   OH226957   0.674   7.342   3.665
 9005TIP3    H126958   0.602   7.344   3.598
 9005TIP3    H226959   0.645   7.418   3.721
 9006TIP3   OH226960   0.540   7.021   3.617
 9006TIP3    H126961   0.491   7.060   3.544
 9006TIP3    H226962   0.523   6.926   3.602
 9007TIP3   OH226963   0.573   7.288   4.171
 9007TIP3    H126964   0.553   7.195   4.149
 9007TIP3    H226965   0.537   7.295   4.262
 9008TIP3   OH226966   0.831   7.714   5.026
 9008TIP3    H126967   0.905   7.651   5.016
 9008TIP3    H226968   0.855   7.785   4.965
 9009TIP3   OH226969   1.026   7.524   5.028
 9009TIP3    H126970   0.953   7.478   5.075
 9009TIP3    H226971   1.099   7.461   5.045
 9010TIP3   OH226972   0.502   6.752   3.602
 9010TIP3    H126973   0.576   6.728   3.661
 9010TIP3    H226974   0.430   6.693   3.635
 9011TIP3   OH226975   0.552   7.018   4.077
 9011TIP3    H126976   0.591   6.929   4.086
 9011TIP3    H226977   0.588   7.046   3.992
 9012TIP3   OH226978   0.707   7.182   4.561
 9012TIP3    H126979   0.790   7.208   4.516
 9012TIP3    H226980   0.720   7.228   4.647
 9013TIP3   OH226981   0.765   7.330   4.790
 9013TIP3    H126982   0.682   7.360   4.832
 9013TIP3    H226983   0.798   7.413   4.749
 9014TIP3   OH226984   1.230   6.923   5.342
 9014TIP3    H126985   1.286   6.857   5.297
 9014TIP3    H226986   1.195   6.975   5.266
 9015TIP3   OH226987   0.663   6.759   4.093
 9015TIP3    H126988   0.701   6.748   4.182
 9015TIP3    H226989   0.595   6.688   4.094
 9016TIP3   OH226990   1.090   7.058   5.151
 9016TIP3    H126991   1.009   7.102   5.183
 9016TIP3    H226992   1.052   6.990   5.092
 9017TIP3   OH226993   0.739   6.694   3.734
 9017TIP3    H126994   0.776   6.626   3.674
 9017TIP3    H226995   0.803   6.767   3.727
 9018TIP3   OH226996   0.994   6.821   5.026
 9018TIP3    H126997   0.903   6.809   4.994
 9018TIP3    H226998   1.028   6.729   5.016
 9019TIP3   OH226999   0.744   6.613   4.552
 9019TIP3    H127000   0.777   6.662   4.473
 9019TIP3    H227001   0.648   6.634   4.546
 9020TIP3   OH227002   0.822   6.713   4.316
 9020TIP3    H127003   0.893   6.662   4.272
 9020TIP3    H227004   0.854   6.805   4.299
 9021TIP3   OH227005   0.482   6.656   4.520
 9021TIP3    H127006   0.409   6.666   4.458
 9021TIP3    H227007   0.458   6.574   4.569
 9022TIP3   OH227008   0.477   6.543   4.086
 9022TIP3    H127009   0.390   6.573   4.059
 9022TIP3    H227010   0.455   6.461   4.135
 9023TIP3   OH227011   0.734   6.767   5.457
 9023TIP3    H127012   0.745   6.744   5.552
 9023TIP3    H227013   0.825   6.765   5.423
 9024TIP3   OH227014   1.937   7.693   3.726
 9024TIP3    H127015   1.902   7.781   3.700
 9024TIP3    H227016   1.865   7.638   3.690
 9025TIP3   OH227017   1.942   7.710   4.099
 9025TIP3    H127018   1.972   7.685   4.188
 9025TIP3    H227019   1.896   7.629   4.070
 9026TIP3   OH227020   1.231   7.607   4.467
 9026TIP3    H127021   1.266   7.540   4.529
 9026TIP3    H227022   1.306   7.667   4.458
 9027TIP3   OH227023   2.156   8.012   3.789
 9027TIP3    H127024   2.154   7.942   3.857
 9027TIP3    H227025   2.207   8.081   3.833
 9028TIP3   OH227026   1.274   7.933   4.286
 9028TIP3    H127027   1.222   7.874   4.230
 9028TIP3    H227028   1.348   7.957   4.226
 9029TIP3   OH227029   0.913   7.214   3.973
 9029TIP3    H127030   0.868   7.299   3.990
 9029TIP3    H227031   0.839   7.165   3.931
 9030TIP3   OH227032   0.970   7.507   4.153
 9030TIP3    H127033   1.019   7.428   4.184
 9030TIP3    H227034   1.042   7.565   4.122
 9031TIP3   OH227035   1.751   7.925   4.144
 9031TIP3    H127036   1.799   7.850   4.105
 9031TIP3    H227037   1.827   7.979   4.172
 9032TIP3   OH227038   2.747   7.258   4.146
 9032TIP3    H127039   2.778   7.342   4.186
 9032TIP3    H227040   2.773   7.271   4.053
 9033TIP3   OH227041   2.144   7.435   4.180
 9033TIP3    H127042   2.189   7.351   4.199
 9033TIP3    H227043   2.114   7.420   4.088
 9034TIP3   OH227044   1.487   7.097   4.145
 9034TIP3    H127045   1.467   7.172   4.084
 9034TIP3    H227046   1.438   7.026   4.100
 9035TIP3   OH227047   2.181   7.188   3.766
 9035TIP3    H127048   2.253   7.176   3.832
 9035TIP3    H227049   2.231   7.224   3.691
 9036TIP3   OH227050   1.116   7.297   4.256
 9036TIP3    H127051   1.201   7.281   4.301
 9036TIP3    H227052   1.129   7.245   4.174
 9037TIP3   OH227053   1.557   7.497   4.048
 9037TIP3    H127054   1.651   7.472   4.059
 9037TIP3    H227055   1.518   7.413   4.015
 9038TIP3   OH227056   2.823   7.464   4.321
 9038TIP3    H127057   2.746   7.518   4.295
 9038TIP3    H227058   2.800   7.447   4.413
 9039TIP3   OH227059   1.479   7.080   4.580
 9039TIP3    H127060   1.422   7.120   4.512
 9039TIP3    H227061   1.426   7.100   4.661
 9040TIP3   OH227062   1.819   7.896   3.586
 9040TIP3    H127063   1.774   7.897   3.500
 9040TIP3    H227064   1.844   7.990   3.597
 9041TIP3   OH227065   1.584   7.861   4.374
 9041TIP3    H127066   1.515   7.924   4.402
 9041TIP3    H227067   1.619   7.906   4.294
 9042TIP3   OH227068   2.385   7.193   3.946
 9042TIP3    H127069   2.368   7.158   4.034
 9042TIP3    H227070   2.440   7.270   3.966
 9043TIP3   OH227071   1.354   7.196   4.364
 9043TIP3    H127072   1.413   7.272   4.386
 9043TIP3    H227073   1.403   7.158   4.288
 9044TIP3   OH227074   1.413   8.079   4.485
 9044TIP3    H127075   1.372   8.073   4.397
 9044TIP3    H227076   1.332   8.075   4.539
 9045TIP3   OH227077   0.817   7.711   3.717
 9045TIP3    H127078   0.775   7.721   3.629
 9045TIP3    H227079   0.828   7.805   3.739
 9046TIP3   OH227080   2.544   7.157   4.313
 9046TIP3    H127081   2.457   7.186   4.281
 9046TIP3    H227082   2.604   7.189   4.242
 9047TIP3   OH227083   1.834   6.796   4.294
 9047TIP3    H127084   1.819   6.702   4.316
 9047TIP3    H227085   1.758   6.837   4.340
 9048TIP3   OH227086   2.185   8.028   3.508
 9048TIP3    H127087   2.151   7.948   3.463
 9048TIP3    H227088   2.192   7.999   3.601
 9049TIP3   OH227089   2.467   8.165   4.295
 9049TIP3    H127090   2.456   8.088   4.236
 9049TIP3    H227091   2.493   8.236   4.232
 9050TIP3   OH227092   1.768   7.555   3.556
 9050TIP3    H127093   1.686   7.607   3.539
 9050TIP3    H227094   1.811   7.559   3.468
 9051TIP3   OH227095   1.725   7.348   3.264
 9051TIP3    H127096   1.792   7.400   3.314
 9051TIP3    H227097   1.783   7.286   3.217
 9052TIP3   OH227098   2.672   7.806   4.138
 9052TIP3    H127099   2.589   7.857   4.144
 9052TIP3    H227100   2.701   7.831   4.048
 9053TIP3   OH227101   2.115   7.636   3.526
 9053TIP3    H127102   2.059   7.658   3.605
 9053TIP3    H227103   2.199   7.612   3.570
 9054TIP3   OH227104   2.349   7.682   4.438
 9054TIP3    H127105   2.348   7.766   4.487
 9054TIP3    H227106   2.263   7.688   4.391
 9055TIP3   OH227107   1.352   7.643   3.928
 9055TIP3    H127108   1.310   7.582   3.864
 9055TIP3    H227109   1.428   7.590   3.962
 9056TIP3   OH227110   1.483   8.007   4.138
 9056TIP3    H127111   1.446   8.010   4.048
 9056TIP3    H227112   1.579   8.016   4.122
 9057TIP3   OH227113   1.479   7.618   4.291
 9057TIP3    H127114   1.513   7.596   4.202
 9057TIP3    H227115   1.521   7.705   4.310
 9058TIP3   OH227116   1.661   8.075   4.616
 9058TIP3    H127117   1.626   8.163   4.637
 9058TIP3    H227118   1.587   8.042   4.563
 9059TIP3   OH227119   1.952   7.500   3.349
 9059TIP3    H127120   2.011   7.560   3.399
 9059TIP3    H227121   1.980   7.517   3.256
 9060TIP3   OH227122   1.377   7.720   4.722
 9060TIP3    H127123   1.384   7.810   4.761
 9060TIP3    H227124   1.282   7.703   4.734
 9061TIP3   OH227125   2.467   6.746   3.393
 9061TIP3    H127126   2.387   6.776   3.441
 9061TIP3    H227127   2.488   6.825   3.340
 9062TIP3   OH227128   1.216   7.481   3.740
 9062TIP3    H127129   1.152   7.528   3.683
 9062TIP3    H227130   1.167   7.401   3.760
 9063TIP3   OH227131   1.007   7.869   4.659
 9063TIP3    H127132   0.945   7.850   4.586
 9063TIP3    H227133   1.044   7.781   4.681
 9064TIP3   OH227134   2.602   7.641   4.616
 9064TIP3    H127135   2.520   7.657   4.568
 9064TIP3    H227136   2.617   7.546   4.602
 9065TIP3   OH227137   1.194   8.075   4.662
 9065TIP3    H127138   1.254   8.033   4.727
 9065TIP3    H227139   1.126   8.005   4.650
 9066TIP3   OH227140   1.598   6.876   4.427
 9066TIP3    H127141   1.508   6.850   4.398
 9066TIP3    H227142   1.576   6.961   4.471
 9067TIP3   OH227143   2.134   6.986   4.617
 9067TIP3    H127144   2.204   6.963   4.682
 9067TIP3    H227145   2.052   6.970   4.667
 9068TIP3   OH227146   2.369   7.419   4.536
 9068TIP3    H127147   2.319   7.417   4.621
 9068TIP3    H227148   2.346   7.507   4.501
 9069TIP3   OH227149   2.027   7.529   3.091
 9069TIP3    H127150   2.000   7.509   2.999
 9069TIP3    H227151   2.074   7.613   3.078
 9070TIP3   OH227152   1.741   6.922   3.395
 9070TIP3    H127153   1.707   6.920   3.486
 9070TIP3    H227154   1.702   6.839   3.361
 9071TIP3   OH227155   1.529   7.394   4.439
 9071TIP3    H127156   1.480   7.415   4.521
 9071TIP3    H227157   1.512   7.476   4.387
 9072TIP3   OH227158   1.414   7.276   3.956
 9072TIP3    H127159   1.320   7.254   3.974
 9072TIP3    H227160   1.425   7.237   3.867
 9073TIP3   OH227161   1.905   7.358   3.685
 9073TIP3    H127162   1.852   7.428   3.641
 9073TIP3    H227163   1.960   7.327   3.610
 9074TIP3   OH227164   2.081   7.635   4.765
 9074TIP3    H127165   2.059   7.565   4.829
 9074TIP3    H227166   2.174   7.653   4.789
 9075TIP3   OH227167   2.060   7.389   3.922
 9075TIP3    H127168   1.999   7.421   3.852
 9075TIP3    H227169   2.093   7.309   3.877
 9076TIP3   OH227170   1.351   7.420   4.650
 9076TIP3    H127171   1.374   7.488   4.715
 9076TIP3    H227172   1.339   7.341   4.705
 9077TIP3   OH227173   1.399   6.897   3.362
 9077TIP3    H127174   1.387   6.897   3.459
 9077TIP3    H227175   1.322   6.951   3.335
 9078TIP3   OH227176   0.945   6.935   4.238
 9078TIP3    H127177   1.018   6.976   4.287
 9078TIP3    H227178   0.978   6.928   4.148
 9079TIP3   OH227179   0.912   6.922   3.751
 9079TIP3    H127180   0.954   6.962   3.672
 9079TIP3    H227181   0.849   6.993   3.773
 9080TIP3   OH227182   2.069   7.636   4.344
 9080TIP3    H127183   2.103   7.564   4.285
 9080TIP3    H227184   2.040   7.583   4.420
 9081TIP3   OH227185   1.744   7.097   4.018
 9081TIP3    H127186   1.662   7.098   4.070
 9081TIP3    H227187   1.812   7.101   4.087
 9082TIP3   OH227188   1.173   7.158   4.025
 9082TIP3    H127189   1.079   7.170   3.997
 9082TIP3    H227190   1.194   7.068   3.995
 9083TIP3   OH227191   1.442   7.148   3.714
 9083TIP3    H127192   1.535   7.166   3.692
 9083TIP3    H227193   1.394   7.173   3.632
 9084TIP3   OH227194   2.234   7.174   4.218
 9084TIP3    H127195   2.203   7.188   4.311
 9084TIP3    H227196   2.163   7.116   4.185
 9085TIP3   OH227197   1.290   7.180   3.491
 9085TIP3    H127198   1.218   7.139   3.440
 9085TIP3    H227199   1.342   7.221   3.418
 9086TIP3   OH227200   1.365   7.969   4.856
 9086TIP3    H127201   1.443   7.999   4.907
 9086TIP3    H227202   1.299   7.960   4.928
 9087TIP3   OH227203   1.823   7.427   4.112
 9087TIP3    H127204   1.899   7.392   4.063
 9087TIP3    H227205   1.834   7.385   4.199
 9088TIP3   OH227206   1.347   6.918   3.991
 9088TIP3    H127207   1.315   6.835   4.029
 9088TIP3    H227208   1.385   6.890   3.906
 9089TIP3   OH227209   1.798   7.324   4.409
 9089TIP3    H127210   1.709   7.364   4.419
 9089TIP3    H227211   1.856   7.387   4.456
 9090TIP3   OH227212   1.537   7.696   3.509
 9090TIP3    H127213   1.457   7.642   3.492
 9090TIP3    H227214   1.513   7.742   3.592
 9091TIP3   OH227215   2.436   7.946   4.129
 9091TIP3    H127216   2.465   7.996   4.049
 9091TIP3    H227217   2.351   7.907   4.100
 9092TIP3   OH227218   1.995   7.022   3.371
 9092TIP3    H127219   1.897   7.007   3.373
 9092TIP3    H227220   2.003   7.118   3.388
 9093TIP3   OH227221   1.946   8.055   4.496
 9093TIP3    H127222   1.976   8.009   4.576
 9093TIP3    H227223   1.862   8.092   4.525
 9094TIP3   OH227224   2.063   7.274   3.467
 9094TIP3    H127225   2.160   7.282   3.480
 9094TIP3    H227226   2.042   7.354   3.414
 9095TIP3   OH227227   1.200   7.678   4.157
 9095TIP3    H127228   1.257   7.678   4.077
 9095TIP3    H227229   1.263   7.655   4.227
 9096TIP3   OH227230   1.648   7.889   3.352
 9096TIP3    H127231   1.603   7.958   3.406
 9096TIP3    H227232   1.609   7.808   3.392
 9097TIP3   OH227233   1.114   7.649   4.788
 9097TIP3    H127234   1.126   7.635   4.885
 9097TIP3    H227235   1.041   7.587   4.770
 9098TIP3   OH227236   1.841   7.761   4.814
 9098TIP3    H127237   1.779   7.713   4.757
 9098TIP3    H227238   1.927   7.728   4.780
 9099TIP3   OH227239   2.503   7.369   3.302
 9099TIP3    H127240   2.442   7.323   3.238
 9099TIP3    H227241   2.499   7.458   3.260
 9100TIP3   OH227242   2.723   8.203   4.385
 9100TIP3    H127243   2.627   8.217   4.374
 9100TIP3    H227244   2.748   8.191   4.291
 9101TIP3   OH227245   2.201   7.819   4.032
 9101TIP3    H127246   2.109   7.793   4.054
 9101TIP3    H227247   2.235   7.735   3.995
 9102TIP3   OH227248   0.897   7.343   3.505
 9102TIP3    H127249   0.942   7.428   3.525
 9102TIP3    H227250   0.819   7.350   3.565
 9103TIP3   OH227251   1.464   7.818   3.744
 9103TIP3    H127252   1.430   7.902   3.777
 9103TIP3    H227253   1.434   7.758   3.815
 9104TIP3   OH227254   1.994   8.017   4.225
 9104TIP3    H127255   1.981   8.030   4.322
 9104TIP3    H227256   2.079   7.974   4.222
 9105TIP3   OH227257   1.996   7.836   3.081
 9105TIP3    H127258   2.028   7.837   3.174
 9105TIP3    H227259   1.915   7.891   3.090
 9106TIP3   OH227260   1.320   7.159   4.795
 9106TIP3    H127261   1.224   7.167   4.811
 9106TIP3    H227262   1.349   7.107   4.872
 9107TIP3   OH227263   2.120   7.823   3.329
 9107TIP3    H127264   2.117   7.752   3.397
 9107TIP3    H227265   2.216   7.826   3.309
 9108TIP3   OH227266   1.298   7.839   3.164
 9108TIP3    H127267   1.351   7.762   3.133
 9108TIP3    H227268   1.353   7.871   3.236
 9109TIP3   OH227269   1.016   7.585   3.582
 9109TIP3    H127270   0.950   7.624   3.643
 9109TIP3    H227271   1.022   7.658   3.516
 9110TIP3   OH227272   2.162   7.225   4.477
 9110TIP3    H127273   2.240   7.267   4.517
 9110TIP3    H227274   2.150   7.145   4.533
 9111TIP3   OH227275   2.046   6.972   3.646
 9111TIP3    H127276   2.023   6.996   3.554
 9111TIP3    H227277   2.081   7.057   3.681
 9112TIP3   OH227278   1.727   7.156   3.746
 9112TIP3    H127279   1.790   7.229   3.727
 9112TIP3    H227280   1.732   7.151   3.844
 9113TIP3   OH227281   1.996   7.474   4.552
 9113TIP3    H127282   2.020   7.529   4.629
 9113TIP3    H227283   2.052   7.395   4.565
 9114TIP3   OH227284   1.871   6.887   3.857
 9114TIP3    H127285   1.856   6.969   3.907
 9114TIP3    H227286   1.933   6.917   3.787
 9115TIP3   OH227287   1.384   6.883   3.642
 9115TIP3    H127288   1.382   6.977   3.671
 9115TIP3    H227289   1.481   6.867   3.646
 9116TIP3   OH227290   2.636   7.375   4.518
 9116TIP3    H127291   2.539   7.380   4.535
 9116TIP3    H227292   2.634   7.311   4.445
 9117TIP3   OH227293   2.287   7.571   3.924
 9117TIP3    H127294   2.211   7.511   3.936
 9117TIP3    H227295   2.358   7.524   3.972
 9118TIP3   OH227296   1.005   7.802   3.395
 9118TIP3    H127297   1.037   7.894   3.386
 9118TIP3    H227298   1.062   7.755   3.330
 9119TIP3   OH227299   0.943   7.073   3.525
 9119TIP3    H127300   0.946   7.171   3.525
 9119TIP3    H227301   0.857   7.057   3.484
 9120TIP3   OH227302   1.334   6.793   4.397
 9120TIP3    H127303   1.302   6.760   4.310
 9120TIP3    H227304   1.320   6.715   4.454
 9121TIP3   OH227305   1.160   7.941   5.034
 9121TIP3    H127306   1.181   7.846   5.045
 9121TIP3    H227307   1.069   7.937   4.998
 9122TIP3   OH227308   1.130   7.600   3.251
 9122TIP3    H127309   1.183   7.569   3.326
 9122TIP3    H227310   1.202   7.611   3.184
 9123TIP3   OH227311   1.783   8.026   4.853
 9123TIP3    H127312   1.746   8.040   4.763
 9123TIP3    H227313   1.817   7.935   4.844
 9124TIP3   OH227314   1.563   7.777   3.072
 9124TIP3    H127315   1.632   7.820   3.122
 9124TIP3    H227316   1.601   7.688   3.056
 9125TIP3   OH227317   2.255   8.048   4.429
 9125TIP3    H127318   2.324   8.104   4.386
 9125TIP3    H227319   2.179   8.107   4.426
 9126TIP3   OH227320   1.284   7.691   5.037
 9126TIP3    H127321   1.364   7.644   5.011
 9126TIP3    H227322   1.309   7.725   5.125
 9127TIP3   OH227323   1.330   7.515   3.461
 9127TIP3    H127324   1.308   7.473   3.545
 9127TIP3    H227325   1.373   7.442   3.411
 9128TIP3   OH227326   1.614   7.579   4.692
 9128TIP3    H127327   1.537   7.639   4.696
 9128TIP3    H227328   1.663   7.616   4.615
 9129TIP3   OH227329   1.447   7.311   3.309
 9129TIP3    H127330   1.421   7.312   3.215
 9129TIP3    H227331   1.545   7.318   3.300
 9130TIP3   OH227332   2.133   7.972   4.825
 9130TIP3    H127333   2.217   7.955   4.781
 9130TIP3    H227334   2.135   7.909   4.899
 9131TIP3   OH227335   2.275   7.646   2.964
 9131TIP3    H127336   2.242   7.597   2.887
 9131TIP3    H227337   2.251   7.738   2.937
 9132TIP3   OH227338   1.736   7.370   4.819
 9132TIP3    H127339   1.737   7.292   4.760
 9132TIP3    H227340   1.694   7.438   4.762
 9133TIP3   OH227341   1.739   7.153   4.627
 9133TIP3    H127342   1.767   7.200   4.545
 9133TIP3    H227343   1.645   7.135   4.608
 9134TIP3   OH227344   1.762   7.696   4.500
 9134TIP3    H127345   1.845   7.707   4.452
 9134TIP3    H227346   1.704   7.763   4.457
 9135TIP3   OH227347   2.347   7.658   4.881
 9135TIP3    H127348   2.399   7.576   4.887
 9135TIP3    H227349   2.414   7.722   4.850
 9136TIP3   OH227350   2.388   7.907   4.616
 9136TIP3    H127351   2.331   7.962   4.557
 9136TIP3    H227352   2.476   7.929   4.577
 9137TIP3   OH227353   1.616   7.477   5.053
 9137TIP3    H127354   1.546   7.411   5.067
 9137TIP3    H227355   1.648   7.454   4.964
 9138TIP3   OH227356   1.871   6.918   4.697
 9138TIP3    H127357   1.823   7.001   4.673
 9138TIP3    H227358   1.801   6.851   4.684
 9139TIP3   OH227359   1.997   7.421   4.911
 9139TIP3    H127360   1.983   7.410   5.007
 9139TIP3    H227361   1.907   7.399   4.879
 9140TIP3   OH227362   2.233   7.369   4.764
 9140TIP3    H127363   2.159   7.374   4.827
 9140TIP3    H227364   2.308   7.343   4.822
 9141TIP3   OH227365   2.455   7.314   4.918
 9141TIP3    H127366   2.475   7.219   4.933
 9141TIP3    H227367   2.458   7.351   5.008
 9142TIP3   OH227368   1.452   7.257   5.106
 9142TIP3    H127369   1.461   7.166   5.072
 9142TIP3    H227370   1.488   7.248   5.196
 9143TIP3   OH227371   1.962   6.927   4.956
 9143TIP3    H127372   2.031   6.859   4.949
 9143TIP3    H227373   1.925   6.924   4.866
 9144TIP3   OH227374   2.029   7.142   5.114
 9144TIP3    H127375   2.007   7.072   5.049
 9144TIP3    H227376   1.952   7.203   5.106
 9145TIP3   OH227377   0.743   7.711   3.430
 9145TIP3    H127378   0.828   7.751   3.402
 9145TIP3    H227379   0.735   7.634   3.371
 9146TIP3   OH227380   2.613   8.336   4.659
 9146TIP3    H127381   2.539   8.318   4.722
 9146TIP3    H227382   2.656   8.411   4.702
 9147TIP3   OH227383   2.394   7.819   3.309
 9147TIP3    H127384   2.463   7.879   3.275
 9147TIP3    H227385   2.440   7.780   3.386
 9148TIP3   OH227386   2.530   7.691   3.507
 9148TIP3    H127387   2.466   7.650   3.570
 9148TIP3    H227388   2.599   7.727   3.566
 9149TIP3   OH227389   2.571   8.083   3.937
 9149TIP3    H127390   2.635   8.027   3.889
 9149TIP3    H227391   2.571   8.165   3.886
 9150TIP3   OH227392   2.466   7.602   3.153
 9150TIP3    H127393   2.397   7.607   3.083
 9150TIP3    H227394   2.438   7.678   3.208
 9151TIP3   OH227395   2.339   7.275   3.107
 9151TIP3    H127396   2.291   7.316   3.035
 9151TIP3    H227397   2.315   7.180   3.095
 9152TIP3   OH227398   2.343   7.551   3.655
 9152TIP3    H127399   2.353   7.455   3.647
 9152TIP3    H227400   2.330   7.563   3.752
 9153TIP3   OH227401   0.967   7.631   4.402
 9153TIP3    H127402   0.963   7.595   4.311
 9153TIP3    H227403   1.065   7.631   4.417
 9154TIP3   OH227404   2.632   7.971   4.512
 9154TIP3    H127405   2.702   7.905   4.494
 9154TIP3    H227406   2.656   8.044   4.453
 9155TIP3   OH227407   2.816   7.770   4.508
 9155TIP3    H127408   2.745   7.721   4.555
 9155TIP3    H227409   2.894   7.748   4.561
 9156TIP3   OH227410   2.281   7.009   3.089
 9156TIP3    H127411   2.356   6.978   3.144
 9156TIP3    H227412   2.209   6.949   3.113
 9157TIP3   OH227413   2.340   7.272   3.546
 9157TIP3    H127414   2.384   7.184   3.560
 9157TIP3    H227415   2.397   7.306   3.474
 9158TIP3   OH227416   2.499   7.439   4.042
 9158TIP3    H127417   2.585   7.464   4.000
 9158TIP3    H227418   2.514   7.477   4.130
 9159TIP3   OH227419   2.570   7.586   4.271
 9159TIP3    H127420   2.494   7.621   4.322
 9159TIP3    H227421   2.604   7.667   4.228
 9160TIP3   OH227422   1.185   7.304   5.062
 9160TIP3    H127423   1.282   7.303   5.074
 9160TIP3    H227424   1.160   7.223   5.110
 9161TIP3   OH227425   3.011   7.149   4.827
 9161TIP3    H127426   3.075   7.099   4.772
 9161TIP3    H227427   2.991   7.227   4.771
 9162TIP3   OH227428   2.452   7.025   3.584
 9162TIP3    H127429   2.501   7.006   3.667
 9162TIP3    H227430   2.392   6.948   3.579
 9163TIP3   OH227431   1.152   7.005   4.406
 9163TIP3    H127432   1.218   6.934   4.416
 9163TIP3    H227433   1.210   7.083   4.398
 9164TIP3   OH227434   0.952   7.274   4.481
 9164TIP3    H127435   0.998   7.272   4.395
 9164TIP3    H227436   0.975   7.361   4.514
 9165TIP3   OH227437   2.905   7.321   4.638
 9165TIP3    H127438   2.826   7.370   4.668
 9165TIP3    H227439   2.866   7.252   4.582
 9166TIP3   OH227440   2.526   6.951   3.218
 9166TIP3    H127441   2.569   6.881   3.164
 9166TIP3    H227442   2.593   7.022   3.215
 9167TIP3   OH227443   0.937   6.778   3.979
 9167TIP3    H127444   0.844   6.773   4.009
 9167TIP3    H227445   0.930   6.838   3.902
 9168TIP3   OH227446   1.149   6.847   4.786
 9168TIP3    H127447   1.103   6.854   4.872
 9168TIP3    H227448   1.088   6.899   4.730
 9169TIP3   OH227449   2.791   7.078   4.516
 9169TIP3    H127450   2.701   7.065   4.480
 9169TIP3    H227451   2.828   6.987   4.505
 9170TIP3   OH227452   1.998   7.000   4.142
 9170TIP3    H127453   1.953   6.927   4.187
 9170TIP3    H227454   2.070   6.955   4.093
 9171TIP3   OH227455   2.513   6.866   4.032
 9171TIP3    H127456   2.556   6.919   3.962
 9171TIP3    H227457   2.424   6.905   4.034
 9172TIP3   OH227458   2.612   6.973   3.803
 9172TIP3    H127459   2.685   6.919   3.765
 9172TIP3    H227460   2.649   7.063   3.788
 9173TIP3   OH227461   1.251   6.678   4.153
 9173TIP3    H127462   1.155   6.665   4.171
 9173TIP3    H227463   1.260   6.624   4.074
 9174TIP3   OH227464   1.050   6.574   3.808
 9174TIP3    H127465   1.067   6.627   3.728
 9174TIP3    H227466   1.005   6.639   3.866
 9175TIP3   OH227467   1.697   6.732   4.033
 9175TIP3    H127468   1.746   6.781   3.965
 9175TIP3    H227469   1.726   6.777   4.114
 9176TIP3   OH227470   2.224   6.886   4.022
 9176TIP3    H127471   2.235   6.861   3.930
 9176TIP3    H227472   2.217   6.799   4.068
 9177TIP3   OH227473   2.263   6.818   3.567
 9177TIP3    H127474   2.180   6.869   3.581
 9177TIP3    H227475   2.253   6.747   3.631
 9178TIP3   OH227476   1.151   6.728   3.563
 9178TIP3    H127477   1.198   6.668   3.502
 9178TIP3    H227478   1.224   6.784   3.596
 9179TIP3   OH227479   1.661   6.905   3.661
 9179TIP3    H127480   1.726   6.857   3.715
 9179TIP3    H227481   1.682   6.997   3.688
 9180TIP3   OH227482   1.453   6.978   5.036
 9180TIP3    H127483   1.417   6.911   5.097
 9180TIP3    H227484   1.546   6.981   5.065
 9181TIP3   OH227485   1.701   6.979   5.158
 9181TIP3    H127486   1.787   6.959   5.118
 9181TIP3    H227487   1.692   6.908   5.223
 9182TIP3   OH227488   2.526   7.046   4.947
 9182TIP3    H127489   2.547   7.014   5.038
 9182TIP3    H227490   2.614   7.042   4.904
 9183TIP3   OH227491   3.734   7.952   3.212
 9183TIP3    H127492   3.699   8.039   3.185
 9183TIP3    H227493   3.662   7.896   3.180
 9184TIP3   OH227494   3.735   7.967   3.584
 9184TIP3    H127495   3.763   7.947   3.675
 9184TIP3    H227496   3.690   7.884   3.560
 9185TIP3   OH227497   3.028   7.862   3.954
 9185TIP3    H127498   3.061   7.794   4.015
 9185TIP3    H227499   3.107   7.917   3.941
 9186TIP3   OH227500   3.951   8.267   3.277
 9186TIP3    H127501   3.949   8.197   3.344
 9186TIP3    H227502   4.003   8.336   3.322
 9187TIP3   OH227503   3.061   8.207   3.759
 9187TIP3    H127504   3.026   8.124   3.722
 9187TIP3    H227505   3.142   8.222   3.705
 9188TIP3   OH227506   2.709   7.471   3.459
 9188TIP3    H127507   2.664   7.555   3.475
 9188TIP3    H227508   2.637   7.422   3.415
 9189TIP3   OH227509   2.764   7.761   3.637
 9189TIP3    H127510   2.814   7.684   3.669
 9189TIP3    H227511   2.834   7.815   3.596
 9190TIP3   OH227512   3.545   8.182   3.630
 9190TIP3    H127513   3.594   8.106   3.592
 9190TIP3    H227514   3.623   8.236   3.657
 9191TIP3   OH227515   4.543   7.511   3.631
 9191TIP3    H127516   4.581   7.590   3.674
 9191TIP3    H227517   4.570   7.525   3.539
 9192TIP3   OH227518   3.955   7.695   3.669
 9192TIP3    H127519   3.990   7.605   3.684
 9192TIP3    H227520   3.915   7.684   3.581
 9193TIP3   OH227521   3.284   7.354   3.630
 9193TIP3    H127522   3.261   7.425   3.567
 9193TIP3    H227523   3.235   7.279   3.588
 9194TIP3   OH227524   3.974   7.446   3.251
 9194TIP3    H127525   4.045   7.431   3.317
 9194TIP3    H227526   4.027   7.481   3.177
 9195TIP3   OH227527   2.913   7.555   3.741
 9195TIP3    H127528   2.997   7.535   3.787
 9195TIP3    H227529   2.926   7.501   3.660
 9196TIP3   OH227530   3.352   7.753   3.536
 9196TIP3    H127531   3.447   7.729   3.547
 9196TIP3    H227532   3.314   7.669   3.503
 9197TIP3   OH227533   4.639   7.717   3.792
 9197TIP3    H127534   4.583   7.790   3.765
 9197TIP3    H227535   4.650   7.736   3.887
 9198TIP3   OH227536   3.277   7.339   4.069
 9198TIP3    H127537   3.216   7.374   4.001
 9198TIP3    H227538   3.224   7.354   4.150
 9199TIP3   OH227539   3.615   8.154   3.073
 9199TIP3    H127540   3.570   8.153   2.987
 9199TIP3    H227541   3.639   8.247   3.084
 9200TIP3   OH227542   3.381   8.117   3.860
 9200TIP3    H127543   3.316   8.182   3.891
 9200TIP3    H227544   3.417   8.161   3.781
 9201TIP3   OH227545   4.180   7.450   3.425
 9201TIP3    H127546   4.177   7.395   3.504
 9201TIP3    H227547   4.235   7.525   3.453
 9202TIP3   OH227548   3.149   7.451   3.849
 9202TIP3    H127549   3.211   7.524   3.872
 9202TIP3    H227550   3.199   7.410   3.775
 9203TIP3   OH227551   3.210   8.330   3.968
 9203TIP3    H127552   3.166   8.326   3.881
 9203TIP3    H227553   3.130   8.326   4.025
 9204TIP3   OH227554   2.602   7.962   3.201
 9204TIP3    H127555   2.568   7.972   3.109
 9204TIP3    H227556   2.616   8.056   3.222
 9205TIP3   OH227557   4.332   7.429   3.804
 9205TIP3    H127558   4.245   7.435   3.761
 9205TIP3    H227559   4.394   7.449   3.730
 9206TIP3   OH227560   3.630   7.052   3.782
 9206TIP3    H127561   3.617   6.957   3.802
 9206TIP3    H227562   3.552   7.091   3.828
 9207TIP3   OH227563   3.983   8.289   2.997
 9207TIP3    H127564   3.952   8.209   2.951
 9207TIP3    H227565   3.989   8.259   3.090
 9208TIP3   OH227566   4.264   8.417   3.784
 9208TIP3    H127567   4.254   8.343   3.722
 9208TIP3    H227568   4.295   8.489   3.726
 9209TIP3   OH227569   3.565   7.812   3.041
 9209TIP3    H127570   3.483   7.863   3.027
 9209TIP3    H227571   3.606   7.817   2.952
 9210TIP3   OH227572   3.523   7.605   2.752
 9210TIP3    H127573   3.591   7.655   2.801
 9210TIP3    H227574   3.578   7.542   2.703
 9211TIP3   OH227575   4.476   8.053   3.633
 9211TIP3    H127576   4.389   8.096   3.639
 9211TIP3    H227577   4.503   8.082   3.543
 9212TIP3   OH227578   3.911   7.880   3.017
 9212TIP3    H127579   3.855   7.907   3.095
 9212TIP3    H227580   3.996   7.861   3.062
 9213TIP3   OH227581   3.148   7.898   3.417
 9213TIP3    H127582   3.106   7.838   3.351
 9213TIP3    H227583   3.223   7.844   3.449
 9214TIP3   OH227584   3.281   8.263   3.620
 9214TIP3    H127585   3.243   8.263   3.531
 9214TIP3    H227586   3.377   8.263   3.604
 9215TIP3   OH227587   3.272   7.875   3.778
 9215TIP3    H127588   3.308   7.850   3.690
 9215TIP3    H227589   3.318   7.960   3.796
 9216TIP3   OH227590   3.458   8.331   4.102
 9216TIP3    H127591   3.424   8.419   4.125
 9216TIP3    H227592   3.383   8.300   4.049
 9217TIP3   OH227593   3.751   7.754   2.832
 9217TIP3    H127594   3.808   7.814   2.885
 9217TIP3    H227595   3.779   7.777   2.740
 9218TIP3   OH227596   3.173   7.977   4.213
 9218TIP3    H127597   3.177   8.069   4.247
 9218TIP3    H227598   3.077   7.960   4.219
 9219TIP3   OH227599   4.267   6.998   2.885
 9219TIP3    H127600   4.187   7.018   2.938
 9219TIP3    H227601   4.280   7.084   2.840
 9220TIP3   OH227602   3.012   7.740   3.228
 9220TIP3    H127603   2.945   7.785   3.171
 9220TIP3    H227604   2.969   7.655   3.245
 9221TIP3   OH227605   2.806   8.127   4.136
 9221TIP3    H127606   2.736   8.108   4.071
 9221TIP3    H227607   2.838   8.038   4.160
 9222TIP3   OH227608   2.995   8.329   4.143
 9222TIP3    H127609   3.050   8.289   4.213
 9222TIP3    H227610   2.924   8.262   4.132
 9223TIP3   OH227611   3.392   7.133   3.911
 9223TIP3    H127612   3.304   7.100   3.882
 9223TIP3    H227613   3.365   7.213   3.960
 9224TIP3   OH227614   3.925   7.247   4.105
 9224TIP3    H127615   3.994   7.217   4.167
 9224TIP3    H227616   3.842   7.224   4.153
 9225TIP3   OH227617   4.167   7.774   4.038
 9225TIP3    H127618   4.140   7.721   4.116
 9225TIP3    H227619   4.101   7.740   3.975
 9226TIP3   OH227620   3.828   7.802   2.576
 9226TIP3    H127621   3.778   7.823   2.494
 9226TIP3    H227622   3.888   7.878   2.574
 9227TIP3   OH227623   3.542   7.179   2.881
 9227TIP3    H127624   3.507   7.178   2.973
 9227TIP3    H227625   3.501   7.097   2.848
 9228TIP3   OH227626   3.327   7.650   3.925
 9228TIP3    H127627   3.276   7.667   4.007
 9228TIP3    H227628   3.308   7.732   3.873
 9229TIP3   OH227629   3.209   7.535   3.442
 9229TIP3    H127630   3.116   7.509   3.461
 9229TIP3    H227631   3.221   7.494   3.354
 9230TIP3   OH227632   3.702   7.617   3.174
 9230TIP3    H127633   3.648   7.686   3.129
 9230TIP3    H227634   3.757   7.584   3.100
 9231TIP3   OH227635   3.882   7.891   4.250
 9231TIP3    H127636   3.856   7.822   4.316
 9231TIP3    H227637   3.972   7.912   4.279
 9232TIP3   OH227638   3.858   7.648   3.411
 9232TIP3    H127639   3.795   7.677   3.342
 9232TIP3    H227640   3.891   7.567   3.366
 9233TIP3   OH227641   3.147   7.675   4.134
 9233TIP3    H127642   3.172   7.740   4.202
 9233TIP3    H227643   3.133   7.595   4.187
 9234TIP3   OH227644   3.196   7.156   2.846
 9234TIP3    H127645   3.187   7.152   2.943
 9234TIP3    H227646   3.117   7.208   2.822
 9235TIP3   OH227647   2.737   7.196   3.721
 9235TIP3    H127648   2.813   7.229   3.774
 9235TIP3    H227649   2.779   7.167   3.639
 9236TIP3   OH227650   2.703   7.178   3.236
 9236TIP3    H127651   2.749   7.215   3.158
 9236TIP3    H227652   2.644   7.253   3.257
 9237TIP3   OH227653   3.838   7.889   3.823
 9237TIP3    H127654   3.889   7.825   3.769
 9237TIP3    H227655   3.822   7.836   3.904
 9238TIP3   OH227656   3.542   7.357   3.504
 9238TIP3    H127657   3.459   7.353   3.555
 9238TIP3    H227658   3.609   7.349   3.574
 9239TIP3   OH227659   2.971   7.413   3.511
 9239TIP3    H127660   2.877   7.419   3.483
 9239TIP3    H227661   2.995   7.321   3.488
 9240TIP3   OH227662   3.237   7.407   3.202
 9240TIP3    H127663   3.331   7.422   3.178
 9240TIP3    H227664   3.189   7.429   3.119
 9241TIP3   OH227665   4.033   7.431   3.710
 9241TIP3    H127666   4.000   7.441   3.802
 9241TIP3    H227667   3.967   7.370   3.673
 9242TIP3   OH227668   3.085   7.441   2.978
 9242TIP3    H127669   3.013   7.397   2.929
 9242TIP3    H227670   3.137   7.479   2.904
 9243TIP3   OH227671   3.160   8.225   4.345
 9243TIP3    H127672   3.238   8.256   4.396
 9243TIP3    H227673   3.094   8.220   4.417
 9244TIP3   OH227674   3.619   7.688   3.602
 9244TIP3    H127675   3.688   7.642   3.552
 9244TIP3    H227676   3.623   7.643   3.689
 9245TIP3   OH227677   3.139   7.169   3.485
 9245TIP3    H127678   3.104   7.092   3.533
 9245TIP3    H227679   3.190   7.126   3.415
 9246TIP3   OH227680   3.596   7.585   3.888
 9246TIP3    H127681   3.505   7.618   3.902
 9246TIP3    H227682   3.650   7.648   3.939
 9247TIP3   OH227683   3.335   7.955   2.995
 9247TIP3    H127684   3.256   7.899   2.979
 9247TIP3    H227685   3.309   8.001   3.079
 9248TIP3   OH227686   4.236   8.193   3.618
 9248TIP3    H127687   4.266   8.245   3.540
 9248TIP3    H227688   4.149   8.159   3.587
 9249TIP3   OH227689   3.788   7.288   2.837
 9249TIP3    H127690   3.694   7.265   2.856
 9249TIP3    H227691   3.797   7.378   2.875
 9250TIP3   OH227692   3.747   8.311   3.984
 9250TIP3    H127693   3.774   8.262   4.062
 9250TIP3    H227694   3.663   8.349   4.013
 9251TIP3   OH227695   3.859   7.529   2.953
 9251TIP3    H127696   3.955   7.538   2.969
 9251TIP3    H227697   3.838   7.611   2.903
 9252TIP3   OH227698   3.005   7.949   3.649
 9252TIP3    H127699   3.056   7.942   3.566
 9252TIP3    H227700   3.065   7.908   3.713
 9253TIP3   OH227701   3.450   8.142   2.833
 9253TIP3    H127702   3.406   8.213   2.885
 9253TIP3    H227703   3.410   8.063   2.877
 9254TIP3   OH227704   2.908   7.906   4.273
 9254TIP3    H127705   2.920   7.887   4.368
 9254TIP3    H227706   2.836   7.844   4.251
 9255TIP3   OH227707   3.637   8.014   4.302
 9255TIP3    H127708   3.574   7.966   4.246
 9255TIP3    H227709   3.723   7.985   4.264
 9256TIP3   OH227710   4.301   7.624   2.786
 9256TIP3    H127711   4.240   7.578   2.724
 9256TIP3    H227712   4.295   7.714   2.746
 9257TIP3   OH227713   4.521   8.479   3.873
 9257TIP3    H127714   4.426   8.457   3.874
 9257TIP3    H227715   4.545   8.452   3.782
 9258TIP3   OH227716   3.995   8.075   3.519
 9258TIP3    H127717   3.903   8.048   3.540
 9258TIP3    H227718   4.029   7.992   3.480
 9259TIP3   OH227719   2.691   7.601   2.992
 9259TIP3    H127720   2.737   7.685   3.011
 9259TIP3    H227721   2.613   7.608   3.051
 9260TIP3   OH227722   3.260   8.077   3.233
 9260TIP3    H127723   3.218   8.157   3.267
 9260TIP3    H227724   3.232   8.013   3.302
 9261TIP3   OH227725   3.788   8.275   3.712
 9261TIP3    H127726   3.777   8.288   3.809
 9261TIP3    H227727   3.871   8.226   3.707
 9262TIP3   OH227728   3.825   8.152   2.588
 9262TIP3    H127729   3.833   8.129   2.682
 9262TIP3    H227730   3.729   8.153   2.573
 9263TIP3   OH227731   3.117   7.423   4.288
 9263TIP3    H127732   3.020   7.422   4.299
 9263TIP3    H227733   3.146   7.367   4.362
 9264TIP3   OH227734   3.918   8.078   2.835
 9264TIP3    H127735   3.916   8.004   2.898
 9264TIP3    H227736   4.012   8.078   2.806
 9265TIP3   OH227737   3.095   8.098   2.649
 9265TIP3    H127738   3.148   8.021   2.618
 9265TIP3    H227739   3.142   8.122   2.729
 9266TIP3   OH227740   2.811   7.843   3.070
 9266TIP3    H127741   2.742   7.880   3.129
 9266TIP3    H227742   2.817   7.915   3.004
 9267TIP3   OH227743   3.970   7.483   3.976
 9267TIP3    H127744   4.028   7.503   4.051
 9267TIP3    H227745   3.931   7.399   4.009
 9268TIP3   OH227746   3.837   7.233   3.131
 9268TIP3    H127747   3.822   7.259   3.039
 9268TIP3    H227748   3.876   7.315   3.169
 9269TIP3   OH227749   3.522   7.415   3.233
 9269TIP3    H127750   3.587   7.488   3.217
 9269TIP3    H227751   3.527   7.408   3.331
 9270TIP3   OH227752   3.798   7.730   4.039
 9270TIP3    H127753   3.818   7.786   4.116
 9270TIP3    H227754   3.842   7.647   4.061
 9271TIP3   OH227755   3.666   7.140   3.335
 9271TIP3    H127756   3.655   7.219   3.390
 9271TIP3    H227757   3.728   7.173   3.266
 9272TIP3   OH227758   3.179   7.140   3.122
 9272TIP3    H127759   3.176   7.230   3.161
 9272TIP3    H227760   3.275   7.122   3.131
 9273TIP3   OH227761   4.430   7.641   3.995
 9273TIP3    H127762   4.339   7.657   4.023
 9273TIP3    H227763   4.420   7.564   3.937
 9274TIP3   OH227764   4.079   7.828   3.408
 9274TIP3    H127765   4.003   7.769   3.418
 9274TIP3    H227766   4.151   7.777   3.452
 9275TIP3   OH227767   2.803   8.059   2.883
 9275TIP3    H127768   2.831   8.151   2.871
 9275TIP3    H227769   2.857   8.012   2.817
 9276TIP3   OH227770   2.739   7.331   3.011
 9276TIP3    H127771   2.741   7.428   3.010
 9276TIP3    H227772   2.656   7.312   2.966
 9277TIP3   OH227773   3.127   7.051   3.884
 9277TIP3    H127774   3.098   7.015   3.797
 9277TIP3    H227775   3.117   6.973   3.942
 9278TIP3   OH227776   2.956   8.200   4.523
 9278TIP3    H127777   2.973   8.105   4.538
 9278TIP3    H227778   2.866   8.197   4.484
 9279TIP3   OH227779   2.926   7.858   2.737
 9279TIP3    H127780   2.979   7.826   2.812
 9279TIP3    H227781   2.998   7.867   2.670
 9280TIP3   OH227782   3.579   8.280   4.339
 9280TIP3    H127783   3.543   8.295   4.249
 9280TIP3    H227784   3.614   8.189   4.329
 9281TIP3   OH227785   3.358   8.040   2.560
 9281TIP3    H127786   3.423   8.066   2.626
 9281TIP3    H227787   3.393   7.954   2.530
 9282TIP3   OH227788   4.058   8.299   3.928
 9282TIP3    H127789   4.116   8.362   3.880
 9282TIP3    H227790   3.975   8.350   3.930
 9283TIP3   OH227791   3.068   7.938   4.526
 9283TIP3    H127792   3.153   7.926   4.482
 9283TIP3    H227793   3.097   7.971   4.615
 9284TIP3   OH227794   3.130   7.771   2.949
 9284TIP3    H127795   3.105   7.729   3.033
 9284TIP3    H227796   3.171   7.697   2.899
 9285TIP3   OH227797   3.413   7.836   4.186
 9285TIP3    H127798   3.334   7.894   4.186
 9285TIP3    H227799   3.460   7.869   4.106
 9286TIP3   OH227800   3.244   7.568   2.795
 9286TIP3    H127801   3.217   7.571   2.701
 9286TIP3    H227802   3.341   7.577   2.786
 9287TIP3   OH227803   3.922   8.226   4.310
 9287TIP3    H127804   4.013   8.257   4.307
 9287TIP3    H227805   3.922   8.167   4.387
 9288TIP3   OH227806   4.076   7.906   2.445
 9288TIP3    H127807   4.029   7.858   2.374
 9288TIP3    H227808   4.058   7.998   2.418
 9289TIP3   OH227809   3.542   7.621   4.313
 9289TIP3    H127810   3.534   7.546   4.252
 9289TIP3    H227811   3.489   7.690   4.268
 9290TIP3   OH227812   3.535   7.415   4.114
 9290TIP3    H127813   3.561   7.455   4.028
 9290TIP3    H227814   3.442   7.390   4.097
 9291TIP3   OH227815   3.560   7.952   3.989
 9291TIP3    H127816   3.641   7.958   3.936
 9291TIP3    H227817   3.503   8.018   3.945
 9292TIP3   OH227818   4.151   7.918   4.362
 9292TIP3    H127819   4.192   7.838   4.400
 9292TIP3    H227820   4.217   7.986   4.380
 9293TIP3   OH227821   4.247   8.145   4.042
 9293TIP3    H127822   4.171   8.196   4.002
 9293TIP3    H227823   4.303   8.223   4.063
 9294TIP3   OH227824   3.667   7.176   4.182
 9294TIP3    H127825   3.616   7.257   4.159
 9294TIP3    H227826   3.598   7.107   4.171
 9295TIP3   OH227827   3.800   7.677   4.393
 9295TIP3    H127828   3.785   7.664   4.489
 9295TIP3    H227829   3.710   7.655   4.362
 9296TIP3   OH227830   4.041   7.618   4.236
 9296TIP3    H127831   3.964   7.624   4.297
 9296TIP3    H227832   4.111   7.591   4.299
 9297TIP3   OH227833   4.262   7.569   4.397
 9297TIP3    H127834   4.276   7.474   4.418
 9297TIP3    H227835   4.255   7.609   4.486
 9298TIP3   OH227836   3.761   7.188   4.439
 9298TIP3    H127837   3.827   7.115   4.435
 9298TIP3    H227838   3.721   7.180   4.350
 9299TIP3   OH227839   3.836   7.398   4.597
 9299TIP3    H127840   3.811   7.326   4.534
 9299TIP3    H227841   3.759   7.458   4.590
 9300TIP3   OH227842   2.541   7.963   2.929
 9300TIP3    H127843   2.622   8.006   2.893
 9300TIP3    H227844   2.527   7.891   2.864
 9301TIP3   OH227845   4.190   8.072   2.795
 9301TIP3    H127846   4.258   8.135   2.762
 9301TIP3    H227847   4.237   8.035   2.873
 9302TIP3   OH227848   4.327   7.946   2.994
 9302TIP3    H127849   4.264   7.905   3.057
 9302TIP3    H227850   4.395   7.984   3.053
 9303TIP3   OH227851   4.365   8.336   3.427
 9303TIP3    H127852   4.430   8.283   3.377
 9303TIP3    H227853   4.365   8.421   3.380
 9304TIP3   OH227854   4.261   7.857   2.638
 9304TIP3    H127855   4.194   7.865   2.566
 9304TIP3    H227856   4.233   7.932   2.694
 9305TIP3   OH227857   4.138   7.526   2.593
 9305TIP3    H127858   4.089   7.578   2.528
 9305TIP3    H227859   4.113   7.434   2.569
 9306TIP3   OH227860   4.143   7.806   3.143
 9306TIP3    H127861   4.149   7.709   3.136
 9306TIP3    H227862   4.126   7.819   3.239
 9307TIP3   OH227863   2.764   7.885   3.888
 9307TIP3    H127864   2.761   7.850   3.797
 9307TIP3    H227865   2.861   7.886   3.904
 9308TIP3   OH227866   4.084   7.252   2.560
 9308TIP3    H127867   4.154   7.240   2.628
 9308TIP3    H227868   4.007   7.208   2.600
 9309TIP3   OH227869   4.136   7.526   3.032
 9309TIP3    H127870   4.177   7.437   3.048
 9309TIP3    H227871   4.194   7.559   2.962
 9310TIP3   OH227872   4.295   7.695   3.519
 9310TIP3    H127873   4.383   7.721   3.482
 9310TIP3    H227874   4.304   7.732   3.608
 9311TIP3   OH227875   4.818   7.434   4.317
 9311TIP3    H127876   4.878   7.369   4.275
 9311TIP3    H227877   4.788   7.487   4.240
 9312TIP3   OH227878   4.244   7.275   3.072
 9312TIP3    H127879   4.292   7.258   3.156
 9312TIP3    H227880   4.183   7.199   3.070
 9313TIP3   OH227881   2.944   7.261   3.896
 9313TIP3    H127882   3.005   7.185   3.903
 9313TIP3    H227883   3.007   7.334   3.885
 9314TIP3   OH227884   2.744   7.534   3.964
 9314TIP3    H127885   2.795   7.528   3.880
 9314TIP3    H227886   2.773   7.620   3.997
 9315TIP3   OH227887   4.684   7.568   4.122
 9315TIP3    H127888   4.601   7.614   4.143
 9315TIP3    H227889   4.652   7.498   4.062
 9316TIP3   OH227890   4.316   7.221   2.715
 9316TIP3    H127891   4.351   7.149   2.658
 9316TIP3    H227892   4.388   7.288   2.709
 9317TIP3   OH227893   2.732   7.040   3.466
 9317TIP3    H127894   2.638   7.036   3.493
 9317TIP3    H227895   2.727   7.097   3.386
 9318TIP3   OH227896   2.951   7.120   4.281
 9318TIP3    H127897   2.902   7.116   4.365
 9318TIP3    H227898   2.884   7.156   4.221
 9319TIP3   OH227899   4.585   7.329   4.001
 9319TIP3    H127900   4.495   7.308   3.971
 9319TIP3    H227901   4.627   7.241   3.992
 9320TIP3   OH227902   3.794   7.250   3.626
 9320TIP3    H127903   3.749   7.178   3.675
 9320TIP3    H227904   3.863   7.202   3.577
 9321TIP3   OH227905   4.312   7.141   3.530
 9321TIP3    H127906   4.348   7.185   3.450
 9321TIP3    H227907   4.216   7.148   3.516
 9322TIP3   OH227908   4.409   7.229   3.289
 9322TIP3    H127909   4.480   7.175   3.249
 9322TIP3    H227910   4.444   7.319   3.274
 9323TIP3   OH227911   3.040   6.956   3.637
 9323TIP3    H127912   2.948   6.922   3.638
 9323TIP3    H227913   3.089   6.871   3.632
 9324TIP3   OH227914   2.813   6.832   3.280
 9324TIP3    H127915   2.854   6.885   3.210
 9324TIP3    H227916   2.797   6.898   3.350
 9325TIP3   OH227917   3.482   6.996   3.516
 9325TIP3    H127918   3.544   7.042   3.457
 9325TIP3    H227919   3.512   7.026   3.603
 9326TIP3   OH227920   4.032   7.138   3.499
 9326TIP3    H127921   4.030   7.095   3.412
 9326TIP3    H227922   4.019   7.061   3.559
 9327TIP3   OH227923   4.061   7.063   3.064
 9327TIP3    H127924   3.975   7.105   3.082
 9327TIP3    H227925   4.048   6.977   3.109
 9328TIP3   OH227926   2.947   6.990   3.046
 9328TIP3    H127927   2.994   6.924   2.991
 9328TIP3    H227928   3.020   7.042   3.082
 9329TIP3   OH227929   3.456   7.166   3.144
 9329TIP3    H127930   3.512   7.116   3.206
 9329TIP3    H227931   3.478   7.258   3.172
 9330TIP3   OH227932   3.240   7.229   4.525
 9330TIP3    H127933   3.214   7.157   4.585
 9330TIP3    H227934   3.331   7.247   4.555
 9331TIP3   OH227935   3.489   7.254   4.656
 9331TIP3    H127936   3.570   7.226   4.610
 9331TIP3    H227937   3.478   7.182   4.721
 9332TIP3   OH227938   4.324   7.301   4.434
 9332TIP3    H127939   4.342   7.270   4.525
 9332TIP3    H227940   4.413   7.294   4.394
 9333TIP3   OH227941   5.532   8.207   2.698
 9333TIP3    H127942   5.497   8.294   2.671
 9333TIP3    H227943   5.458   8.152   2.668
 9334TIP3   OH227944   5.534   8.221   3.073
 9334TIP3    H127945   5.565   8.200   3.163
 9334TIP3    H227946   5.487   8.139   3.049
 9335TIP3   OH227947   4.826   8.117   3.440
 9335TIP3    H127948   4.858   8.051   3.503
 9335TIP3    H227949   4.900   8.179   3.437
 9336TIP3   OH227950   5.749   8.524   2.762
 9336TIP3    H127951   5.746   8.454   2.830
 9336TIP3    H227952   5.798   8.594   2.809
 9337TIP3   OH227953   4.853   8.466   3.240
 9337TIP3    H127954   4.822   8.380   3.206
 9337TIP3    H227955   4.938   8.478   3.191
 9338TIP3   OH227956   4.506   7.728   2.945
 9338TIP3    H127957   4.461   7.812   2.963
 9338TIP3    H227958   4.433   7.679   2.902
 9339TIP3   OH227959   4.560   8.018   3.123
 9339TIP3    H127960   4.611   7.941   3.157
 9339TIP3    H227961   4.631   8.074   3.087
 9340TIP3   OH227962   5.343   8.439   3.114
 9340TIP3    H127963   5.391   8.363   3.077
 9340TIP3    H227964   5.419   8.492   3.144
 9341TIP3   OH227965   6.342   7.770   3.121
 9341TIP3    H127966   6.370   7.854   3.164
 9341TIP3    H227967   6.357   7.792   3.027
 9342TIP3   OH227968   5.742   7.950   3.152
 9342TIP3    H127969   5.781   7.863   3.172
 9342TIP3    H227970   5.707   7.934   3.062
 9343TIP3   OH227971   5.080   7.610   3.116
 9343TIP3    H127972   5.058   7.683   3.055
 9343TIP3    H227973   5.030   7.536   3.075
 9344TIP3   OH227974   5.773   7.701   2.740
 9344TIP3    H127975   5.845   7.686   2.806
 9344TIP3    H227976   5.825   7.737   2.666
 9345TIP3   OH227977   4.708   7.811   3.228
 9345TIP3    H127978   4.792   7.792   3.275
 9345TIP3    H227979   4.722   7.757   3.147
 9346TIP3   OH227980   5.150   8.010   3.019
 9346TIP3    H127981   5.243   7.985   3.034
 9346TIP3    H227982   5.110   7.925   2.989
 9347TIP3   OH227983   6.414   7.980   3.289
 9347TIP3    H127984   6.329   8.025   3.271
 9347TIP3    H227985   6.431   8.010   3.380
 9348TIP3   OH227986   5.074   7.593   3.552
 9348TIP3    H127987   5.014   7.630   3.485
 9348TIP3    H227988   5.022   7.611   3.634
 9349TIP3   OH227989   5.416   8.409   2.556
 9349TIP3    H127990   5.361   8.410   2.476
 9349TIP3    H227991   5.434   8.503   2.571
 9350TIP3   OH227992   5.175   8.374   3.346
 9350TIP3    H127993   5.112   8.439   3.381
 9350TIP3    H227994   5.210   8.421   3.268
 9351TIP3   OH227995   5.980   7.705   2.918
 9351TIP3    H127996   5.956   7.665   3.003
 9351TIP3    H227997   6.030   7.784   2.946
 9352TIP3   OH227998   4.945   7.708   3.336
 9352TIP3    H127999   5.006   7.782   3.359
 9352TIP3    H228000   4.996   7.668   3.261
 9353TIP3   OH228001   5.007   8.584   3.453
 9353TIP3    H128002   4.961   8.583   3.367
 9353TIP3    H228003   4.929   8.580   3.512
 9354TIP3   OH228004   4.397   8.218   2.688
 9354TIP3    H128005   4.364   8.226   2.595
 9354TIP3    H228006   4.411   8.313   2.706
 9355TIP3   OH228007   6.134   7.668   3.285
 9355TIP3    H128008   6.046   7.696   3.256
 9355TIP3    H228009   6.192   7.701   3.214
 9356TIP3   OH228010   5.428   7.310   3.271
 9356TIP3    H128011   5.412   7.216   3.288
 9356TIP3    H228012   5.350   7.350   3.316
 9357TIP3   OH228013   5.777   8.539   2.482
 9357TIP3    H128014   5.738   8.460   2.441
 9357TIP3    H228015   5.783   8.514   2.576
 9358TIP3   OH228016   6.060   8.679   3.269
 9358TIP3    H128017   6.049   8.602   3.210
 9358TIP3    H228018   6.087   8.749   3.206
 9359TIP3   OH228019   5.360   8.068   2.529
 9359TIP3    H128020   5.278   8.120   2.514
 9359TIP3    H228021   5.402   8.072   2.441
 9360TIP3   OH228022   5.317   7.862   2.238
 9360TIP3    H128023   5.384   7.912   2.288
 9360TIP3    H228024   5.374   7.798   2.191
 9361TIP3   OH228025   6.263   8.318   3.110
 9361TIP3    H128026   6.179   8.368   3.119
 9361TIP3    H228027   6.290   8.346   3.020
 9362TIP3   OH228028   5.708   8.150   2.499
 9362TIP3    H128029   5.652   8.172   2.577
 9362TIP3    H228030   5.792   8.126   2.545
 9363TIP3   OH228031   5.941   8.196   3.409
 9363TIP3    H128032   5.940   8.280   3.458
 9363TIP3    H228033   5.853   8.201   3.365
 9364TIP3   OH228034   4.945   8.154   2.903
 9364TIP3    H128035   4.903   8.093   2.837
 9364TIP3    H228036   5.020   8.101   2.935
 9365TIP3   OH228037   5.077   8.518   3.106
 9365TIP3    H128038   5.040   8.519   3.016
 9365TIP3    H228039   5.173   8.520   3.090
 9366TIP3   OH228040   5.071   8.131   3.263
 9366TIP3    H128041   5.107   8.109   3.174
 9366TIP3    H228042   5.114   8.217   3.283
 9367TIP3   OH228043   5.254   8.586   3.589
 9367TIP3    H128044   5.222   8.676   3.611
 9367TIP3    H228045   5.177   8.556   3.537
 9368TIP3   OH228046   5.546   8.013   2.323
 9368TIP3    H128047   5.604   8.074   2.373
 9368TIP3    H228048   5.574   8.031   2.230
 9369TIP3   OH228049   4.973   8.239   3.692
 9369TIP3    H128050   4.977   8.327   3.733
 9369TIP3    H228051   4.877   8.220   3.702
 9370TIP3   OH228052   6.062   7.256   2.371
 9370TIP3    H128053   5.980   7.275   2.420
 9370TIP3    H228054   6.075   7.339   2.321
 9371TIP3   OH228055   4.810   7.995   2.711
 9371TIP3    H128056   4.742   8.041   2.657
 9371TIP3    H228057   4.764   7.914   2.734
 9372TIP3   OH228058   4.601   8.383   3.626
 9372TIP3    H128059   4.530   8.362   3.563
 9372TIP3    H228060   4.634   8.295   3.653
 9373TIP3   OH228061   6.198   8.158   3.587
 9373TIP3    H128062   6.113   8.175   3.544
 9373TIP3    H228063   6.209   8.062   3.573
 9374TIP3   OH228064   4.794   8.583   3.624
 9374TIP3    H128065   4.845   8.547   3.699
 9374TIP3    H228066   4.720   8.519   3.619
 9375TIP3   OH228067   5.189   7.389   3.397
 9375TIP3    H128068   5.100   7.358   3.370
 9375TIP3    H228069   5.163   7.469   3.446
 9376TIP3   OH228070   5.723   7.502   3.592
 9376TIP3    H128071   5.791   7.476   3.657
 9376TIP3    H228072   5.639   7.484   3.639
 9377TIP3   OH228073   5.965   7.936   3.513
 9377TIP3    H128074   5.912   7.931   3.596
 9377TIP3    H228075   5.939   8.022   3.476
 9378TIP3   OH228076   5.624   8.041   2.065
 9378TIP3    H128077   5.593   8.023   1.975
 9378TIP3    H228078   5.672   8.125   2.050
 9379TIP3   OH228079   5.336   7.436   2.368
 9379TIP3    H128080   5.301   7.434   2.460
 9379TIP3    H228081   5.296   7.353   2.335
 9380TIP3   OH228082   5.121   7.907   3.412
 9380TIP3    H128083   5.072   7.926   3.495
 9380TIP3    H228084   5.103   7.989   3.361
 9381TIP3   OH228085   5.005   7.790   2.929
 9381TIP3    H128086   4.912   7.765   2.948
 9381TIP3    H228087   5.016   7.749   2.840
 9382TIP3   OH228088   5.498   7.873   2.660
 9382TIP3    H128089   5.444   7.942   2.616
 9382TIP3    H228090   5.552   7.840   2.585
 9383TIP3   OH228091   5.673   8.148   3.737
 9383TIP3    H128092   5.649   8.079   3.803
 9383TIP3    H228093   5.765   8.168   3.764
 9384TIP3   OH228094   5.654   7.903   2.896
 9384TIP3    H128095   5.591   7.933   2.827
 9384TIP3    H228096   5.686   7.822   2.850
 9385TIP3   OH228097   4.943   7.932   3.624
 9385TIP3    H128098   4.970   7.997   3.690
 9385TIP3    H228099   4.932   7.851   3.677
 9386TIP3   OH228100   4.991   7.412   2.334
 9386TIP3    H128101   4.981   7.409   2.431
 9386TIP3    H228102   4.914   7.466   2.309
 9387TIP3   OH228103   4.534   7.453   3.207
 9387TIP3    H128104   4.610   7.486   3.260
 9387TIP3    H228105   4.575   7.423   3.124
 9388TIP3   OH228106   4.501   7.436   2.722
 9388TIP3    H128107   4.547   7.474   2.644
 9388TIP3    H228108   4.442   7.511   2.745
 9389TIP3   OH228109   5.665   8.149   3.316
 9389TIP3    H128110   5.698   8.077   3.258
 9389TIP3    H228111   5.633   8.096   3.392
 9390TIP3   OH228112   5.337   7.610   2.990
 9390TIP3    H128113   5.254   7.609   3.041
 9390TIP3    H228114   5.404   7.609   3.060
 9391TIP3   OH228115   4.767   7.670   2.998
 9391TIP3    H128116   4.673   7.678   2.971
 9391TIP3    H228117   4.790   7.578   2.975
 9392TIP3   OH228118   5.034   7.662   2.689
 9392TIP3    H128119   5.127   7.679   2.666
 9392TIP3    H228120   4.985   7.686   2.606
 9393TIP3   OH228121   5.825   7.686   3.189
 9393TIP3    H128122   5.796   7.700   3.282
 9393TIP3    H228123   5.755   7.627   3.158
 9394TIP3   OH228124   4.881   7.697   2.465
 9394TIP3    H128125   4.810   7.653   2.416
 9394TIP3    H228126   4.934   7.735   2.392
 9395TIP3   OH228127   4.954   8.482   3.832
 9395TIP3    H128128   5.032   8.512   3.883
 9395TIP3    H228129   4.887   8.476   3.903
 9396TIP3   OH228130   5.415   7.942   3.089
 9396TIP3    H128131   5.488   7.900   3.042
 9396TIP3    H228132   5.419   7.900   3.177
 9397TIP3   OH228133   4.935   7.426   2.972
 9397TIP3    H128134   4.899   7.348   3.020
 9397TIP3    H228135   4.982   7.383   2.899
 9398TIP3   OH228136   5.391   7.842   3.374
 9398TIP3    H128137   5.301   7.876   3.390
 9398TIP3    H228138   5.447   7.903   3.427
 9399TIP3   OH228139   5.131   8.214   2.481
 9399TIP3    H128140   5.053   8.156   2.467
 9399TIP3    H228141   5.106   8.259   2.565
 9400TIP3   OH228142   6.029   8.456   3.104
 9400TIP3    H128143   6.055   8.508   3.024
 9400TIP3    H228144   5.942   8.420   3.077
 9401TIP3   OH228145   5.585   7.540   2.335
 9401TIP3    H128146   5.489   7.520   2.346
 9401TIP3    H228147   5.592   7.634   2.363
 9402TIP3   OH228148   5.538   8.567   3.469
 9402TIP3    H128149   5.569   8.522   3.549
 9402TIP3    H228150   5.457   8.609   3.502
 9403TIP3   OH228151   5.655   7.787   2.441
 9403TIP3    H128152   5.751   7.795   2.456
 9403TIP3    H228153   5.634   7.868   2.390
 9404TIP3   OH228154   4.800   8.204   3.135
 9404TIP3    H128155   4.854   8.197   3.053
 9404TIP3    H228156   4.860   8.165   3.202
 9405TIP3   OH228157   5.238   8.397   2.310
 9405TIP3    H128158   5.200   8.470   2.364
 9405TIP3    H228159   5.202   8.320   2.360
 9406TIP3   OH228160   4.715   8.163   3.758
 9406TIP3    H128161   4.733   8.158   3.854
 9406TIP3    H228162   4.639   8.103   3.746
 9407TIP3   OH228163   5.433   8.273   3.788
 9407TIP3    H128164   5.369   8.225   3.733
 9407TIP3    H228165   5.518   8.241   3.752
 9408TIP3   OH228166   6.098   7.880   2.271
 9408TIP3    H128167   6.037   7.834   2.209
 9408TIP3    H228168   6.089   7.970   2.233
 9409TIP3   OH228169   6.319   8.711   3.359
 9409TIP3    H128170   6.224   8.729   3.348
 9409TIP3    H228171   6.346   8.703   3.265
 9410TIP3   OH228172   5.792   8.332   3.004
 9410TIP3    H128173   5.701   8.307   3.028
 9410TIP3    H228174   5.826   8.248   2.968
 9411TIP3   OH228175   4.488   7.858   2.480
 9411TIP3    H128176   4.533   7.943   2.499
 9411TIP3    H228177   4.409   7.865   2.539
 9412TIP3   OH228178   5.056   8.334   2.720
 9412TIP3    H128179   5.012   8.413   2.756
 9412TIP3    H228180   5.029   8.270   2.788
 9413TIP3   OH228181   5.585   8.529   3.200
 9413TIP3    H128182   5.571   8.544   3.296
 9413TIP3    H228183   5.673   8.490   3.199
 9414TIP3   OH228184   5.586   8.353   2.055
 9414TIP3    H128185   5.619   8.350   2.148
 9414TIP3    H228186   5.506   8.408   2.066
 9415TIP3   OH228187   4.919   7.675   3.767
 9415TIP3    H128188   4.821   7.680   3.778
 9415TIP3    H228189   4.943   7.618   3.842
 9416TIP3   OH228190   5.712   8.334   2.300
 9416TIP3    H128191   5.708   8.265   2.370
 9416TIP3    H228192   5.809   8.339   2.284
 9417TIP3   OH228193   4.908   8.359   2.128
 9417TIP3    H128194   4.944   8.271   2.106
 9417TIP3    H228195   4.929   8.368   2.221
 9418TIP3   OH228196   4.607   8.100   2.557
 9418TIP3    H128197   4.538   8.136   2.616
 9418TIP3    H228198   4.613   8.173   2.492
 9419TIP3   OH228199   5.757   7.736   3.449
 9419TIP3    H128200   5.832   7.777   3.496
 9419TIP3    H228201   5.739   7.657   3.504
 9420TIP3   OH228202   5.635   7.488   2.619
 9420TIP3    H128203   5.618   7.512   2.526
 9420TIP3    H228204   5.673   7.571   2.655
 9421TIP3   OH228205   5.319   7.671   2.720
 9421TIP3    H128206   5.383   7.744   2.704
 9421TIP3    H228207   5.323   7.664   2.818
 9422TIP3   OH228208   5.589   7.988   3.524
 9422TIP3    H128209   5.611   8.044   3.601
 9422TIP3    H228210   5.642   7.909   3.541
 9423TIP3   OH228211   5.462   7.396   2.822
 9423TIP3    H128212   5.449   7.475   2.877
 9423TIP3    H228213   5.524   7.430   2.754
 9424TIP3   OH228214   4.975   7.397   2.610
 9424TIP3    H128215   4.972   7.487   2.648
 9424TIP3    H228216   5.071   7.379   2.618
 9425TIP3   OH228217   6.230   7.887   3.509
 9425TIP3    H128218   6.132   7.889   3.518
 9425TIP3    H228219   6.237   7.845   3.422
 9426TIP3   OH228220   5.880   8.083   2.895
 9426TIP3    H128221   5.802   8.026   2.909
 9426TIP3    H228222   5.949   8.035   2.946
 9427TIP3   OH228223   4.601   8.316   2.372
 9427TIP3    H128224   4.626   8.410   2.359
 9427TIP3    H228225   4.654   8.271   2.303
 9428TIP3   OH228226   4.535   7.588   2.496
 9428TIP3    H128227   4.540   7.686   2.496
 9428TIP3    H228228   4.446   7.573   2.461
 9429TIP3   OH228229   4.924   7.308   3.369
 9429TIP3    H128230   4.893   7.273   3.283
 9429TIP3    H228231   4.914   7.230   3.428
 9430TIP3   OH228232   4.755   8.458   4.016
 9430TIP3    H128233   4.761   8.361   4.028
 9430TIP3    H228234   4.657   8.465   4.002
 9431TIP3   OH228235   4.725   8.118   2.222
 9431TIP3    H128236   4.774   8.084   2.299
 9431TIP3    H228237   4.797   8.120   2.155
 9432TIP3   OH228238   5.376   8.539   3.827
 9432TIP3    H128239   5.340   8.553   3.736
 9432TIP3    H228240   5.410   8.447   3.817
 9433TIP3   OH228241   5.186   8.298   2.032
 9433TIP3    H128242   5.210   8.317   2.124
 9433TIP3    H228243   5.212   8.205   2.022
 9434TIP3   OH228244   5.847   8.561   3.401
 9434TIP3    H128245   5.916   8.618   3.360
 9434TIP3    H228246   5.772   8.622   3.402
 9435TIP3   OH228247   4.850   8.185   4.014
 9435TIP3    H128248   4.934   8.146   3.987
 9435TIP3    H228249   4.877   8.228   4.098
 9436TIP3   OH228250   4.927   8.029   2.436
 9436TIP3    H128251   4.901   7.989   2.520
 9436TIP3    H228252   4.967   7.953   2.388
 9437TIP3   OH228253   5.205   8.092   3.666
 9437TIP3    H128254   5.128   8.153   3.671
 9437TIP3    H228255   5.254   8.129   3.588
 9438TIP3   OH228256   5.039   7.824   2.281
 9438TIP3    H128257   5.013   7.825   2.187
 9438TIP3    H228258   5.136   7.831   2.273
 9439TIP3   OH228259   5.724   8.484   3.799
 9439TIP3    H128260   5.809   8.468   3.757
 9439TIP3    H228261   5.725   8.422   3.874
 9440TIP3   OH228262   5.866   8.162   1.936
 9440TIP3    H128263   5.834   8.112   1.859
 9440TIP3    H228264   5.842   8.253   1.908
 9441TIP3   OH228265   5.331   7.884   3.791
 9441TIP3    H128266   5.329   7.805   3.734
 9441TIP3    H228267   5.286   7.951   3.735
 9442TIP3   OH228268   5.333   7.670   3.599
 9442TIP3    H128269   5.359   7.711   3.515
 9442TIP3    H228270   5.239   7.646   3.582
 9443TIP3   OH228271   5.354   8.209   3.473
 9443TIP3    H128272   5.437   8.221   3.426
 9443TIP3    H228273   5.296   8.276   3.431
 9444TIP3   OH228274   5.938   8.174   3.853
 9444TIP3    H128275   5.992   8.094   3.862
 9444TIP3    H228276   6.003   8.239   3.822
 9445TIP3   OH228277   5.980   8.419   3.588
 9445TIP3    H128278   5.922   8.474   3.530
 9445TIP3    H228279   6.068   8.443   3.549
 9446TIP3   OH228280   5.209   7.989   4.026
 9446TIP3    H128281   5.137   7.923   4.040
 9446TIP3    H228282   5.241   7.965   3.937
 9447TIP3   OH228283   5.463   7.432   3.669
 9447TIP3    H128284   5.414   7.514   3.646
 9447TIP3    H228285   5.393   7.364   3.658
 9448TIP3   OH228286   5.591   7.934   3.884
 9448TIP3    H128287   5.574   7.922   3.980
 9448TIP3    H228288   5.501   7.912   3.850
 9449TIP3   OH228289   5.827   7.881   3.739
 9449TIP3    H128290   5.750   7.887   3.799
 9449TIP3    H228291   5.899   7.853   3.799
 9450TIP3   OH228292   6.067   7.830   3.889
 9450TIP3    H128293   6.073   7.733   3.906
 9450TIP3    H228294   6.055   7.867   3.979
 9451TIP3   OH228295   5.038   7.775   4.080
 9451TIP3    H128296   5.043   7.683   4.047
 9451TIP3    H228297   5.076   7.764   4.169
 9452TIP3   OH228298   5.558   7.443   3.927
 9452TIP3    H128299   5.623   7.370   3.921
 9452TIP3    H228300   5.517   7.438   3.838
 9453TIP3   OH228301   5.624   7.657   4.085
 9453TIP3    H128302   5.601   7.586   4.021
 9453TIP3    H228303   5.546   7.716   4.079
 9454TIP3   OH228304   4.342   8.221   2.419
 9454TIP3    H128305   4.422   8.263   2.381
 9454TIP3    H228306   4.322   8.151   2.353
 9455TIP3   OH228307   6.210   8.843   3.638
 9455TIP3    H128308   6.134   8.828   3.698
 9455TIP3    H228309   6.239   8.931   3.665
 9456TIP3   OH228310   5.987   8.329   2.283
 9456TIP3    H128311   6.055   8.393   2.251
 9456TIP3    H228312   6.034   8.293   2.361
 9457TIP3   OH228313   6.125   8.203   2.484
 9457TIP3    H128314   6.058   8.163   2.543
 9457TIP3    H228315   6.187   8.246   2.546
 9458TIP3   OH228316   6.158   8.594   2.910
 9458TIP3    H128317   6.224   8.541   2.861
 9458TIP3    H228318   6.158   8.679   2.864
 9459TIP3   OH228319   6.054   8.113   2.126
 9459TIP3    H128320   5.984   8.122   2.057
 9459TIP3    H228321   6.029   8.190   2.182
 9460TIP3   OH228322   5.938   7.785   2.075
 9460TIP3    H128323   5.880   7.829   2.011
 9460TIP3    H228324   5.911   7.691   2.064
 9461TIP3   OH228325   5.937   8.064   2.628
 9461TIP3    H128326   5.943   7.967   2.622
 9461TIP3    H228327   5.921   8.077   2.725
 9462TIP3   OH228328   4.560   8.136   3.379
 9462TIP3    H128329   4.557   8.105   3.287
 9462TIP3    H228330   4.658   8.139   3.393
 9463TIP3   OH228331   6.222   8.484   3.485
 9463TIP3    H128332   6.299   8.424   3.475
 9463TIP3    H228333   6.249   8.561   3.431
 9464TIP3   OH228334   6.415   8.292   3.493
 9464TIP3    H128335   6.339   8.248   3.536
 9464TIP3    H228336   6.485   8.227   3.511
 9465TIP3   OH228337   5.875   7.519   2.060
 9465TIP3    H128338   5.944   7.489   2.122
 9465TIP3    H228339   5.797   7.466   2.084
 9466TIP3   OH228340   5.933   7.782   2.520
 9466TIP3    H128341   5.973   7.694   2.534
 9466TIP3    H228342   5.990   7.815   2.449
 9467TIP3   OH228343   6.092   7.950   3.017
 9467TIP3    H128344   6.178   7.976   2.977
 9467TIP3    H228345   6.104   7.990   3.106
 9468TIP3   OH228346   6.162   8.098   3.247
 9468TIP3    H128347   6.085   8.131   3.298
 9468TIP3    H228348   6.193   8.180   3.203
 9469TIP3   OH228349   4.766   7.817   4.032
 9469TIP3    H128350   4.863   7.824   4.041
 9469TIP3    H228351   4.749   7.736   4.083
 9470TIP3   OH228352   6.597   7.670   3.812
 9470TIP3    H128353   6.665   7.619   3.764
 9470TIP3    H228354   6.582   7.746   3.752
 9471TIP3   OH228355   6.042   7.532   2.557
 9471TIP3    H128356   6.088   7.515   2.642
 9471TIP3    H228357   5.980   7.456   2.555
 9472TIP3   OH228358   4.740   7.517   3.383
 9472TIP3    H128359   4.802   7.442   3.389
 9472TIP3    H228360   4.803   7.592   3.373
 9473TIP3   OH228361   4.542   7.792   3.454
 9473TIP3    H128362   4.591   7.784   3.370
 9473TIP3    H228363   4.568   7.881   3.482
 9474TIP3   OH228364   6.483   7.828   3.615
 9474TIP3    H128365   6.394   7.870   3.623
 9474TIP3    H228366   6.459   7.753   3.558
 9475TIP3   OH228367   6.120   7.464   2.194
 9475TIP3    H128368   6.159   7.394   2.138
 9475TIP3    H228369   6.186   7.536   2.187
 9476TIP3   OH228370   4.528   7.296   2.953
 9476TIP3    H128371   4.435   7.290   2.981
 9476TIP3    H228372   4.522   7.355   2.874
 9477TIP3   OH228373   4.747   7.373   3.767
 9477TIP3    H128374   4.695   7.368   3.849
 9477TIP3    H228375   4.681   7.410   3.706
 9478TIP3   OH228376   6.384   7.590   3.488
 9478TIP3    H128377   6.294   7.583   3.452
 9478TIP3    H228378   6.416   7.498   3.476
 9479TIP3   OH228379   5.591   7.508   3.112
 9479TIP3    H128380   5.545   7.438   3.163
 9479TIP3    H228381   5.661   7.458   3.066
 9480TIP3   OH228382   6.110   7.386   3.009
 9480TIP3    H128383   6.145   7.440   2.936
 9480TIP3    H228384   6.014   7.407   3.006
 9481TIP3   OH228385   6.206   7.486   2.774
 9481TIP3    H128386   6.281   7.436   2.736
 9481TIP3    H228387   6.238   7.578   2.761
 9482TIP3   OH228388   4.834   7.212   3.123
 9482TIP3    H128389   4.742   7.179   3.123
 9482TIP3    H228390   4.883   7.128   3.119
 9483TIP3   OH228391   4.607   7.089   2.772
 9483TIP3    H128392   4.649   7.143   2.704
 9483TIP3    H228393   4.591   7.155   2.843
 9484TIP3   OH228394   5.283   7.247   3.003
 9484TIP3    H128395   5.341   7.297   2.943
 9484TIP3    H228396   5.303   7.285   3.089
 9485TIP3   OH228397   5.828   7.395   2.987
 9485TIP3    H128398   5.820   7.358   2.898
 9485TIP3    H228399   5.816   7.315   3.043
 9486TIP3   OH228400   5.858   7.320   2.551
 9486TIP3    H128401   5.772   7.364   2.566
 9486TIP3    H228402   5.842   7.233   2.595
 9487TIP3   OH228403   4.743   7.249   2.528
 9487TIP3    H128404   4.794   7.183   2.478
 9487TIP3    H228405   4.814   7.302   2.568
 9488TIP3   OH228406   5.252   7.422   2.632
 9488TIP3    H128407   5.310   7.373   2.693
 9488TIP3    H228408   5.273   7.514   2.658
 9489TIP3   OH228409   5.043   7.497   4.015
 9489TIP3    H128410   5.010   7.426   4.072
 9489TIP3    H228411   5.138   7.498   4.042
 9490TIP3   OH228412   5.294   7.494   4.133
 9490TIP3    H128413   5.379   7.466   4.096
 9490TIP3    H228414   5.279   7.425   4.201
 9491TIP3   OH228415   6.118   7.557   3.921
 9491TIP3    H128416   6.138   7.526   4.011
 9491TIP3    H228417   6.206   7.551   3.877
 9492TIP3   OH228418   6.614   8.363   2.915
 9492TIP3    H128419   6.670   8.332   2.988
 9492TIP3    H228420   6.681   8.403   2.855
 9493TIP3   OH228421   6.299   7.989   2.430
 9493TIP3    H128422   6.249   8.071   2.450
 9493TIP3    H228423   6.228   7.937   2.388
 9494TIP3   OH228424   6.363   8.279   2.611
 9494TIP3    H128425   6.411   8.201   2.647
 9494TIP3    H228426   6.424   8.309   2.542
 9495TIP3   OH228427   6.835   7.867   2.611
 9495TIP3    H128428   6.812   7.934   2.544
 9495TIP3    H228429   6.795   7.788   2.568
 9496TIP3   OH228430   6.503   8.069   2.716
 9496TIP3    H128431   6.585   8.053   2.766
 9496TIP3    H228432   6.516   8.009   2.640
 9497TIP3   OH228433   6.857   7.842   3.048
 9497TIP3    H128434   6.801   7.884   2.980
 9497TIP3    H228435   6.802   7.860   3.128
 9498TIP3   OH228436   6.734   7.971   2.839
 9498TIP3    H128437   6.800   8.041   2.856
 9498TIP3    H228438   6.774   7.929   2.759
 9499TIP3   OH228439   6.201   8.477   2.193
 9499TIP3    H128440   6.176   8.510   2.105
 9499TIP3    H228441   6.239   8.558   2.229
 9500TIP3   OH228442   7.199   7.560   2.749
 9500TIP3    H128443   7.208   7.472   2.790
 9500TIP3    H228444   7.127   7.599   2.804
 9501TIP3   OH228445   6.743   8.506   3.164
 9501TIP3    H128446   6.729   8.589   3.211
 9501TIP3    H228447   6.655   8.465   3.181
 9502TIP3   OH228448   6.593   8.224   2.164
 9502TIP3    H128449   6.587   8.319   2.178
 9502TIP3    H228450   6.519   8.190   2.215
 9503TIP3   OH228451   6.394   8.631   3.111
 9503TIP3    H128452   6.322   8.619   3.048
 9503TIP3    H228453   6.424   8.540   3.130
 9504TIP3   OH228454   6.977   7.649   2.888
 9504TIP3    H128455   6.889   7.616   2.859
 9504TIP3    H228456   6.947   7.726   2.940
 9505TIP3   OH228457   7.497   7.715   3.106
 9505TIP3    H128458   7.529   7.754   3.188
 9505TIP3    H228459   7.400   7.709   3.124
 9506TIP3   OH228460   6.926   8.154   2.912
 9506TIP3    H128461   6.867   8.189   2.982
 9506TIP3    H228462   6.927   8.226   2.846
 9507TIP3   OH228463   6.777   8.030   2.389
 9507TIP3    H128464   6.690   8.001   2.423
 9507TIP3    H228465   6.749   8.085   2.315
 9508TIP3   OH228466   6.764   8.201   3.130
 9508TIP3    H128467   6.725   8.262   3.194
 9508TIP3    H228468   6.734   8.115   3.166
 9509TIP3   OH228469   6.785   7.619   1.823
 9509TIP3    H128470   6.766   7.630   1.918
 9509TIP3    H228471   6.717   7.677   1.784
 9510TIP3   OH228472   6.329   7.711   2.690
 9510TIP3    H128473   6.404   7.742   2.745
 9510TIP3    H228474   6.371   7.678   2.610
 9511TIP3   OH228475   6.299   7.693   2.208
 9511TIP3    H128476   6.343   7.730   2.129
 9511TIP3    H228477   6.238   7.766   2.230
 9512TIP3   OH228478   7.087   7.794   2.538
 9512TIP3    H128479   7.001   7.810   2.582
 9512TIP3    H228480   7.143   7.858   2.585
 9513TIP3   OH228481   6.552   7.917   2.490
 9513TIP3    H128482   6.458   7.932   2.464
 9513TIP3    H228483   6.566   7.824   2.465
 9514TIP3   OH228484   6.636   7.927   1.989
 9514TIP3    H128485   6.564   7.891   1.934
 9514TIP3    H228486   6.634   8.021   1.968
 9515TIP3   OH228487   6.732   7.675   2.451
 9515TIP3    H128488   6.695   7.599   2.501
 9515TIP3    H228489   6.784   7.631   2.384
 9516TIP3   OH228490   6.502   8.398   3.245
 9516TIP3    H128491   6.502   8.390   3.342
 9516TIP3    H228492   6.418   8.354   3.223
 9517TIP3   OH228493   6.277   8.110   1.970
 9517TIP3    H128494   6.305   8.202   1.977
 9517TIP3    H228495   6.196   8.111   2.026
 9518TIP3   OH228496   6.705   7.932   3.258
 9518TIP3    H128497   6.609   7.938   3.271
 9518TIP3    H228498   6.732   7.877   3.334
 9519TIP3   OH228499   6.738   7.651   2.093
 9519TIP3    H128500   6.719   7.745   2.108
 9519TIP3    H228501   6.833   7.645   2.119
 9520TIP3   OH228502   6.326   7.841   1.974
 9520TIP3    H128503   6.322   7.938   1.982
 9520TIP3    H228504   6.235   7.819   1.950
 9521TIP3   OH228505   6.719   7.563   2.856
 9521TIP3    H128506   6.687   7.528   2.770
 9521TIP3    H228507   6.709   7.485   2.914
 9522TIP3   OH228508   6.565   8.715   3.477
 9522TIP3    H128509   6.591   8.621   3.477
 9522TIP3    H228510   6.473   8.710   3.445
 9523TIP3   OH228511   6.685   8.460   3.488
 9523TIP3    H128512   6.751   8.390   3.488
 9523TIP3    H228513   6.695   8.495   3.580
 9524TIP3   OH228514   7.121   8.182   3.235
 9524TIP3    H128515   7.157   8.094   3.254
 9524TIP3    H228516   7.033   8.162   3.200
 9525TIP3   OH228517   7.107   7.936   3.060
 9525TIP3    H128518   7.079   8.006   2.999
 9525TIP3    H228519   7.020   7.893   3.075
 9526TIP3   OH228520   6.968   8.262   3.484
 9526TIP3    H128521   6.928   8.178   3.516
 9526TIP3    H228522   7.034   8.231   3.421
 9527TIP3   OH228523   7.230   7.692   3.162
 9527TIP3    H128524   7.178   7.768   3.133
 9527TIP3    H228525   7.167   7.618   3.150
 9528TIP3   OH228526   6.846   8.026   3.563
 9528TIP3    H128527   6.849   7.932   3.535
 9528TIP3    H228528   6.880   8.018   3.655
 9529TIP3   OH228529   7.353   7.693   3.409
 9529TIP3    H128530   7.425   7.627   3.400
 9529TIP3    H228531   7.304   7.681   3.325
 9530TIP3   OH228532   7.411   7.899   3.579
 9530TIP3    H128533   7.395   7.833   3.510
 9530TIP3    H228534   7.339   7.963   3.565
 9531TIP3   OH228535   6.107   8.478   1.880
 9531TIP3    H128536   6.180   8.533   1.850
 9531TIP3    H228537   6.110   8.402   1.818
 9532TIP3   OH228538   6.352   8.398   2.861
 9532TIP3    H128539   6.350   8.362   2.769
 9532TIP3    H228540   6.449   8.394   2.879
 9533TIP3   OH228541   6.577   8.076   3.531
 9533TIP3    H128542   6.675   8.074   3.539
 9533TIP3    H228543   6.554   7.993   3.577
 9534TIP3   OH228544   6.536   7.772   2.860
 9534TIP3    H128545   6.600   7.698   2.872
 9534TIP3    H228546   6.596   7.849   2.863
 9535TIP3   OH228547   6.338   8.045   2.941
 9535TIP3    H128548   6.387   8.045   2.856
 9535TIP3    H228549   6.359   8.133   2.976
 9536TIP3   OH228550   6.324   7.550   2.438
 9536TIP3    H128551   6.231   7.545   2.467
 9536TIP3    H228552   6.317   7.609   2.359
 9537TIP3   OH228553   6.542   7.630   3.253
 9537TIP3    H128554   6.491   7.625   3.336
 9537TIP3    H228555   6.475   7.670   3.193
 9538TIP3   OH228556   6.633   7.470   2.607
 9538TIP3    H128557   6.541   7.437   2.611
 9538TIP3    H228558   6.682   7.385   2.605
 9539TIP3   OH228559   6.426   7.343   2.260
 9539TIP3    H128560   6.449   7.399   2.184
 9539TIP3    H228561   6.394   7.409   2.325
 9540TIP3   OH228562   7.071   7.511   2.504
 9540TIP3    H128563   7.081   7.605   2.484
 9540TIP3    H228564   7.106   7.511   2.595
 9541TIP3   OH228565   6.525   7.492   2.018
 9541TIP3    H128566   6.576   7.433   1.960
 9541TIP3    H228567   6.596   7.549   2.054
 9542TIP3   OH228568   7.004   7.670   2.151
 9542TIP3    H128569   7.088   7.653   2.198
 9542TIP3    H228570   7.026   7.754   2.109
 9543TIP3   OH228571   6.839   7.752   3.499
 9543TIP3    H128572   6.803   7.684   3.558
 9543TIP3    H228573   6.934   7.751   3.527
 9544TIP3   OH228574   7.088   7.744   3.615
 9544TIP3    H128575   7.179   7.731   3.583
 9544TIP3    H228576   7.082   7.675   3.684
 9545TIP3   OH228577   2.272   0.946   7.518
 9545TIP3    H128578   2.269   0.873   7.581
 9545TIP3    H228579   2.304   1.019   7.571
 9546TIP3   OH228580   1.924   1.393   7.537
 9546TIP3    H128581   1.989   1.336   7.489
 9546TIP3    H228582   1.936   1.361   7.627
 9547TIP3   OH228583   1.960   0.885   7.322
 9547TIP3    H128584   1.890   0.835   7.277
 9547TIP3    H228585   1.924   0.976   7.319
 9548TIP3   OH228586   2.091   1.237   7.398
 9548TIP3    H128587   2.125   1.153   7.360
 9548TIP3    H228588   2.133   1.301   7.337
 9549TIP3   OH228589   2.203   1.021   7.263
 9549TIP3    H128590   2.147   0.947   7.235
 9549TIP3    H228591   2.235   0.986   7.349
 9550TIP3   OH228592   2.207   0.598   7.273
 9550TIP3    H128593   2.148   0.589   7.349
 9550TIP3    H228594   2.288   0.553   7.303
 9551TIP3   OH228595   1.833   1.157   7.303
 9551TIP3    H128596   1.875   1.201   7.378
 9551TIP3    H228597   1.739   1.166   7.322
 9552TIP3   OH228598   2.370   1.038   6.684
 9552TIP3    H128599   2.372   1.136   6.672
 9552TIP3    H228600   2.462   1.016   6.662
 9553TIP3   OH228601   1.656   1.360   7.161
 9553TIP3    H128602   1.628   1.358   7.068
 9553TIP3    H228603   1.640   1.453   7.187
 9554TIP3   OH228604   1.881   1.256   6.806
 9554TIP3    H128605   1.944   1.189   6.771
 9554TIP3    H228606   1.917   1.272   6.896
 9555TIP3   OH228607   1.921   1.310   7.077
 9555TIP3    H128608   1.836   1.307   7.126
 9555TIP3    H228609   1.977   1.262   7.139
 9556TIP3   OH228610   2.111   0.502   6.821
 9556TIP3    H128611   2.094   0.451   6.741
 9556TIP3    H228612   2.203   0.529   6.810
 9557TIP3   OH228613   1.829   0.849   6.999
 9557TIP3    H128614   1.769   0.923   7.022
 9557TIP3    H228615   1.817   0.790   7.076
 9558TIP3   OH228616   2.617   0.305   7.030
 9558TIP3    H128617   2.553   0.248   6.982
 9558TIP3    H228618   2.595   0.391   6.989
 9559TIP3   OH228619   2.315   1.112   6.956
 9559TIP3    H128620   2.279   1.047   7.018
 9559TIP3    H228621   2.318   1.063   6.872
 9560TIP3   OH228622   2.061   0.851   6.850
 9560TIP3    H128623   2.120   0.815   6.921
 9560TIP3    H228624   1.976   0.848   6.899
 9561TIP3   OH228625   2.406   1.305   6.669
 9561TIP3    H128626   2.442   1.392   6.641
 9561TIP3    H228627   2.323   1.340   6.707
 9562TIP3   OH228628   2.223   0.778   7.060
 9562TIP3    H128629   2.206   0.714   7.132
 9562TIP3    H228630   2.321   0.774   7.056
 9563TIP3   OH228631   1.641   1.038   7.058
 9563TIP3    H128632   1.584   1.046   7.135
 9563TIP3    H228633   1.654   1.131   7.033
 9564TIP3   OH228634   2.353   1.470   7.644
 9564TIP3    H128635   2.308   1.514   7.569
 9564TIP3    H228636   2.446   1.478   7.616
 9565TIP3   OH228637   1.588   1.004   6.773
 9565TIP3    H128638   1.597   0.970   6.864
 9565TIP3    H228639   1.668   0.965   6.731
 9566TIP3   OH228640   2.027   1.065   6.674
 9566TIP3    H128641   2.066   0.998   6.734
 9566TIP3    H228642   2.089   1.064   6.598
 9567TIP3   OH228643   2.363   0.569   6.711
 9567TIP3    H128644   2.350   0.526   6.624
 9567TIP3    H228645   2.327   0.658   6.690
 9568TIP3   OH228646   1.359   1.319   6.936
 9568TIP3    H128647   1.455   1.304   6.929
 9568TIP3    H228648   1.343   1.368   6.853
 9569TIP3   OH228649   2.623   1.540   7.588
 9569TIP3    H128650   2.640   1.607   7.655
 9569TIP3    H228651   2.667   1.577   7.510
 9570TIP3   OH228652   2.506   0.762   7.044
 9570TIP3    H128653   2.581   0.821   7.023
 9570TIP3    H228654   2.540   0.717   7.124
 9571TIP3   OH228655   2.623   0.629   7.247
 9571TIP3    H128656   2.560   0.588   7.309
 9571TIP3    H228657   2.692   0.666   7.305
 9572TIP3   OH228658   2.659   1.026   7.674
 9572TIP3    H128659   2.725   0.956   7.655
 9572TIP3    H228660   2.673   1.087   7.601
 9573TIP3   OH228661   2.561   0.537   6.893
 9573TIP3    H128662   2.489   0.541   6.826
 9573TIP3    H228663   2.535   0.613   6.949
 9574TIP3   OH228664   2.441   0.198   6.842
 9574TIP3    H128665   2.398   0.262   6.785
 9574TIP3    H228666   2.392   0.118   6.822
 9575TIP3   OH228667   2.439   0.483   7.399
 9575TIP3    H128668   2.462   0.390   7.386
 9575TIP3    H228669   2.444   0.493   7.495
 9576TIP3   OH228670   2.188   1.418   7.223
 9576TIP3    H128671   2.242   1.406   7.142
 9576TIP3    H228672   2.240   1.482   7.273
 9577TIP3   OH228673   1.623   1.264   6.893
 9577TIP3    H128674   1.714   1.280   6.860
 9577TIP3    H228675   1.599   1.187   6.838
 9578TIP3   OH228676   2.344   1.380   6.999
 9578TIP3    H128677   2.337   1.282   6.986
 9578TIP3    H228678   2.300   1.411   6.917
 9579TIP3   OH228679   3.829   0.895   6.949
 9579TIP3    H128680   3.801   0.986   6.928
 9579TIP3    H228681   3.755   0.846   6.909
 9580TIP3   OH228682   3.824   0.902   7.338
 9580TIP3    H128683   3.861   0.871   7.423
 9580TIP3    H228684   3.792   0.819   7.299
 9581TIP3   OH228685   3.133   0.824   7.669
 9581TIP3    H128686   3.126   0.779   7.755
 9581TIP3    H228687   3.225   0.807   7.641
 9582TIP3   OH228688   4.073   1.200   7.014
 9582TIP3    H128689   4.065   1.130   7.080
 9582TIP3    H228690   4.108   1.274   7.067
 9583TIP3   OH228691   3.108   1.209   7.421
 9583TIP3    H128692   3.093   1.110   7.417
 9583TIP3    H228693   3.203   1.211   7.400
 9584TIP3   OH228694   2.794   0.413   7.219
 9584TIP3    H128695   2.743   0.495   7.222
 9584TIP3    H228696   2.736   0.358   7.162
 9585TIP3   OH228697   2.856   0.705   7.370
 9585TIP3    H128698   2.894   0.623   7.412
 9585TIP3    H228699   2.927   0.729   7.310
 9586TIP3   OH228700   3.724   1.660   7.025
 9586TIP3    H128701   3.766   1.589   6.975
 9586TIP3    H228702   3.721   1.622   7.115
 9587TIP3   OH228703   3.630   1.124   7.379
 9587TIP3    H128704   3.669   1.043   7.339
 9587TIP3    H228705   3.714   1.170   7.400
 9588TIP3   OH228706   4.046   0.622   7.433
 9588TIP3    H128707   4.097   0.546   7.469
 9588TIP3    H228708   4.022   0.594   7.343
 9589TIP3   OH228709   3.357   0.256   7.359
 9589TIP3    H128710   3.340   0.337   7.307
 9589TIP3    H228711   3.283   0.200   7.332
 9590TIP3   OH228712   4.036   0.393   7.050
 9590TIP3    H128713   4.098   0.350   7.114
 9590TIP3    H228714   4.095   0.398   6.973
 9591TIP3   OH228715   2.982   0.492   7.471
 9591TIP3    H128716   3.062   0.479   7.526
 9591TIP3    H228717   3.000   0.426   7.402
 9592TIP3   OH228718   3.447   0.687   7.285
 9592TIP3    H128719   3.542   0.663   7.296
 9592TIP3    H228720   3.409   0.601   7.256
 9593TIP3   OH228721   4.709   0.656   7.547
 9593TIP3    H128722   4.618   0.687   7.529
 9593TIP3    H228723   4.733   0.708   7.624
 9594TIP3   OH228724   3.715   1.114   6.820
 9594TIP3    H128725   3.684   1.101   6.729
 9594TIP3    H228726   3.671   1.198   6.844
 9595TIP3   OH228727   3.495   1.051   7.605
 9595TIP3    H128728   3.425   1.113   7.631
 9595TIP3    H228729   3.537   1.095   7.528
 9596TIP3   OH228730   3.226   0.425   7.555
 9596TIP3    H128731   3.299   0.480   7.592
 9596TIP3    H228732   3.277   0.357   7.509
 9597TIP3   OH228733   3.299   1.210   7.713
 9597TIP3    H128734   3.241   1.251   7.648
 9597TIP3    H228735   3.237   1.204   7.792
 9598TIP3   OH228736   2.719   0.929   6.922
 9598TIP3    H128737   2.648   0.949   6.859
 9598TIP3    H228738   2.736   1.017   6.962
 9599TIP3   OH228739   4.144   1.445   7.179
 9599TIP3    H128740   4.053   1.437   7.214
 9599TIP3    H228741   4.137   1.530   7.130
 9600TIP3   OH228742   3.841   1.488   6.846
 9600TIP3    H128743   3.891   1.406   6.826
 9600TIP3    H228744   3.903   1.554   6.808
 9601TIP3   OH228745   3.983   1.272   6.763
 9601TIP3    H128746   3.965   1.191   6.714
 9601TIP3    H228747   4.021   1.238   6.847
 9602TIP3   OH228748   4.368   1.355   7.522
 9602TIP3    H128749   4.360   1.277   7.463
 9602TIP3    H228750   4.354   1.429   7.459
 9603TIP3   OH228751   3.661   0.756   6.776
 9603TIP3    H128752   3.580   0.806   6.753
 9603TIP3    H228753   3.705   0.748   6.689
 9604TIP3   OH228754   3.619   0.530   6.500
 9604TIP3    H128755   3.691   0.582   6.539
 9604TIP3    H228756   3.669   0.465   6.448
 9605TIP3   OH228757   4.566   0.997   7.369
 9605TIP3    H128758   4.481   1.046   7.373
 9605TIP3    H228759   4.594   1.016   7.277
 9606TIP3   OH228760   4.007   0.833   6.749
 9606TIP3    H128761   3.954   0.856   6.828
 9606TIP3    H228762   4.093   0.810   6.791
 9607TIP3   OH228763   4.244   0.888   7.647
 9607TIP3    H128764   4.232   0.960   7.709
 9607TIP3    H228765   4.156   0.882   7.606
 9608TIP3   OH228766   3.244   0.829   7.166
 9608TIP3    H128767   3.201   0.768   7.102
 9608TIP3    H228768   3.319   0.775   7.198
 9609TIP3   OH228769   3.374   1.239   7.319
 9609TIP3    H128770   3.353   1.203   7.230
 9609TIP3    H228771   3.463   1.202   7.334
 9610TIP3   OH228772   3.374   0.816   7.522
 9610TIP3    H128773   3.401   0.785   7.433
 9610TIP3    H228774   3.423   0.901   7.530
 9611TIP3   OH228775   3.897   1.440   7.295
 9611TIP3    H128776   3.888   1.518   7.355
 9611TIP3    H228777   3.889   1.365   7.355
 9612TIP3   OH228778   3.501   1.395   7.789
 9612TIP3    H128779   3.454   1.420   7.872
 9612TIP3    H228780   3.455   1.315   7.764
 9613TIP3   OH228781   3.848   0.689   6.576
 9613TIP3    H128782   3.906   0.751   6.626
 9613TIP3    H228783   3.875   0.710   6.484
 9614TIP3   OH228784   3.591   1.373   6.857
 9614TIP3    H128785   3.677   1.419   6.861
 9614TIP3    H228786   3.537   1.436   6.808
 9615TIP3   OH228787   3.251   1.565   7.862
 9615TIP3    H128788   3.257   1.511   7.781
 9615TIP3    H228789   3.312   1.636   7.842
 9616TIP3   OH228790   3.107   0.665   6.981
 9616TIP3    H128791   3.039   0.703   6.922
 9616TIP3    H228792   3.076   0.574   6.990
 9617TIP3   OH228793   4.166   1.298   6.175
 9617TIP3    H128794   4.174   1.394   6.159
 9617TIP3    H228795   4.259   1.269   6.161
 9618TIP3   OH228796   2.743   1.257   7.497
 9618TIP3    H128797   2.838   1.242   7.500
 9618TIP3    H228798   2.731   1.333   7.557
 9619TIP3   OH228799   4.605   1.700   7.571
 9619TIP3    H128800   4.607   1.603   7.583
 9619TIP3    H228801   4.520   1.721   7.615
 9620TIP3   OH228802   3.752   1.481   7.742
 9620TIP3    H128803   3.729   1.577   7.739
 9620TIP3    H228804   3.662   1.448   7.746
 9621TIP3   OH228805   3.472   1.608   6.658
 9621TIP3    H128806   3.434   1.593   6.569
 9621TIP3    H228807   3.444   1.699   6.678
 9622TIP3   OH228808   2.896   1.458   7.047
 9622TIP3    H128809   2.964   1.446   7.117
 9622TIP3    H228810   2.818   1.430   7.097
 9623TIP3   OH228811   3.676   1.516   6.294
 9623TIP3    H128812   3.734   1.446   6.256
 9623TIP3    H228813   3.713   1.526   6.384
 9624TIP3   OH228814   3.727   1.566   6.565
 9624TIP3    H128815   3.639   1.572   6.608
 9624TIP3    H228816   3.781   1.528   6.636
 9625TIP3   OH228817   4.497   0.825   7.826
 9625TIP3    H128818   4.419   0.862   7.784
 9625TIP3    H228819   4.460   0.738   7.851
 9626TIP3   OH228820   4.295   0.630   7.808
 9626TIP3    H128821   4.271   0.540   7.780
 9626TIP3    H228822   4.266   0.679   7.730
 9627TIP3   OH228823   3.932   0.729   6.323
 9627TIP3    H128824   3.890   0.709   6.237
 9627TIP3    H228825   4.010   0.779   6.295
 9628TIP3   OH228826   3.423   0.583   7.653
 9628TIP3    H128827   3.448   0.612   7.741
 9628TIP3    H228828   3.416   0.667   7.603
 9629TIP3   OH228829   3.306   0.465   7.193
 9629TIP3    H128830   3.211   0.444   7.202
 9629TIP3    H228831   3.323   0.436   7.100
 9630TIP3   OH228832   3.791   0.555   6.912
 9630TIP3    H128833   3.744   0.627   6.866
 9630TIP3    H228834   3.858   0.528   6.845
 9631TIP3   OH228835   3.939   0.615   7.170
 9631TIP3    H128836   3.885   0.656   7.101
 9631TIP3    H228837   3.963   0.532   7.123
 9632TIP3   OH228838   2.881   0.223   7.015
 9632TIP3    H128839   2.892   0.218   6.918
 9632TIP3    H228840   2.785   0.243   7.020
 9633TIP3   OH228841   3.957   0.827   7.578
 9633TIP3    H128842   3.995   0.755   7.522
 9633TIP3    H228843   3.939   0.776   7.659
 9634TIP3   OH228844   3.056   0.341   7.235
 9634TIP3    H128845   2.963   0.373   7.226
 9634TIP3    H228846   3.049   0.261   7.181
 9635TIP3   OH228847   3.350   0.364   6.945
 9635TIP3    H128848   3.441   0.350   6.914
 9635TIP3    H228849   3.296   0.353   6.863
 9636TIP3   OH228850   3.184   0.349   6.718
 9636TIP3    H128851   3.113   0.325   6.655
 9636TIP3    H228852   3.243   0.395   6.655
 9637TIP3   OH228853   4.301   2.053   7.663
 9637TIP3    H128854   4.300   2.078   7.569
 9637TIP3    H228855   4.381   2.101   7.694
 9638TIP3   OH228856   3.707   0.618   7.338
 9638TIP3    H128857   3.793   0.592   7.302
 9638TIP3    H228858   3.715   0.588   7.432
 9639TIP3   OH228859   3.719   0.551   7.601
 9639TIP3    H128860   3.640   0.505   7.635
 9639TIP3    H228861   3.769   0.570   7.682
 9640TIP3   OH228862   3.426   0.902   6.724
 9640TIP3    H128863   3.355   0.836   6.715
 9640TIP3    H228864   3.410   0.936   6.816
 9641TIP3   OH228865   4.330   1.141   7.356
 9641TIP3    H128866   4.357   1.188   7.274
 9641TIP3    H228867   4.247   1.097   7.328
 9642TIP3   OH228868   3.868   0.282   6.548
 9642TIP3    H128869   3.808   0.234   6.608
 9642TIP3    H228870   3.904   0.349   6.611
 9643TIP3   OH228871   3.831   1.216   7.716
 9643TIP3    H128872   3.851   1.171   7.798
 9643TIP3    H228873   3.807   1.307   7.744
 9644TIP3   OH228874   3.967   0.477   6.711
 9644TIP3    H128875   4.064   0.488   6.719
 9644TIP3    H228876   3.942   0.554   6.655
 9645TIP3   OH228877   3.119   0.939   7.390
 9645TIP3    H128878   3.163   0.897   7.313
 9645TIP3    H228879   3.142   0.881   7.463
 9646TIP3   OH228880   3.580   1.054   6.557
 9646TIP3    H128881   3.528   1.138   6.560
 9646TIP3    H228882   3.525   0.996   6.613
 9647TIP3   OH228883   4.003   1.482   7.626
 9647TIP3    H128884   3.909   1.458   7.638
 9647TIP3    H228885   4.007   1.562   7.679
 9648TIP3   OH228886   4.400   0.551   6.519
 9648TIP3    H128887   4.341   0.501   6.458
 9648TIP3    H228888   4.388   0.641   6.481
 9649TIP3   OH228889   4.620   1.414   7.607
 9649TIP3    H128890   4.522   1.404   7.600
 9649TIP3    H228891   4.647   1.382   7.518
 9650TIP3   OH228892   4.098   1.367   6.437
 9650TIP3    H128893   4.077   1.293   6.495
 9650TIP3    H228894   4.116   1.324   6.351
 9651TIP3   OH228895   4.094   1.005   7.272
 9651TIP3    H128896   4.003   0.974   7.284
 9651TIP3    H228897   4.134   0.925   7.230
 9652TIP3   OH228898   3.233   1.234   7.040
 9652TIP3    H128899   3.234   1.307   6.976
 9652TIP3    H228900   3.138   1.222   7.053
 9653TIP3   OH228901   2.785   0.526   6.734
 9653TIP3    H128902   2.835   0.608   6.756
 9653TIP3    H228903   2.709   0.534   6.796
 9654TIP3   OH228904   3.359   0.993   6.971
 9654TIP3    H128905   3.327   1.082   6.993
 9654TIP3    H228906   3.325   0.940   7.046
 9655TIP3   OH228907   3.508   1.563   7.538
 9655TIP3    H128908   3.623   1.536   7.485
 9655TIP3    H228909   3.518   1.632   7.443
 9656TIP3   OH228910   3.140   1.469   6.884
 9656TIP3    H128911   3.057   1.485   6.931
 9656TIP3    H228912   3.180   1.559   6.886
 9657TIP3   OH228913   3.884   1.210   7.451
 9657TIP3    H128914   3.874   1.201   7.548
 9657TIP3    H228915   3.957   1.149   7.433
 9658TIP3   OH228916   3.861   1.100   6.341
 9658TIP3    H128917   3.912   1.076   6.422
 9658TIP3    H228918   3.772   1.070   6.366
 9659TIP3   OH228919   4.126   1.743   7.509
 9659TIP3    H128920   4.046   1.690   7.487
 9659TIP3    H228921   4.123   1.809   7.435
 9660TIP3   OH228922   4.198   1.573   6.159
 9660TIP3    H128923   4.239   1.648   6.111
 9660TIP3    H228924   4.117   1.618   6.191
 9661TIP3   OH228925   4.020   1.038   6.561
 9661TIP3    H128926   4.010   0.968   6.628
 9661TIP3    H228927   4.117   1.032   6.545
 9662TIP3   OH228928   2.946   1.442   7.636
 9662TIP3    H128929   2.964   1.360   7.683
 9662TIP3    H228930   2.926   1.501   7.711
 9663TIP3   OH228931   3.220   1.081   6.349
 9663TIP3    H128932   3.237   1.000   6.299
 9663TIP3    H228933   3.191   1.044   6.433
 9664TIP3   OH228934   3.138   1.084   6.654
 9664TIP3    H128935   3.227   1.051   6.675
 9664TIP3    H228936   3.155   1.179   6.638
 9665TIP3   OH228937   2.912   0.764   6.809
 9665TIP3    H128938   2.850   0.824   6.855
 9665TIP3    H228939   2.963   0.823   6.751
 9666TIP3   OH228940   3.425   1.277   6.564
 9666TIP3    H128941   3.341   1.313   6.596
 9666TIP3    H228942   3.446   1.339   6.493
 9667TIP3   OH228943   3.636   0.334   6.936
 9667TIP3    H128944   3.687   0.418   6.929
 9667TIP3    H228945   3.651   0.310   7.028
 9668TIP3   OH228946   3.902   0.679   7.804
 9668TIP3    H128947   3.927   0.734   7.881
 9668TIP3    H228948   3.954   0.599   7.820
 9669TIP3   OH228949   3.156   1.357   6.630
 9669TIP3    H128950   3.142   1.429   6.563
 9669TIP3    H228951   3.159   1.409   6.713
 9670TIP3   OH228952   4.182   0.765   7.153
 9670TIP3    H128953   4.105   0.709   7.174
 9670TIP3    H228954   4.255   0.717   7.200
 9671TIP3   OH228955   2.841   0.257   6.741
 9671TIP3    H128956   2.833   0.355   6.735
 9671TIP3    H228957   2.749   0.229   6.734
 9672TIP3   OH228958   4.151   1.717   7.100
 9672TIP3    H128959   4.109   1.764   7.025
 9672TIP3    H228960   4.246   1.735   7.080
 9673TIP3   OH228961   2.755   1.193   6.994
 9673TIP3    H128962   2.730   1.200   7.087
 9673TIP3    H228963   2.719   1.276   6.958
 9674TIP3   OH228964   3.389   1.282   6.255
 9674TIP3    H128965   3.336   1.208   6.293
 9674TIP3    H228966   3.461   1.232   6.211
 9675TIP3   OH228967   4.055   1.602   7.895
 9675TIP3    H128968   4.097   1.527   7.851
 9675TIP3    H228969   4.132   1.662   7.907
 9676TIP3   OH228970   3.823   1.322   6.164
 9676TIP3    H128971   3.868   1.259   6.223
 9676TIP3    H228972   3.878   1.321   6.084
 9677TIP3   OH228973   3.026   0.786   6.476
 9677TIP3    H128974   3.085   0.757   6.547
 9677TIP3    H228975   3.091   0.795   6.404
 9678TIP3   OH228976   3.548   1.001   6.286
 9678TIP3    H128977   3.549   1.011   6.383
 9678TIP3    H228978   3.549   0.903   6.278
 9679TIP3   OH228979   4.158   1.250   7.671
 9679TIP3    H128980   4.236   1.282   7.621
 9679TIP3    H228981   4.091   1.314   7.641
 9680TIP3   OH228982   3.233   0.703   6.696
 9680TIP3    H128983   3.219   0.657   6.780
 9680TIP3    H228984   3.273   0.632   6.641
 9681TIP3   OH228985   3.340   0.501   6.541
 9681TIP3    H128986   3.313   0.503   6.447
 9681TIP3    H228987   3.437   0.503   6.532
 9682TIP3   OH228988   4.161   0.826   6.199
 9682TIP3    H128989   4.140   0.784   6.114
 9682TIP3    H228990   4.131   0.917   6.179
 9683TIP3   OH228991   3.662   0.894   7.758
 9683TIP3    H128992   3.743   0.866   7.713
 9683TIP3    H228993   3.622   0.953   7.691
 9684TIP3   OH228994   4.293   1.110   7.860
 9684TIP3    H128995   4.233   1.157   7.798
 9684TIP3    H228996   4.379   1.120   7.812
 9685TIP3   OH228997   3.150   1.556   6.442
 9685TIP3    H128998   3.246   1.552   6.421
 9685TIP3    H228999   3.120   1.609   6.365
 9686TIP3   OH229000   2.639   0.939   6.634
 9686TIP3    H129001   2.732   0.915   6.626
 9686TIP3    H229002   2.600   0.854   6.603
 9687TIP3   OH229003   2.548   1.553   7.079
 9687TIP3    H129004   2.483   1.504   7.024
 9687TIP3    H229005   2.579   1.483   7.139
 9688TIP3   OH229006   2.699   1.389   7.246
 9688TIP3    H129007   2.677   1.324   7.317
 9688TIP3    H229008   2.740   1.458   7.302
 9689TIP3   OH229009   4.405   1.805   7.059
 9689TIP3    H129010   4.438   1.845   7.142
 9689TIP3    H229011   4.471   1.837   6.994
 9690TIP3   OH229012   4.432   1.826   7.347
 9690TIP3    H129013   4.391   1.738   7.336
 9690TIP3    H229014   4.513   1.801   7.394
 9691TIP3   OH229015   4.478   1.511   7.892
 9691TIP3    H129016   4.426   1.498   7.972
 9691TIP3    H229017   4.528   1.593   7.908
 9692TIP3   OH229018   4.298   1.014   6.530
 9692TIP3    H129019   4.365   1.079   6.500
 9692TIP3    H229020   4.342   0.977   6.609
 9693TIP3   OH229021   4.423   0.887   6.734
 9693TIP3    H129022   4.358   0.847   6.796
 9693TIP3    H229023   4.490   0.925   6.795
 9694TIP3   OH229024   4.479   1.275   7.167
 9694TIP3    H129025   4.535   1.208   7.122
 9694TIP3    H229026   4.479   1.348   7.101
 9695TIP3   OH229027   4.310   1.574   7.362
 9695TIP3    H129028   4.234   1.612   7.409
 9695TIP3    H229029   4.266   1.526   7.288
 9696TIP3   OH229030   4.357   0.787   6.383
 9696TIP3    H129031   4.288   0.798   6.314
 9696TIP3    H229032   4.335   0.865   6.439
 9697TIP3   OH229033   4.227   0.448   6.323
 9697TIP3    H129034   4.208   0.530   6.275
 9697TIP3    H229035   4.175   0.385   6.271
 9698TIP3   OH229036   4.236   0.752   6.881
 9698TIP3    H129037   4.241   0.657   6.860
 9698TIP3    H229038   4.224   0.754   6.978
 9699TIP3   OH229039   2.863   0.857   7.607
 9699TIP3    H129040   2.857   0.807   7.523
 9699TIP3    H229041   2.956   0.840   7.632
 9700TIP3   OH229042   4.528   1.162   7.732
 9700TIP3    H129043   4.598   1.093   7.726
 9700TIP3    H229044   4.559   1.226   7.666
 9701TIP3   OH229045   4.713   0.970   7.748
 9701TIP3    H129046   4.640   0.916   7.787
 9701TIP3    H229047   4.788   0.911   7.772
 9702TIP3   OH229048   4.238   0.500   6.749
 9702TIP3    H129049   4.267   0.422   6.802
 9702TIP3    H229050   4.303   0.502   6.677
 9703TIP3   OH229051   4.390   0.637   7.273
 9703TIP3    H129052   4.478   0.660   7.234
 9703TIP3    H229053   4.406   0.663   7.365
 9704TIP3   OH229054   4.461   0.776   7.504
 9704TIP3    H129055   4.384   0.814   7.551
 9704TIP3    H229056   4.499   0.855   7.460
 9705TIP3   OH229057   3.988   1.673   6.717
 9705TIP3    H129058   4.036   1.657   6.632
 9705TIP3    H229059   4.046   1.739   6.758
 9706TIP3   OH229060   3.265   1.456   7.581
 9706TIP3    H129061   3.328   1.386   7.654
 9706TIP3    H229062   3.333   1.485   7.510
 9707TIP3   OH229063   3.694   1.753   7.754
 9707TIP3    H129064   3.730   1.756   7.843
 9707TIP3    H229065   3.764   1.804   7.705
 9708TIP3   OH229066   3.892   1.900   7.640
 9708TIP3    H129067   3.961   1.863   7.584
 9708TIP3    H229068   3.943   1.961   7.696
 9709TIP3   OH229069   2.926   1.759   7.690
 9709TIP3    H129070   2.849   1.805   7.653
 9709TIP3    H229071   2.971   1.832   7.739
 9710TIP3   OH229072   3.138   1.855   7.543
 9710TIP3    H129073   3.062   1.804   7.543
 9710TIP3    H229074   3.124   1.834   7.437
 9711TIP3   OH229075   3.619   1.798   7.306
 9711TIP3    H129076   3.551   1.809   7.244
 9711TIP3    H229077   3.632   1.881   7.344
 9712TIP3   OH229078   3.878   1.712   7.383
 9712TIP3    H129079   3.783   1.737   7.352
 9712TIP3    H229080   3.925   1.777   7.333
 9713TIP3   OH229081   4.082   1.901   7.292
 9713TIP3    H129082   4.068   1.986   7.245
 9713TIP3    H229083   4.110   1.843   7.218
 9714TIP3   OH229084   2.858   1.559   7.406
 9714TIP3    H129085   2.888   1.534   7.496
 9714TIP3    H229086   2.928   1.515   7.354
 9715TIP3   OH229087   3.051   1.426   7.266
 9715TIP3    H129088   3.065   1.347   7.324
 9715TIP3    H229089   3.141   1.464   7.264
 9716TIP3   OH229090   3.314   1.523   7.267
 9716TIP3    H129091   3.347   1.432   7.249
 9716TIP3    H229092   3.376   1.555   7.330
 9717TIP3   OH229093   2.671   1.339   6.773
 9717TIP3    H129094   2.583   1.306   6.741
 9717TIP3    H229095   2.643   1.435   6.772
 9718TIP3   OH229096   3.418   1.517   6.390
 9718TIP3    H129097   3.506   1.540   6.353
 9718TIP3    H229098   3.396   1.443   6.329
 9719TIP3   OH229099   4.126   1.633   6.483
 9719TIP3    H129100   4.120   1.535   6.467
 9719TIP3    H229101   4.087   1.667   6.400
 9720TIP3   OH229102   2.735   1.322   6.493
 9720TIP3    H129103   2.725   1.418   6.497
 9720TIP3    H229104   2.814   1.308   6.436
 9721TIP3   OH229105   4.351   1.783   7.671
 9721TIP3    H129106   4.279   1.756   7.611
 9721TIP3    H229107   4.340   1.880   7.668
 9722TIP3   OH229108   5.627   1.153   6.435
 9722TIP3    H129109   5.599   1.244   6.414
 9722TIP3    H229110   5.552   1.103   6.397
 9723TIP3   OH229111   5.629   1.156   6.819
 9723TIP3    H129112   5.660   1.130   6.907
 9723TIP3    H229113   5.585   1.076   6.787
 9724TIP3   OH229114   4.922   1.049   7.181
 9724TIP3    H129115   4.954   0.978   7.240
 9724TIP3    H229116   5.004   1.099   7.168
 9725TIP3   OH229117   5.873   1.457   6.499
 9725TIP3    H129118   5.856   1.388   6.564
 9725TIP3    H229119   5.900   1.532   6.555
 9726TIP3   OH229120   4.899   1.459   6.906
 9726TIP3    H129121   4.891   1.362   6.907
 9726TIP3    H229122   4.996   1.468   6.897
 9727TIP3   OH229123   4.594   0.673   6.703
 9727TIP3    H129124   4.539   0.753   6.713
 9727TIP3    H229125   4.535   0.617   6.649
 9728TIP3   OH229126   4.656   0.959   6.863
 9728TIP3    H129127   4.699   0.877   6.896
 9728TIP3    H229128   4.722   0.991   6.800
 9729TIP3   OH229129   5.525   1.921   6.516
 9729TIP3    H129130   5.567   1.848   6.464
 9729TIP3    H229131   5.510   1.878   6.601
 9730TIP3   OH229132   5.424   1.381   6.865
 9730TIP3    H129133   5.463   1.304   6.820
 9730TIP3    H229134   5.508   1.426   6.889
 9731TIP3   OH229135   5.843   0.881   6.910
 9731TIP3    H129136   5.862   0.790   6.936
 9731TIP3    H229137   5.806   0.871   6.820
 9732TIP3   OH229138   5.164   0.501   6.830
 9732TIP3    H129139   5.141   0.591   6.798
 9732TIP3    H229140   5.081   0.454   6.815
 9733TIP3   OH229141   5.832   0.652   6.534
 9733TIP3    H129142   5.894   0.607   6.596
 9733TIP3    H229143   5.887   0.654   6.454
 9734TIP3   OH229144   4.788   0.743   6.959
 9734TIP3    H129145   4.880   0.745   6.994
 9734TIP3    H229146   4.802   0.681   6.885
 9735TIP3   OH229147   5.246   0.943   6.767
 9735TIP3    H129148   5.339   0.918   6.781
 9735TIP3    H229149   5.206   0.857   6.740
 9736TIP3   OH229150   6.473   0.890   7.064
 9736TIP3    H129151   6.401   0.947   7.029
 9736TIP3    H229152   6.534   0.954   7.103
 9737TIP3   OH229153   5.518   1.374   6.303
 9737TIP3    H129154   5.477   1.357   6.217
 9737TIP3    H229155   5.473   1.457   6.329
 9738TIP3   OH229156   5.280   1.300   7.089
 9738TIP3    H129157   5.218   1.367   7.125
 9738TIP3    H229158   5.321   1.349   7.015
 9739TIP3   OH229159   5.044   0.708   7.027
 9739TIP3    H129160   5.113   0.752   7.080
 9739TIP3    H229161   5.072   0.616   7.035
 9740TIP3   OH229162   5.109   1.496   7.189
 9740TIP3    H129163   5.082   1.582   7.150
 9740TIP3    H229164   5.030   1.478   7.244
 9741TIP3   OH229165   4.498   1.183   6.424
 9741TIP3    H129166   4.459   1.211   6.339
 9741TIP3    H229167   4.528   1.269   6.460
 9742TIP3   OH229168   5.942   1.702   6.664
 9742TIP3    H129169   5.852   1.691   6.705
 9742TIP3    H229170   5.931   1.788   6.619
 9743TIP3   OH229171   5.640   1.746   6.337
 9743TIP3    H129172   5.690   1.663   6.317
 9743TIP3    H229173   5.702   1.811   6.296
 9744TIP3   OH229174   5.785   1.531   6.247
 9744TIP3    H129175   5.747   1.450   6.209
 9744TIP3    H229176   5.823   1.497   6.331
 9745TIP3   OH229177   6.166   1.612   7.007
 9745TIP3    H129178   6.153   1.534   6.949
 9745TIP3    H229179   6.147   1.686   6.945
 9746TIP3   OH229180   5.459   1.011   6.264
 9746TIP3    H129181   5.377   1.061   6.244
 9746TIP3    H229182   5.501   1.005   6.177
 9747TIP3   OH229183   5.415   0.790   5.982
 9747TIP3    H129184   5.487   0.841   6.025
 9747TIP3    H229185   5.466   0.719   5.939
 9748TIP3   OH229186   6.361   1.253   6.854
 9748TIP3    H129187   6.277   1.303   6.857
 9748TIP3    H229188   6.391   1.274   6.763
 9749TIP3   OH229189   5.803   1.090   6.234
 9749TIP3    H129190   5.749   1.114   6.313
 9749TIP3    H229191   5.889   1.068   6.277
 9750TIP3   OH229192   6.038   1.128   7.155
 9750TIP3    H129193   6.034   1.210   7.207
 9750TIP3    H229194   5.952   1.131   7.110
 9751TIP3   OH229195   5.038   1.086   6.654
 9751TIP3    H129196   4.998   1.026   6.587
 9751TIP3    H229197   5.114   1.033   6.685
 9752TIP3   OH229198   5.166   1.497   6.802
 9752TIP3    H129199   5.147   1.461   6.714
 9752TIP3    H229200   5.256   1.461   6.819
 9753TIP3   OH229201   5.175   1.054   7.016
 9753TIP3    H129202   5.204   1.028   6.926
 9753TIP3    H229203   5.219   1.141   7.029
 9754TIP3   OH229204   5.702   1.695   6.787
 9754TIP3    H129205   5.687   1.774   6.842
 9754TIP3    H229206   5.685   1.621   6.849
 9755TIP3   OH229207   5.313   1.614   7.332
 9755TIP3    H129208   5.252   1.675   7.379
 9755TIP3    H229209   5.248   1.560   7.282
 9756TIP3   OH229210   5.644   0.945   6.062
 9756TIP3    H129211   5.703   1.007   6.113
 9756TIP3    H229212   5.671   0.968   5.969
 9757TIP3   OH229213   5.060   1.178   7.430
 9757TIP3    H129214   5.065   1.262   7.481
 9757TIP3    H229215   4.966   1.154   7.445
 9758TIP3   OH229216   5.392   1.623   6.339
 9758TIP3    H129217   5.472   1.677   6.349
 9758TIP3    H229218   5.329   1.684   6.298
 9759TIP3   OH229219   5.106   1.782   7.419
 9759TIP3    H129220   5.073   1.782   7.327
 9759TIP3    H229221   5.025   1.761   7.471
 9760TIP3   OH229222   4.905   0.928   6.457
 9760TIP3    H129223   4.837   0.974   6.403
 9760TIP3    H229224   4.865   0.842   6.469
 9761TIP3   OH229225   5.962   1.553   5.662
 9761TIP3    H129226   5.970   1.650   5.646
 9761TIP3    H229227   6.055   1.524   5.648
 9762TIP3   OH229228   4.685   1.312   7.366
 9762TIP3    H129229   4.621   1.289   7.296
 9762TIP3    H229230   4.724   1.225   7.389
 9763TIP3   OH229231   4.541   1.504   7.001
 9763TIP3    H129232   4.636   1.496   6.985
 9763TIP3    H229233   4.537   1.584   7.054
 9764TIP3   OH229234   6.404   1.959   7.054
 9764TIP3    H129235   6.405   1.862   7.070
 9764TIP3    H229236   6.321   1.983   7.101
 9765TIP3   OH229237   5.510   1.743   7.190
 9765TIP3    H129238   5.507   1.836   7.222
 9765TIP3    H229239   5.438   1.702   7.243
 9766TIP3   OH229240   5.276   1.872   6.141
 9766TIP3    H129241   5.225   1.854   6.060
 9766TIP3    H229242   5.239   1.957   6.170
 9767TIP3   OH229243   4.717   1.715   6.520
 9767TIP3    H129244   4.760   1.710   6.608
 9767TIP3    H229245   4.647   1.649   6.530
 9768TIP3   OH229246   5.473   1.774   5.779
 9768TIP3    H129247   5.531   1.703   5.744
 9768TIP3    H229248   5.507   1.783   5.871
 9769TIP3   OH229249   5.526   1.822   6.048
 9769TIP3    H129250   5.437   1.833   6.089
 9769TIP3    H229251   5.574   1.780   6.122
 9770TIP3   OH229252   6.292   1.075   7.312
 9770TIP3    H129253   6.208   1.102   7.272
 9770TIP3    H229254   6.280   0.979   7.318
 9771TIP3   OH229255   4.889   1.497   7.354
 9771TIP3    H129256   4.941   1.478   7.435
 9771TIP3    H229257   4.817   1.432   7.360
 9772TIP3   OH229258   6.072   0.871   7.276
 9772TIP3    H129259   6.031   0.898   7.358
 9772TIP3    H229260   6.050   0.944   7.216
 9773TIP3   OH229261   5.723   0.989   5.807
 9773TIP3    H129262   5.687   0.967   5.719
 9773TIP3    H229263   5.806   1.034   5.782
 9774TIP3   OH229264   5.240   0.840   7.175
 9774TIP3    H129265   5.178   0.857   7.248
 9774TIP3    H229266   5.224   0.918   7.118
 9775TIP3   OH229267   5.104   0.723   6.679
 9775TIP3    H129268   5.009   0.701   6.690
 9775TIP3    H229269   5.120   0.691   6.587
 9776TIP3   OH229270   5.589   0.811   6.401
 9776TIP3    H129271   5.542   0.884   6.354
 9776TIP3    H229272   5.655   0.785   6.334
 9777TIP3   OH229273   5.780   1.113   7.474
 9777TIP3    H129274   5.754   1.032   7.524
 9777TIP3    H229275   5.874   1.120   7.498
 9778TIP3   OH229276   5.735   0.872   6.657
 9778TIP3    H129277   5.680   0.916   6.590
 9778TIP3    H229278   5.758   0.790   6.608
 9779TIP3   OH229279   5.040   0.868   7.366
 9779TIP3    H129280   5.056   0.929   7.439
 9779TIP3    H229281   5.013   0.786   7.411
 9780TIP3   OH229282   4.672   0.477   6.503
 9780TIP3    H129283   4.687   0.478   6.406
 9780TIP3    H229284   4.577   0.495   6.505
 9781TIP3   OH229285   5.759   1.086   7.061
 9781TIP3    H129286   5.796   1.014   7.004
 9781TIP3    H229287   5.735   1.033   7.140
 9782TIP3   OH229288   4.853   0.596   6.723
 9782TIP3    H129289   4.761   0.629   6.710
 9782TIP3    H229290   4.849   0.518   6.666
 9783TIP3   OH229291   5.145   0.617   6.432
 9783TIP3    H129292   5.237   0.606   6.402
 9783TIP3    H229293   5.093   0.609   6.350
 9784TIP3   OH229294   4.980   0.601   6.204
 9784TIP3    H129295   4.906   0.583   6.142
 9784TIP3    H229296   5.040   0.648   6.142
 9785TIP3   OH229297   6.097   2.307   7.156
 9785TIP3    H129298   6.094   2.332   7.062
 9785TIP3    H229299   6.176   2.356   7.187
 9786TIP3   OH229300   5.051   1.422   7.575
 9786TIP3    H129301   5.132   1.447   7.623
 9786TIP3    H229302   4.989   1.414   7.650
 9787TIP3   OH229303   5.504   0.874   6.831
 9787TIP3    H129304   5.587   0.843   6.792
 9787TIP3    H229305   5.510   0.840   6.923
 9788TIP3   OH229306   5.512   0.801   7.093
 9788TIP3    H129307   5.422   0.796   7.130
 9788TIP3    H229308   5.563   0.844   7.165
 9789TIP3   OH229309   5.227   1.158   6.214
 9789TIP3    H129310   5.154   1.094   6.202
 9789TIP3    H229311   5.208   1.192   6.305
 9790TIP3   OH229312   6.126   1.395   6.843
 9790TIP3    H129313   6.150   1.444   6.761
 9790TIP3    H229314   6.041   1.352   6.818
 9791TIP3   OH229315   5.654   0.548   6.036
 9791TIP3    H129316   5.602   0.496   6.100
 9791TIP3    H229317   5.699   0.610   6.097
 9792TIP3   OH229318   5.630   1.480   7.211
 9792TIP3    H129319   5.653   1.455   7.301
 9792TIP3    H229320   5.589   1.567   7.221
 9793TIP3   OH229321   5.765   0.735   6.199
 9793TIP3    H129322   5.863   0.746   6.206
 9793TIP3    H229323   5.741   0.811   6.142
 9794TIP3   OH229324   4.923   1.181   6.889
 9794TIP3    H129325   4.961   1.153   6.804
 9794TIP3    H229326   4.964   1.119   6.951
 9795TIP3   OH229327   5.374   1.309   6.039
 9795TIP3    H129328   5.326   1.395   6.043
 9795TIP3    H229329   5.319   1.253   6.098
 9796TIP3   OH229330   4.801   1.100   7.504
 9796TIP3    H129331   4.816   1.084   7.599
 9796TIP3    H229332   4.732   1.035   7.484
 9797TIP3   OH229333   5.528   1.221   7.527
 9797TIP3    H129334   5.465   1.165   7.479
 9797TIP3    H229335   5.614   1.190   7.493
 9798TIP3   OH229336   5.788   1.741   7.107
 9798TIP3    H129337   5.692   1.735   7.120
 9798TIP3    H229338   5.814   1.791   7.187
 9799TIP3   OH229339   6.199   0.811   6.008
 9799TIP3    H129340   6.137   0.761   5.949
 9799TIP3    H229341   6.185   0.900   5.969
 9800TIP3   OH229342   6.416   1.671   7.093
 9800TIP3    H129343   6.318   1.662   7.086
 9800TIP3    H229344   6.442   1.640   7.004
 9801TIP3   OH229345   5.903   1.628   5.928
 9801TIP3    H129346   5.872   1.559   5.988
 9801TIP3    H229347   5.912   1.581   5.843
 9802TIP3   OH229348   5.894   1.260   6.759
 9802TIP3    H129349   5.801   1.232   6.773
 9802TIP3    H229350   5.929   1.180   6.715
 9803TIP3   OH229351   5.023   1.487   6.518
 9803TIP3    H129352   5.022   1.567   6.462
 9803TIP3    H229353   4.928   1.470   6.527
 9804TIP3   OH229354   4.584   0.789   6.223
 9804TIP3    H129355   4.631   0.873   6.242
 9804TIP3    H229356   4.507   0.796   6.284
 9805TIP3   OH229357   5.155   1.250   6.458
 9805TIP3    H129358   5.122   1.340   6.478
 9805TIP3    H229359   5.120   1.200   6.534
 9806TIP3   OH229360   5.292   1.827   6.985
 9806TIP3    H129361   5.333   1.900   6.933
 9806TIP3    H229362   5.370   1.792   7.031
 9807TIP3   OH229363   4.947   1.719   6.367
 9807TIP3    H129364   4.860   1.729   6.410
 9807TIP3    H229365   4.980   1.811   6.371
 9808TIP3   OH229366   5.678   1.464   6.943
 9808TIP3    H129367   5.668   1.463   7.041
 9808TIP3    H229368   5.756   1.406   6.931
 9809TIP3   OH229369   5.656   1.359   5.827
 9809TIP3    H129370   5.709   1.333   5.906
 9809TIP3    H229371   5.568   1.328   5.854
 9810TIP3   OH229372   5.929   1.994   6.995
 9810TIP3    H129373   5.850   1.937   6.990
 9810TIP3    H229374   5.910   2.057   6.922
 9811TIP3   OH229375   5.992   1.829   5.645
 9811TIP3    H129376   6.026   1.901   5.589
 9811TIP3    H229377   5.913   1.873   5.681
 9812TIP3   OH229378   5.815   1.291   6.042
 9812TIP3    H129379   5.804   1.223   6.112
 9812TIP3    H229380   5.913   1.287   6.030
 9813TIP3   OH229381   4.728   1.691   7.146
 9813TIP3    H129382   4.781   1.616   7.177
 9813TIP3    H229383   4.765   1.763   7.198
 9814TIP3   OH229384   5.020   1.335   5.826
 9814TIP3    H129385   5.032   1.242   5.800
 9814TIP3    H229386   4.999   1.326   5.922
 9815TIP3   OH229387   4.964   1.341   6.098
 9815TIP3    H129388   5.036   1.315   6.156
 9815TIP3    H229389   4.966   1.439   6.106
 9816TIP3   OH229390   4.697   1.033   6.303
 9816TIP3    H129391   4.632   1.079   6.360
 9816TIP3    H229392   4.712   1.101   6.235
 9817TIP3   OH229393   5.231   1.539   6.047
 9817TIP3    H129394   5.144   1.563   6.083
 9817TIP3    H229395   5.246   1.614   5.988
 9818TIP3   OH229396   5.430   0.591   6.422
 9818TIP3    H129397   5.482   0.675   6.418
 9818TIP3    H229398   5.444   0.565   6.514
 9819TIP3   OH229399   5.702   0.922   7.272
 9819TIP3    H129400   5.698   0.984   7.347
 9819TIP3    H229401   5.749   0.848   7.312
 9820TIP3   OH229402   4.976   1.612   6.115
 9820TIP3    H129403   4.946   1.683   6.053
 9820TIP3    H229404   4.961   1.655   6.202
 9821TIP3   OH229405   5.981   1.017   6.639
 9821TIP3    H129406   5.902   0.965   6.658
 9821TIP3    H229407   6.051   0.969   6.688
 9822TIP3   OH229408   4.693   1.239   6.108
 9822TIP3    H129409   4.760   1.309   6.116
 9822TIP3    H229410   4.737   1.183   6.041
 9823TIP3   OH229411   4.638   0.518   6.231
 9823TIP3    H129412   4.631   0.615   6.224
 9823TIP3    H229413   4.548   0.490   6.210
 9824TIP3   OH229414   5.949   1.973   6.586
 9824TIP3    H129415   5.906   2.020   6.511
 9824TIP3    H229416   6.043   1.988   6.564
 9825TIP3   OH229417   4.555   1.446   6.492
 9825TIP3    H129418   4.494   1.485   6.556
 9825TIP3    H229419   4.531   1.495   6.410
 9826TIP3   OH229420   4.723   2.002   7.569
 9826TIP3    H129421   4.810   2.003   7.614
 9826TIP3    H229422   4.708   1.906   7.562
 9827TIP3   OH229423   5.198   1.961   7.611
 9827TIP3    H129424   5.293   1.943   7.619
 9827TIP3    H229425   5.174   1.901   7.538
 9828TIP3   OH229426   5.182   1.538   5.736
 9828TIP3    H129427   5.126   1.467   5.776
 9828TIP3    H229428   5.257   1.485   5.705
 9829TIP3   OH229429   5.840   1.871   7.344
 9829TIP3    H129430   5.832   1.801   7.412
 9829TIP3    H229431   5.917   1.922   7.375
 9830TIP3   OH229432   5.618   1.578   5.652
 9830TIP3    H129433   5.658   1.510   5.711
 9830TIP3    H229434   5.676   1.574   5.573
 9831TIP3   OH229435   4.848   1.407   7.765
 9831TIP3    H129436   4.871   1.311   7.770
 9831TIP3    H229437   4.763   1.404   7.716
 9832TIP3   OH229438   4.829   1.053   5.962
 9832TIP3    H129439   4.886   1.023   6.035
 9832TIP3    H229440   4.895   1.059   5.890
 9833TIP3   OH229441   5.457   1.494   7.541
 9833TIP3    H129442   5.415   1.510   7.454
 9833TIP3    H229443   5.487   1.401   7.534
 9834TIP3   OH229444   5.344   1.257   5.769
 9834TIP3    H129445   5.344   1.269   5.866
 9834TIP3    H229446   5.345   1.159   5.763
 9835TIP3   OH229447   5.951   1.503   7.148
 9835TIP3    H129448   6.025   1.548   7.103
 9835TIP3    H229449   5.879   1.567   7.133
 9836TIP3   OH229450   4.970   1.153   7.745
 9836TIP3    H129451   5.033   1.081   7.731
 9836TIP3    H229452   4.997   1.180   7.836
 9837TIP3   OH229453   5.032   0.962   6.180
 9837TIP3    H129454   5.011   0.923   6.267
 9837TIP3    H229455   5.070   0.886   6.132
 9838TIP3   OH229456   5.306   1.056   7.410
 9838TIP3    H129457   5.222   1.106   7.406
 9838TIP3    H229458   5.351   1.082   7.326
 9839TIP3   OH229459   5.136   0.753   6.029
 9839TIP3    H129460   5.109   0.759   5.935
 9839TIP3    H229461   5.234   0.759   6.019
 9840TIP3   OH229462   5.825   1.430   7.543
 9840TIP3    H129463   5.898   1.395   7.491
 9840TIP3    H229464   5.813   1.360   7.610
 9841TIP3   OH229465   5.956   1.084   5.688
 9841TIP3    H129466   5.937   1.039   5.603
 9841TIP3    H229467   5.924   1.174   5.665
 9842TIP3   OH229468   5.391   0.831   7.527
 9842TIP3    H129469   5.344   0.771   7.467
 9842TIP3    H229470   5.365   0.918   7.489
 9843TIP3   OH229471   5.468   1.143   7.212
 9843TIP3    H129472   5.548   1.147   7.158
 9843TIP3    H229473   5.409   1.206   7.165
 9844TIP3   OH229474   6.036   1.110   7.577
 9844TIP3    H129475   6.068   1.042   7.641
 9844TIP3    H229476   6.120   1.152   7.551
 9845TIP3   OH229477   6.081   1.355   7.332
 9845TIP3    H129478   6.023   1.410   7.274
 9845TIP3    H229479   6.168   1.376   7.292
 9846TIP3   OH229480   5.285   0.957   7.757
 9846TIP3    H129481   5.219   0.896   7.794
 9846TIP3    H229482   5.331   0.903   7.690
 9847TIP3   OH229483   5.669   0.888   7.568
 9847TIP3    H129484   5.693   0.857   7.657
 9847TIP3    H229485   5.573   0.874   7.569
 9848TIP3   OH229486   4.946   1.813   5.926
 9848TIP3    H129487   5.041   1.808   5.905
 9848TIP3    H229488   4.915   1.868   5.851
 9849TIP3   OH229489   4.424   1.197   6.143
 9849TIP3    H129490   4.519   1.219   6.129
 9849TIP3    H229491   4.418   1.109   6.100
 9850TIP3   OH229492   4.324   1.803   6.565
 9850TIP3    H129493   4.263   1.738   6.525
 9850TIP3    H229494   4.380   1.746   6.622
 9851TIP3   OH229495   4.479   1.652   6.739
 9851TIP3    H129496   4.467   1.586   6.808
 9851TIP3    H229497   4.528   1.721   6.788
 9852TIP3   OH229498   6.209   2.050   6.548
 9852TIP3    H129499   6.227   2.087   6.636
 9852TIP3    H229500   6.260   2.109   6.491
 9853TIP3   OH229501   6.234   2.079   6.828
 9853TIP3    H129502   6.186   1.993   6.823
 9853TIP3    H229503   6.301   2.056   6.893
 9854TIP3   OH229504   6.278   1.761   7.398
 9854TIP3    H129505   6.204   1.769   7.462
 9854TIP3    H229506   6.320   1.849   7.405
 9855TIP3   OH229507   6.094   1.272   6.018
 9855TIP3    H129508   6.162   1.336   5.989
 9855TIP3    H229509   6.137   1.233   6.097
 9856TIP3   OH229510   6.221   1.145   6.222
 9856TIP3    H129511   6.153   1.104   6.281
 9856TIP3    H229512   6.285   1.183   6.286
 9857TIP3   OH229513   6.279   1.532   6.656
 9857TIP3    H129514   6.332   1.464   6.611
 9857TIP3    H229515   6.269   1.600   6.587
 9858TIP3   OH229516   6.106   1.833   6.847
 9858TIP3    H129517   6.035   1.872   6.901
 9858TIP3    H229518   6.056   1.785   6.778
 9859TIP3   OH229519   6.153   1.046   5.872
 9859TIP3    H129520   6.083   1.050   5.803
 9859TIP3    H229521   6.126   1.124   5.926
 9860TIP3   OH229522   6.025   0.704   5.826
 9860TIP3    H129523   5.984   0.737   5.745
 9860TIP3    H229524   6.021   0.608   5.813
 9861TIP3   OH229525   6.033   1.010   6.365
 9861TIP3    H129526   6.036   0.915   6.341
 9861TIP3    H229527   6.021   1.008   6.463
 9862TIP3   OH229528   4.659   1.074   7.116
 9862TIP3    H129529   4.656   1.040   7.024
 9862TIP3    H229530   4.756   1.072   7.133
 9863TIP3   OH229531   6.323   1.420   7.220
 9863TIP3    H129532   6.395   1.353   7.216
 9863TIP3    H229533   6.352   1.486   7.156
 9864TIP3   OH229534   6.507   1.227   7.249
 9864TIP3    H129535   6.432   1.170   7.278
 9864TIP3    H229536   6.581   1.163   7.262
 9865TIP3   OH229537   6.036   0.762   6.238
 9865TIP3    H129538   6.063   0.682   6.290
 9865TIP3    H229539   6.099   0.761   6.164
 9866TIP3   OH229540   6.189   0.889   6.765
 9866TIP3    H129541   6.274   0.913   6.723
 9866TIP3    H229542   6.204   0.925   6.854
 9867TIP3   OH229543   6.255   1.038   6.990
 9867TIP3    H129544   6.179   1.074   7.040
 9867TIP3    H229545   6.289   1.118   6.945
 9868TIP3   OH229546   4.873   0.755   7.788
 9868TIP3    H129547   4.969   0.752   7.788
 9868TIP3    H229548   4.849   0.663   7.810
 9869TIP3   OH229549   4.635   0.723   7.189
 9869TIP3    H129550   4.685   0.726   7.104
 9869TIP3    H229551   4.676   0.794   7.238
 9870TIP3   OH229552   5.788   1.927   6.202
 9870TIP3    H129553   5.839   1.914   6.119
 9870TIP3    H229554   5.840   1.997   6.246
 9871TIP3   OH229555   4.884   1.739   7.584
 9871TIP3    H129556   4.794   1.706   7.568
 9871TIP3    H229557   4.901   1.709   7.674
 9872TIP3   OH229558   5.065   1.768   7.135
 9872TIP3    H129559   5.019   1.844   7.095
 9872TIP3    H229560   5.151   1.779   7.089
 9873TIP3   OH229561   5.506   2.009   7.271
 9873TIP3    H129562   5.549   2.008   7.360
 9873TIP3    H229563   5.572   2.061   7.220
 9874TIP3   OH229564   5.686   2.163   7.132
 9874TIP3    H129565   5.755   2.110   7.090
 9874TIP3    H229566   5.739   2.219   7.192
 9875TIP3   OH229567   4.741   2.021   7.159
 9875TIP3    H129568   4.652   2.053   7.134
 9875TIP3    H229569   4.753   2.068   7.243
 9876TIP3   OH229570   4.978   2.002   7.017
 9876TIP3    H129571   4.890   2.013   7.059
 9876TIP3    H229572   4.959   2.033   6.926
 9877TIP3   OH229573   5.403   2.027   6.815
 9877TIP3    H129574   5.332   2.044   6.751
 9877TIP3    H229575   5.415   2.115   6.855
 9878TIP3   OH229576   5.672   1.968   6.867
 9878TIP3    H129577   5.577   1.983   6.847
 9878TIP3    H229578   5.713   2.043   6.820
 9879TIP3   OH229579   5.882   2.160   6.779
 9879TIP3    H129580   5.865   2.244   6.731
 9879TIP3    H229581   5.904   2.099   6.706
 9880TIP3   OH229582   4.648   1.812   6.905
 9880TIP3    H129583   4.679   1.784   6.994
 9880TIP3    H229584   4.720   1.773   6.850
 9881TIP3   OH229585   4.845   1.689   6.763
 9881TIP3    H129586   4.862   1.605   6.810
 9881TIP3    H229587   4.936   1.725   6.757
 9882TIP3   OH229588   5.113   1.779   6.766
 9882TIP3    H129589   5.143   1.687   6.753
 9882TIP3    H229590   5.161   1.801   6.847
 9883TIP3   OH229591   4.440   1.592   6.295
 9883TIP3    H129592   4.355   1.560   6.260
 9883TIP3    H229593   4.433   1.686   6.271
 9884TIP3   OH229594   5.214   1.771   5.875
 9884TIP3    H129595   5.301   1.795   5.838
 9884TIP3    H229596   5.191   1.697   5.815
 9885TIP3   OH229597   5.935   1.895   5.969
 9885TIP3    H129598   5.927   1.798   5.958
 9885TIP3    H229599   5.887   1.927   5.890
 9886TIP3   OH229600   4.515   1.609   5.930
 9886TIP3    H129601   4.518   1.638   6.022
 9886TIP3    H229602   4.603   1.568   5.917
 9887TIP3   OH229603   6.158   2.038   7.153
 9887TIP3    H129604   6.078   2.006   7.106
 9887TIP3    H229605   6.136   2.133   7.161
 9888TIP3   OH229606   7.410   1.416   5.939
 9888TIP3    H129607   7.383   1.505   5.906
 9888TIP3    H229608   7.350   1.360   5.887
 9889TIP3   OH229609   7.414   1.426   6.295
 9889TIP3    H129610   7.433   1.392   6.385
 9889TIP3    H229611   7.376   1.348   6.252
 9890TIP3   OH229612   6.723   1.302   6.667
 9890TIP3    H129613   6.746   1.228   6.728
 9890TIP3    H229614   6.809   1.347   6.662
 9891TIP3   OH229615   7.668   1.718   5.987
 9891TIP3    H129616   7.651   1.644   6.046
 9891TIP3    H229617   7.703   1.786   6.047
 9892TIP3   OH229618   6.719   1.714   6.401
 9892TIP3    H129619   6.664   1.634   6.405
 9892TIP3    H229620   6.801   1.670   6.377
 9893TIP3   OH229621   6.391   0.931   6.189
 9893TIP3    H129622   6.333   1.009   6.197
 9893TIP3    H229623   6.334   0.873   6.135
 9894TIP3   OH229624   6.456   1.217   6.351
 9894TIP3    H129625   6.494   1.133   6.384
 9894TIP3    H229626   6.514   1.237   6.276
 9895TIP3   OH229627   7.319   2.171   6.005
 9895TIP3    H129628   7.353   2.103   5.944
 9895TIP3    H229629   7.338   2.131   6.090
 9896TIP3   OH229630   7.226   1.658   6.368
 9896TIP3    H129631   7.238   1.582   6.309
 9896TIP3    H229632   7.320   1.679   6.384
 9897TIP3   OH229633   7.624   1.141   6.403
 9897TIP3    H129634   7.667   1.056   6.422
 9897TIP3    H229635   7.600   1.132   6.309
 9898TIP3   OH229636   6.966   0.756   6.312
 9898TIP3    H129637   6.939   0.847   6.287
 9898TIP3    H229638   6.881   0.710   6.306
 9899TIP3   OH229639   7.632   0.914   6.023
 9899TIP3    H129640   7.692   0.864   6.081
 9899TIP3    H229641   7.686   0.919   5.942
 9900TIP3   OH229642   6.580   0.997   6.446
 9900TIP3    H129643   6.672   0.998   6.479
 9900TIP3    H229644   6.592   0.935   6.371
 9901TIP3   OH229645   7.042   1.201   6.252
 9901TIP3    H129646   7.136   1.173   6.265
 9901TIP3    H229647   7.001   1.115   6.226
 9902TIP3   OH229648   7.313   1.633   5.790
 9902TIP3    H129649   7.277   1.612   5.703
 9902TIP3    H229650   7.260   1.711   5.816
 9903TIP3   OH229651   7.088   1.552   6.579
 9903TIP3    H129652   7.022   1.617   6.611
 9903TIP3    H229653   7.129   1.598   6.503
 9904TIP3   OH229654   6.836   0.960   6.508
 9904TIP3    H129655   6.901   1.008   6.563
 9904TIP3    H229656   6.861   0.869   6.533
 9905TIP3   OH229657   6.896   1.757   6.658
 9905TIP3    H129658   6.825   1.775   6.594
 9905TIP3    H229659   6.840   1.735   6.735
 9906TIP3   OH229660   6.295   1.442   5.910
 9906TIP3    H129661   6.254   1.465   5.825
 9906TIP3    H229662   6.326   1.528   5.943
 9907TIP3   OH229663   7.726   1.960   6.159
 9907TIP3    H129664   7.633   1.952   6.186
 9907TIP3    H229665   7.725   2.043   6.108
 9908TIP3   OH229666   7.432   2.003   5.819
 9908TIP3    H129667   7.482   1.921   5.800
 9908TIP3    H229668   7.494   2.069   5.780
 9909TIP3   OH229669   7.575   1.787   5.737
 9909TIP3    H129670   7.530   1.706   5.709
 9909TIP3    H229671   7.618   1.756   5.820
 9910TIP3   OH229672   7.932   1.860   6.490
 9910TIP3    H129673   7.940   1.787   6.425
 9910TIP3    H229674   7.953   1.938   6.437
 9911TIP3   OH229675   7.270   1.277   5.738
 9911TIP3    H129676   7.183   1.317   5.717
 9911TIP3    H229677   7.324   1.303   5.662
 9912TIP3   OH229678   7.205   1.040   5.470
 9912TIP3    H129679   7.272   1.094   5.514
 9912TIP3    H229680   7.262   0.986   5.411
 9913TIP3   OH229681   8.189   1.510   6.340
 9913TIP3    H129682   8.094   1.532   6.348
 9913TIP3    H229683   8.205   1.530   6.245
 9914TIP3   OH229684   7.586   1.287   5.765
 9914TIP3    H129685   7.541   1.346   5.828
 9914TIP3    H229686   7.678   1.313   5.772
 9915TIP3   OH229687   7.867   1.372   6.515
 9915TIP3    H129688   7.907   1.440   6.573
 9915TIP3    H229689   7.805   1.423   6.462
 9916TIP3   OH229690   6.833   1.343   6.140
 9916TIP3    H129691   6.791   1.283   6.075
 9916TIP3    H229692   6.909   1.289   6.171
 9917TIP3   OH229693   6.975   1.307   6.500
 9917TIP3    H129694   7.001   1.281   6.409
 9917TIP3    H229695   7.024   1.390   6.516
 9918TIP3   OH229696   7.468   1.957   6.279
 9918TIP3    H129697   7.494   2.032   6.336
 9918TIP3    H229698   7.486   1.879   6.336
 9919TIP3   OH229699   7.100   1.872   6.813
 9919TIP3    H129700   7.044   1.932   6.867
 9919TIP3    H229701   7.030   1.824   6.764
 9920TIP3   OH229702   6.839   1.461   6.917
 9920TIP3    H129703   6.841   1.534   6.981
 9920TIP3    H229704   6.751   1.422   6.937
 9921TIP3   OH229705   7.182   1.888   5.836
 9921TIP3    H129706   7.267   1.935   5.834
 9921TIP3    H229707   7.127   1.942   5.778
 9922TIP3   OH229708   6.896   2.033   6.913
 9922TIP3    H129709   6.838   2.035   6.836
 9922TIP3    H229710   6.830   2.014   6.983
 9923TIP3   OH229711   6.698   1.185   5.949
 9923TIP3    H129712   6.632   1.229   5.892
 9923TIP3    H229713   6.663   1.096   5.955
 9924TIP3   OH229714   7.751   1.814   5.149
 9924TIP3    H129715   7.764   1.909   5.132
 9924TIP3    H229716   7.842   1.779   5.136
 9925TIP3   OH229717   6.484   1.574   6.848
 9925TIP3    H129718   6.414   1.550   6.784
 9925TIP3    H229719   6.516   1.486   6.878
 9926TIP3   OH229720   6.332   1.768   6.482
 9926TIP3    H129721   6.427   1.775   6.494
 9926TIP3    H229722   6.300   1.845   6.532
 9927TIP3   OH229723   8.183   2.224   6.531
 9927TIP3    H129724   8.206   2.130   6.538
 9927TIP3    H229725   8.103   2.228   6.588
 9928TIP3   OH229726   7.290   1.996   6.660
 9928TIP3    H129727   7.304   2.086   6.699
 9928TIP3    H229728   7.231   1.958   6.729
 9929TIP3   OH229729   7.070   2.125   5.630
 9929TIP3    H129730   7.024   2.103   5.547
 9929TIP3    H229731   7.036   2.214   5.651
 9930TIP3   OH229732   6.504   1.976   6.011
 9930TIP3    H129733   6.540   1.962   6.101
 9930TIP3    H229734   6.452   1.895   6.000
 9931TIP3   OH229735   7.270   2.029   5.266
 9931TIP3    H129736   7.326   1.957   5.230
 9931TIP3    H229737   7.305   2.038   5.357
 9932TIP3   OH229738   7.321   2.080   5.536
 9932TIP3    H129739   7.233   2.088   5.578
 9932TIP3    H229740   7.372   2.036   5.606
 9933TIP3   OH229741   6.689   1.756   6.838
 9933TIP3    H129742   6.734   1.743   6.924
 9933TIP3    H229743   6.618   1.689   6.843
 9934TIP3   OH229744   7.034   1.084   6.653
 9934TIP3    H129745   6.994   1.119   6.735
 9934TIP3    H229746   7.021   1.162   6.595
 9935TIP3   OH229747   6.899   0.982   6.165
 9935TIP3    H129748   6.805   0.956   6.178
 9935TIP3    H229749   6.916   0.948   6.074
 9936TIP3   OH229750   7.387   1.068   5.875
 9936TIP3    H129751   7.339   1.143   5.833
 9936TIP3    H229752   7.458   1.056   5.810
 9937TIP3   OH229753   7.532   1.133   6.143
 9937TIP3    H129754   7.477   1.175   6.074
 9937TIP3    H229755   7.556   1.050   6.095
 9938TIP3   OH229756   6.817   1.116   6.858
 9938TIP3    H129757   6.858   1.179   6.919
 9938TIP3    H229758   6.817   1.033   6.908
 9939TIP3   OH229759   6.466   0.729   5.990
 9939TIP3    H129760   6.478   0.693   5.901
 9939TIP3    H229761   6.371   0.753   5.989
 9940TIP3   OH229762   7.501   1.341   6.539
 9940TIP3    H129763   7.540   1.263   6.492
 9940TIP3    H229764   7.567   1.350   6.610
 9941TIP3   OH229765   6.649   0.853   6.209
 9941TIP3    H129766   6.557   0.886   6.195
 9941TIP3    H229767   6.645   0.773   6.155
 9942TIP3   OH229768   6.943   0.876   5.918
 9942TIP3    H129769   7.033   0.862   5.883
 9942TIP3    H229770   6.887   0.867   5.838
 9943TIP3   OH229771   6.776   0.860   5.694
 9943TIP3    H129772   6.700   0.843   5.634
 9943TIP3    H229773   6.835   0.904   5.629
 9944TIP3   OH229774   7.896   2.568   6.634
 9944TIP3    H129775   7.894   2.590   6.539
 9944TIP3    H229776   7.974   2.618   6.663
 9945TIP3   OH229777   6.844   1.696   7.068
 9945TIP3    H129778   6.925   1.718   7.119
 9945TIP3    H229779   6.780   1.687   7.141
 9946TIP3   OH229780   7.299   1.132   6.317
 9946TIP3    H129781   7.383   1.103   6.278
 9946TIP3    H229782   7.308   1.101   6.410
 9947TIP3   OH229783   7.311   1.060   6.581
 9947TIP3    H129784   7.219   1.038   6.606
 9947TIP3    H229785   7.350   1.086   6.666
 9948TIP3   OH229786   7.023   1.416   5.703
 9948TIP3    H129787   6.953   1.348   5.691
 9948TIP3    H229788   7.002   1.449   5.794
 9949TIP3   OH229789   7.935   1.638   6.328
 9949TIP3    H129790   7.961   1.689   6.249
 9949TIP3    H229791   7.849   1.599   6.301
 9950TIP3   OH229792   7.468   0.797   5.523
 9950TIP3    H129793   7.408   0.754   5.587
 9950TIP3    H229794   7.497   0.876   5.573
 9951TIP3   OH229795   7.433   1.744   6.700
 9951TIP3    H129796   7.410   1.696   6.780
 9951TIP3    H229797   7.385   1.828   6.710
 9952TIP3   OH229798   7.560   1.019   5.654
 9952TIP3    H129799   7.654   1.016   5.680
 9952TIP3    H229800   7.555   1.110   5.619
 9953TIP3   OH229801   6.726   1.441   6.378
 9953TIP3    H129802   6.758   1.406   6.292
 9953TIP3    H229803   6.757   1.374   6.440
 9954TIP3   OH229804   7.169   1.568   5.528
 9954TIP3    H129805   7.118   1.652   5.533
 9954TIP3    H229806   7.114   1.509   5.584
 9955TIP3   OH229807   6.585   1.364   6.997
 9955TIP3    H129808   6.611   1.341   7.088
 9955TIP3    H229809   6.520   1.295   6.976
 9956TIP3   OH229810   7.330   1.487   7.015
 9956TIP3    H129811   7.279   1.433   6.953
 9956TIP3    H229812   7.399   1.424   7.039
 9957TIP3   OH229813   7.574   2.008   6.577
 9957TIP3    H129814   7.481   1.986   6.595
 9957TIP3    H229815   7.599   2.048   6.663
 9958TIP3   OH229816   7.991   1.062   5.494
 9958TIP3    H129817   7.934   1.010   5.433
 9958TIP3    H229818   7.976   1.152   5.458
 9959TIP3   OH229819   7.697   1.884   5.413
 9959TIP3    H129820   7.676   1.808   5.470
 9959TIP3    H229821   7.707   1.842   5.325
 9960TIP3   OH229822   7.687   1.510   6.265
 9960TIP3    H129823   7.592   1.487   6.263
 9960TIP3    H229824   7.723   1.435   6.212
 9961TIP3   OH229825   6.811   1.760   6.018
 9961TIP3    H129826   6.809   1.830   5.950
 9961TIP3    H229827   6.727   1.715   6.002
 9962TIP3   OH229828   6.375   1.049   5.711
 9962TIP3    H129829   6.423   1.132   5.731
 9962TIP3    H229830   6.299   1.055   5.772
 9963TIP3   OH229831   6.947   1.514   5.947
 9963TIP3    H129832   6.925   1.603   5.979
 9963TIP3    H229833   6.914   1.458   6.020
 9964TIP3   OH229834   6.737   1.983   5.855
 9964TIP3    H129835   6.650   1.992   5.898
 9964TIP3    H229836   6.770   2.075   5.859
 9965TIP3   OH229837   7.486   1.725   6.432
 9965TIP3    H129838   7.479   1.716   6.530
 9965TIP3    H229839   7.553   1.659   6.410
 9966TIP3   OH229840   7.455   1.601   5.317
 9966TIP3    H129841   7.486   1.512   5.344
 9966TIP3    H229842   7.366   1.597   5.354
 9967TIP3   OH229843   7.715   2.262   6.490
 9967TIP3    H129844   7.644   2.196   6.479
 9967TIP3    H229845   7.705   2.317   6.409
 9968TIP3   OH229846   7.790   2.089   5.132
 9968TIP3    H129847   7.822   2.164   5.079
 9968TIP3    H229848   7.709   2.130   5.168
 9969TIP3   OH229849   6.538   1.940   6.632
 9969TIP3    H129850   6.572   1.871   6.692
 9969TIP3    H229851   6.540   2.017   6.690
 9970TIP3   OH229852   6.812   1.594   5.314
 9970TIP3    H129853   6.829   1.503   5.284
 9970TIP3    H229854   6.792   1.579   5.409
 9971TIP3   OH229855   6.758   1.598   5.588
 9971TIP3    H129856   6.835   1.568   5.639
 9971TIP3    H229857   6.765   1.696   5.595
 9972TIP3   OH229858   6.496   1.291   5.791
 9972TIP3    H129859   6.429   1.336   5.846
 9972TIP3    H229860   6.510   1.358   5.722
 9973TIP3   OH229861   7.029   1.799   5.541
 9973TIP3    H129862   6.940   1.825   5.572
 9973TIP3    H229863   7.042   1.861   5.468
 9974TIP3   OH229864   7.232   0.846   5.908
 9974TIP3    H129865   7.285   0.929   5.899
 9974TIP3    H229866   7.233   0.832   6.003
 9975TIP3   OH229867   7.487   1.144   6.807
 9975TIP3    H129868   7.535   1.227   6.787
 9975TIP3    H229869   7.554   1.081   6.774
 9976TIP3   OH229870   6.772   1.872   5.602
 9976TIP3    H129871   6.742   1.940   5.539
 9976TIP3    H229872   6.755   1.916   5.688
 9977TIP3   OH229873   7.770   1.283   6.127
 9977TIP3    H129874   7.693   1.225   6.140
 9977TIP3    H229875   7.842   1.235   6.174
 9978TIP3   OH229876   6.490   1.497   5.594
 9978TIP3    H129877   6.563   1.562   5.601
 9978TIP3    H229878   6.531   1.437   5.527
 9979TIP3   OH229879   6.445   0.781   5.681
 9979TIP3    H129880   6.421   0.874   5.702
 9979TIP3    H229881   6.369   0.731   5.712
 9980TIP3   OH229882   7.742   2.228   6.072
 9980TIP3    H129883   7.701   2.277   5.997
 9980TIP3    H229884   7.837   2.249   6.054
 9981TIP3   OH229885   6.361   1.722   5.979
 9981TIP3    H129886   6.293   1.746   6.043
 9981TIP3    H229887   6.324   1.761   5.896
 9982TIP3   OH229888   6.519   2.260   7.051
 9982TIP3    H129889   6.603   2.260   7.101
 9982TIP3    H229890   6.496   2.166   7.053
 9983TIP3   OH229891   6.999   2.227   7.089
 9983TIP3    H129892   7.089   2.200   7.108
 9983TIP3    H229893   6.974   2.162   7.020
 9984TIP3   OH229894   6.980   1.794   5.228
 9984TIP3    H129895   6.924   1.722   5.264
 9984TIP3    H229896   7.055   1.743   5.192
 9985TIP3   OH229897   7.603   2.116   6.827
 9985TIP3    H129898   7.598   2.046   6.897
 9985TIP3    H229899   7.685   2.163   6.853
 9986TIP3   OH229900   7.415   1.829   5.143
 9986TIP3    H129901   7.454   1.762   5.202
 9986TIP3    H229902   7.476   1.826   5.067
 9987TIP3   OH229903   6.644   1.664   7.252
 9987TIP3    H129904   6.660   1.569   7.265
 9987TIP3    H229905   6.557   1.665   7.207
 9988TIP3   OH229906   6.624   1.311   5.449
 9988TIP3    H129907   6.681   1.276   5.520
 9988TIP3    H229908   6.690   1.315   5.376
 9989TIP3   OH229909   7.266   1.759   7.007
 9989TIP3    H129910   7.203   1.771   6.933
 9989TIP3    H229911   7.283   1.662   7.006
 9990TIP3   OH229912   7.132   1.512   5.256
 9990TIP3    H129913   7.143   1.520   5.353
 9990TIP3    H229914   7.140   1.415   5.245
 9991TIP3   OH229915   7.745   1.765   6.661
 9991TIP3    H129916   7.816   1.797   6.601
 9991TIP3    H229917   7.669   1.815   6.626
 9992TIP3   OH229918   6.775   1.393   7.220
 9992TIP3    H129919   6.846   1.327   7.216
 9992TIP3    H229920   6.779   1.416   7.315
 9993TIP3   OH229921   6.830   1.218   5.668
 9993TIP3    H129922   6.807   1.175   5.752
 9993TIP3    H229923   6.868   1.144   5.617
 9994TIP3   OH229924   7.055   1.310   6.831
 9994TIP3    H129925   6.993   1.381   6.858
 9994TIP3    H229926   7.125   1.357   6.783
 9995TIP3   OH229927   6.931   1.011   5.516
 9995TIP3    H129928   6.904   1.014   5.422
 9995TIP3    H229929   7.029   1.013   5.505
 9996TIP3   OH229930   7.788   1.348   5.147
 9996TIP3    H129931   7.714   1.291   5.124
 9996TIP3    H229932   7.743   1.435   5.136
 9997TIP3   OH229933   7.207   1.116   6.976
 9997TIP3    H129934   7.213   1.173   6.898
 9997TIP3    H229935   7.168   1.036   6.940
 9998TIP3   OH229936   7.284   1.411   6.713
 9998TIP3    H129937   7.353   1.379   6.651
 9998TIP3    H229938   7.227   1.464   6.654
 9999TIP3   OH229939   7.044   1.199   7.181
 9999TIP3    H129940   6.997   1.116   7.182
 9999TIP3    H229941   7.105   1.187   7.105
10000TIP3   OH229942   6.744   2.077   5.418
10000TIP3    H129943   6.838   2.068   5.395
10000TIP3    H229944   6.713   2.124   5.338
10001TIP3   OH229945   6.221   1.455   5.631
10001TIP3    H129946   6.316   1.476   5.615
10001TIP3    H229947   6.214   1.366   5.588
10002TIP3   OH229948   6.137   2.067   6.045
10002TIP3    H129949   6.070   2.006   6.007
10002TIP3    H229950   6.181   2.007   6.110
10003TIP3   OH229951   6.270   1.916   6.233
10003TIP3    H129952   6.255   1.843   6.296
10003TIP3    H229953   6.318   1.978   6.290
10004TIP3   OH229954   7.996   2.320   6.033
10004TIP3    H129955   8.032   2.356   6.116
10004TIP3    H229956   8.063   2.347   5.968
10005TIP3   OH229957   8.024   2.343   6.319
10005TIP3    H129958   7.981   2.255   6.307
10005TIP3    H229959   8.102   2.315   6.370
10006TIP3   OH229960   7.912   1.532   5.491
10006TIP3    H129961   7.986   1.594   5.475
10006TIP3    H229962   7.937   1.494   5.578
10007TIP3   OH229963   8.014   1.413   5.712
10007TIP3    H129964   7.948   1.361   5.764
10007TIP3    H229965   8.071   1.448   5.783
10008TIP3   OH229966   8.067   1.789   6.138
10008TIP3    H129967   8.121   1.723   6.092
10008TIP3    H229968   8.067   1.864   6.075
10009TIP3   OH229969   7.905   2.092   6.330
10009TIP3    H129970   7.831   2.115   6.388
10009TIP3    H229971   7.860   2.040   6.260
10010TIP3   OH229972   7.947   1.297   5.356
10010TIP3    H129973   7.885   1.310   5.281
10010TIP3    H229974   7.923   1.377   5.408
10011TIP3   OH229975   7.821   0.957   5.293
10011TIP3    H129976   7.796   1.048   5.275
10011TIP3    H229977   7.759   0.910   5.234
10012TIP3   OH229978   7.850   1.262   5.859
10012TIP3    H129979   7.832   1.171   5.829
10012TIP3    H229980   7.821   1.262   5.952
10013TIP3   OH229981   6.459   1.330   6.603
10013TIP3    H129982   6.456   1.296   6.511
10013TIP3    H229983   6.556   1.327   6.621
10014TIP3   OH229984   7.828   1.013   5.728
10014TIP3    H129985   7.858   0.933   5.776
10014TIP3    H229986   7.891   1.019   5.653
10015TIP3   OH229987   7.982   1.163   6.253
10015TIP3    H129988   8.074   1.159   6.225
10015TIP3    H229989   7.989   1.180   6.348
10016TIP3   OH229990   6.662   1.004   7.267
10016TIP3    H129991   6.758   0.999   7.274
10016TIP3    H229992   6.634   0.922   7.311
10017TIP3   OH229993   6.433   0.977   6.679
10017TIP3    H129994   6.479   0.978   6.593
10017TIP3    H229995   6.472   1.055   6.722
10018TIP3   OH229996   7.583   2.186   5.690
10018TIP3    H129997   7.630   2.169   5.606
10018TIP3    H229998   7.641   2.252   5.732
10019TIP3   OH229999   6.683   1.992   7.079
10019TIP3    H130000   6.591   1.966   7.064
10019TIP3    H230001   6.695   1.969   7.173
10020TIP3   OH230002   7.301   2.258   6.751
10020TIP3    H130003   7.338   2.260   6.842
10020TIP3    H230004   7.368   2.312   6.703
10021TIP3   OH230005   7.479   2.413   6.613
10021TIP3    H130006   7.543   2.361   6.562
10021TIP3    H230007   7.538   2.473   6.663
10022TIP3   OH230008   6.544   2.274   6.644
10022TIP3    H130009   6.454   2.305   6.618
10022TIP3    H230010   6.555   2.321   6.728
10023TIP3   OH230011   6.786   2.257   6.495
10023TIP3    H130012   6.703   2.254   6.546
10023TIP3    H230013   6.755   2.291   6.410
10024TIP3   OH230014   7.196   2.273   6.301
10024TIP3    H130015   7.132   2.301   6.233
10024TIP3    H230016   7.210   2.359   6.347
10025TIP3   OH230017   7.468   2.229   6.354
10025TIP3    H130018   7.376   2.248   6.328
10025TIP3    H230019   7.516   2.298   6.305
10026TIP3   OH230020   7.670   2.413   6.264
10026TIP3    H130021   7.658   2.498   6.217
10026TIP3    H230022   7.701   2.354   6.191
10027TIP3   OH230023   6.452   2.075   6.389
10027TIP3    H130024   6.478   2.049   6.479
10027TIP3    H230025   6.521   2.027   6.338
10028TIP3   OH230026   6.639   1.932   6.250
10028TIP3    H130027   6.653   1.850   6.303
10028TIP3    H230028   6.725   1.939   6.207
10029TIP3   OH230029   6.236   1.848   5.777
10029TIP3    H130030   6.150   1.813   5.745
10029TIP3    H230031   6.225   1.941   5.750
10030TIP3   OH230032   7.010   2.031   5.362
10030TIP3    H130033   7.098   2.053   5.325
10030TIP3    H230034   6.987   1.956   5.303
10031TIP3   OH230035   7.726   2.150   5.457
10031TIP3    H130036   7.720   2.052   5.444
10031TIP3    H230037   7.682   2.182   5.376
10032TIP3   OH230038   6.314   1.868   5.416
10032TIP3    H130039   6.315   1.887   5.511
10032TIP3    H230040   6.401   1.824   5.403
10033TIP3   OH230041   7.937   2.296   6.646
10033TIP3    H130042   7.865   2.269   6.584
10033TIP3    H230043   7.934   2.393   6.636
10034TIP3   OH230044   8.472   1.954   5.929
10034TIP3    H130045   8.436   1.884   5.874
10034TIP3    H230046   8.563   1.959   5.893
10035TIP3   OH230047   8.196   1.206   5.695
10035TIP3    H130048   8.124   1.270   5.681
10035TIP3    H230049   8.167   1.132   5.640
10036TIP3   OH230050   8.277   1.457   5.836
10036TIP3    H130051   8.283   1.361   5.821
10036TIP3    H230052   8.313   1.491   5.753
10037TIP3   OH230053   8.112   1.703   5.397
10037TIP3    H130054   8.050   1.725   5.325
10037TIP3    H230055   8.131   1.791   5.435
10038TIP3   OH230056   8.291   1.811   6.306
10038TIP3    H130057   8.215   1.818   6.246
10038TIP3    H230058   8.256   1.752   6.373
10039TIP3   OH230059   8.136   2.017   5.978
10039TIP3    H130060   8.232   2.017   5.965
10039TIP3    H230061   8.124   2.098   6.029
10040TIP3   OH230062   8.271   2.228   5.495
10040TIP3    H130063   8.353   2.239   5.548
10040TIP3    H230064   8.243   2.140   5.523
10041TIP3   OH230065   8.256   0.983   5.463
10041TIP3    H130066   8.269   1.000   5.368
10041TIP3    H230067   8.161   1.001   5.473
10042TIP3   OH230068   8.172   1.295   5.196
10042TIP3    H130069   8.220   1.378   5.216
10042TIP3    H230070   8.095   1.304   5.256
10043TIP3   OH230071   8.312   2.209   6.120
10043TIP3    H130072   8.371   2.137   6.144
10043TIP3    H230073   8.354   2.285   6.163
10044TIP3   OH230074   8.283   1.541   5.260
10044TIP3    H130075   8.222   1.585   5.322
10044TIP3    H230076   8.282   1.603   5.185
10045TIP3   OH230077   8.277   1.735   5.062
10045TIP3    H130078   8.346   1.797   5.094
10045TIP3    H230079   8.305   1.720   4.970
10046TIP3   OH230080   8.232   1.030   5.189
10046TIP3    H130081   8.222   1.127   5.192
10046TIP3    H230082   8.140   1.001   5.185
10047TIP3   OH230083   8.138   1.965   5.470
10047TIP3    H130084   8.070   2.004   5.527
10047TIP3    H230085   8.123   2.013   5.386
10048TIP3   OH230086   8.274   2.480   6.523
10048TIP3    H130087   8.367   2.472   6.551
10048TIP3    H230088   8.246   2.386   6.523
10049TIP3   OH230089   8.006   1.713   5.112
10049TIP3    H130090   8.103   1.727   5.100
10049TIP3    H230091   7.997   1.622   5.075
10050TIP3   OH230092   7.929   2.323   5.533
10050TIP3    H130093   7.864   2.260   5.497
10050TIP3    H230094   7.978   2.265   5.596
10051TIP3   OH230095   8.060   2.170   5.720
10051TIP3    H130096   8.057   2.098   5.785
10051TIP3    H230097   8.119   2.233   5.765
10052TIP3   OH230098   8.252   1.590   6.076
10052TIP3    H130099   8.254   1.542   5.990
10052TIP3    H230100   8.345   1.608   6.089
10053TIP3   OH230101   8.323   2.525   6.140
10053TIP3    H130102   8.241   2.564   6.103
10053TIP3    H230103   8.321   2.564   6.228
10054TIP3   OH230104   8.583   2.513   6.016
10054TIP3    H130105   8.490   2.520   6.042
10054TIP3    H230106   8.578   2.542   5.923
10055TIP3   OH230107   8.235   2.328   5.877
10055TIP3    H130108   8.268   2.306   5.967
10055TIP3    H230109   8.309   2.289   5.824
10056TIP3   OH230110   8.425   2.194   5.737
10056TIP3    H130111   8.435   2.099   5.749
10056TIP3    H230112   8.515   2.218   5.707
10057TIP3   OH230113   8.039   2.098   5.254
10057TIP3    H130114   7.950   2.071   5.225
10057TIP3    H230115   8.031   2.194   5.248
10058TIP3   OH230116   8.110   2.134   4.920
10058TIP3    H130117   8.077   2.166   5.006
10058TIP3    H230118   8.177   2.070   4.947
10059TIP3   OH230119   1.672   2.455   7.097
10059TIP3    H130120   1.645   2.547   7.080
10059TIP3    H230121   1.597   2.406   7.060
10060TIP3   OH230122   1.654   2.464   7.464
10060TIP3    H130123   1.705   2.444   7.546
10060TIP3    H230124   1.617   2.378   7.441
10061TIP3   OH230125   1.916   2.755   7.167
10061TIP3    H130126   1.906   2.689   7.237
10061TIP3    H230127   1.948   2.833   7.217
10062TIP3   OH230128   0.950   2.763   7.565
10062TIP3    H130129   0.935   2.666   7.569
10062TIP3    H230130   1.047   2.765   7.556
10063TIP3   OH230131   0.699   2.225   7.498
10063TIP3    H130132   0.761   2.209   7.570
10063TIP3    H230133   0.745   2.292   7.446
10064TIP3   OH230134   1.561   3.217   7.174
10064TIP3    H130135   1.609   3.146   7.127
10064TIP3    H230136   1.556   3.182   7.264
10065TIP3   OH230137   1.471   2.680   7.515
10065TIP3    H130138   1.513   2.602   7.475
10065TIP3    H230139   1.551   2.723   7.551
10066TIP3   OH230140   2.479   2.001   7.516
10066TIP3    H130141   2.494   2.083   7.568
10066TIP3    H230142   2.497   2.032   7.425
10067TIP3   OH230143   1.867   2.159   7.563
10067TIP3    H130144   1.924   2.081   7.580
10067TIP3    H230145   1.851   2.151   7.467
10068TIP3   OH230146   1.250   1.842   7.524
10068TIP3    H130147   1.208   1.921   7.484
10068TIP3    H230148   1.185   1.773   7.503
10069TIP3   OH230149   1.917   1.933   7.146
10069TIP3    H130150   1.990   1.919   7.211
10069TIP3    H230151   1.969   1.966   7.070
10070TIP3   OH230152   1.296   2.240   7.431
10070TIP3    H130153   1.390   2.216   7.438
10070TIP3    H230154   1.257   2.158   7.392
10071TIP3   OH230155   2.541   2.198   7.694
10071TIP3    H130156   2.454   2.245   7.690
10071TIP3    H230157   2.591   2.256   7.755
10072TIP3   OH230158   1.573   2.684   6.959
10072TIP3    H130159   1.522   2.659   6.880
10072TIP3    H230160   1.522   2.762   6.990
10073TIP3   OH230161   2.120   1.940   7.328
10073TIP3    H130162   2.123   1.890   7.410
10073TIP3    H230163   2.175   2.018   7.350
10074TIP3   OH230164   0.548   2.489   7.095
10074TIP3    H130165   0.503   2.509   7.011
10074TIP3    H230166   0.573   2.577   7.128
10075TIP3   OH230167   1.987   3.001   7.324
10075TIP3    H130168   1.898   2.992   7.364
10075TIP3    H230169   1.979   3.088   7.279
10076TIP3   OH230170   2.277   1.893   7.700
10076TIP3    H130171   2.188   1.917   7.669
10076TIP3    H230172   2.334   1.927   7.629
10077TIP3   OH230173   1.689   3.044   7.002
10077TIP3    H130174   1.742   2.964   6.981
10077TIP3    H230175   1.748   3.112   6.962
10078TIP3   OH230176   1.824   2.815   6.915
10078TIP3    H130177   1.747   2.757   6.913
10078TIP3    H230178   1.867   2.790   6.999
10079TIP3   OH230179   2.209   2.912   7.671
10079TIP3    H130180   2.198   2.835   7.611
10079TIP3    H230181   2.189   2.987   7.611
10080TIP3   OH230182   1.504   2.307   6.931
10080TIP3    H130183   1.421   2.354   6.911
10080TIP3    H230184   1.546   2.303   6.843
10081TIP3   OH230185   1.479   2.103   6.635
10081TIP3    H130186   1.548   2.148   6.688
10081TIP3    H230187   1.531   2.032   6.593
10082TIP3   OH230188   2.407   2.549   7.516
10082TIP3    H130189   2.324   2.602   7.524
10082TIP3    H230190   2.435   2.574   7.426
10083TIP3   OH230191   1.851   2.394   6.901
10083TIP3    H130192   1.798   2.417   6.980
10083TIP3    H230193   1.935   2.365   6.944
10084TIP3   OH230194   2.075   2.456   7.786
10084TIP3    H130195   2.073   2.551   7.802
10084TIP3    H230196   1.995   2.445   7.733
10085TIP3   OH230197   1.085   2.395   7.318
10085TIP3    H130198   1.032   2.334   7.260
10085TIP3    H230199   1.157   2.337   7.348
10086TIP3   OH230200   1.217   2.798   7.464
10086TIP3    H130201   1.198   2.760   7.377
10086TIP3    H230202   1.305   2.760   7.484
10087TIP3   OH230203   1.200   2.380   7.650
10087TIP3    H130204   1.235   2.323   7.579
10087TIP3    H230205   1.276   2.437   7.669
10088TIP3   OH230206   1.749   2.993   7.448
10088TIP3    H130207   1.730   3.078   7.492
10088TIP3    H230208   1.725   2.926   7.515
10089TIP3   OH230209   1.699   2.246   6.729
10089TIP3    H130210   1.754   2.310   6.780
10089TIP3    H230211   1.722   2.271   6.636
10090TIP3   OH230212   1.437   2.925   7.001
10090TIP3    H130213   1.517   2.979   7.015
10090TIP3    H230214   1.375   2.988   6.962
10091TIP3   OH230215   2.208   1.470   6.777
10091TIP3    H130216   2.133   1.515   6.820
10091TIP3    H230217   2.270   1.543   6.758
10092TIP3   OH230218   0.935   2.234   7.149
10092TIP3    H130219   0.899   2.272   7.067
10092TIP3    H230220   0.930   2.141   7.125
10093TIP3   OH230221   2.445   3.261   7.712
10093TIP3    H130222   2.449   3.165   7.728
10093TIP3    H230223   2.368   3.283   7.768
10094TIP3   OH230224   1.577   3.056   7.868
10094TIP3    H130225   1.529   3.129   7.910
10094TIP3    H230226   1.509   2.986   7.864
10095TIP3   OH230227   1.316   3.168   6.806
10095TIP3    H130228   1.270   3.154   6.721
10095TIP3    H230229   1.286   3.258   6.831
10096TIP3   OH230230   0.752   3.021   7.189
10096TIP3    H130231   0.803   3.013   7.273
10096TIP3    H230232   0.705   2.936   7.188
10097TIP3   OH230233   1.512   3.075   6.445
10097TIP3    H130234   1.572   3.006   6.408
10097TIP3    H230235   1.551   3.088   6.534
10098TIP3   OH230236   1.567   3.124   6.713
10098TIP3    H130237   1.479   3.133   6.756
10098TIP3    H230238   1.620   3.089   6.786
10099TIP3   OH230239   1.762   2.286   6.467
10099TIP3    H130240   1.733   2.263   6.377
10099TIP3    H230241   1.841   2.339   6.448
10100TIP3   OH230242   1.478   1.667   6.769
10100TIP3    H130243   1.450   1.662   6.862
10100TIP3    H230244   1.439   1.585   6.734
10101TIP3   OH230245   1.167   2.023   7.324
10101TIP3    H130246   1.076   1.991   7.343
10101TIP3    H230247   1.176   1.991   7.232
10102TIP3   OH230248   1.638   2.105   7.063
10102TIP3    H130249   1.588   2.178   7.020
10102TIP3    H230250   1.694   2.075   6.989
10103TIP3   OH230251   1.796   2.134   7.298
10103TIP3    H130252   1.737   2.167   7.227
10103TIP3    H230253   1.831   2.055   7.251
10104TIP3   OH230254   1.134   1.631   6.753
10104TIP3    H130255   1.134   1.620   6.850
10104TIP3    H230256   1.055   1.684   6.742
10105TIP3   OH230257   1.820   2.403   7.673
10105TIP3    H130258   1.838   2.310   7.647
10105TIP3    H230259   1.786   2.395   7.764
10106TIP3   OH230260   1.488   1.833   7.391
10106TIP3    H130261   1.402   1.840   7.438
10106TIP3    H230262   1.549   1.861   7.461
10107TIP3   OH230263   0.947   1.878   7.376
10107TIP3    H130264   0.853   1.892   7.402
10107TIP3    H230265   0.960   1.784   7.395
10108TIP3   OH230266   1.184   1.909   7.066
10108TIP3    H130267   1.281   1.923   7.064
10108TIP3    H230268   1.152   1.971   6.999
10109TIP3   OH230269   1.974   1.909   7.621
10109TIP3    H130270   1.940   1.920   7.711
10109TIP3    H230271   1.902   1.857   7.579
10110TIP3   OH230272   2.160   3.601   7.800
10110TIP3    H130273   2.157   3.621   7.704
10110TIP3    H230274   2.238   3.654   7.828
10111TIP3   OH230275   1.566   2.170   7.475
10111TIP3    H130276   1.642   2.143   7.421
10111TIP3    H230277   1.596   2.150   7.564
10112TIP3   OH230278   1.114   1.633   7.396
10112TIP3    H130279   1.065   1.565   7.348
10112TIP3    H230280   1.188   1.649   7.336
10113TIP3   OH230281   1.270   2.452   6.879
10113TIP3    H130282   1.198   2.387   6.872
10113TIP3    H230283   1.253   2.490   6.969
10114TIP3   OH230284   2.174   2.694   7.505
10114TIP3    H130285   2.199   2.745   7.425
10114TIP3    H230286   2.088   2.656   7.479
10115TIP3   OH230287   1.731   1.770   6.742
10115TIP3    H130288   1.634   1.756   6.750
10115TIP3    H230289   1.743   1.864   6.767
10116TIP3   OH230290   1.801   2.017   6.846
10116TIP3    H130291   1.898   2.026   6.862
10116TIP3    H230292   1.781   2.099   6.796
10117TIP3   OH230293   0.964   2.482   7.552
10117TIP3    H130294   0.999   2.459   7.463
10117TIP3    H230295   1.035   2.445   7.608
10118TIP3   OH230296   1.416   2.607   6.702
10118TIP3    H130297   1.369   2.693   6.706
10118TIP3    H230298   1.361   2.551   6.761
10119TIP3   OH230299   1.841   3.018   7.799
10119TIP3    H130300   1.745   3.035   7.808
10119TIP3    H230301   1.879   3.084   7.859
10120TIP3   OH230302   2.232   2.119   6.694
10120TIP3    H130303   2.186   2.061   6.630
10120TIP3    H230304   2.230   2.201   6.642
10121TIP3   OH230305   2.454   2.972   7.761
10121TIP3    H130306   2.357   2.963   7.749
10121TIP3    H230307   2.483   2.937   7.674
10122TIP3   OH230308   1.939   2.566   7.413
10122TIP3    H130309   1.848   2.538   7.432
10122TIP3    H230310   1.975   2.484   7.372
10123TIP3   OH230311   1.069   2.787   7.178
10123TIP3    H130312   1.067   2.869   7.125
10123TIP3    H230313   0.975   2.770   7.189
10124TIP3   OH230314   0.603   2.094   6.895
10124TIP3    H130315   0.692   2.135   6.882
10124TIP3    H230316   0.576   2.145   6.973
10125TIP3   OH230317   1.203   2.552   7.120
10125TIP3    H130318   1.169   2.641   7.140
10125TIP3    H230319   1.167   2.501   7.196
10126TIP3   OH230320   1.335   3.132   7.638
10126TIP3    H130321   1.372   3.207   7.588
10126TIP3    H230322   1.415   3.085   7.664
10127TIP3   OH230323   0.986   3.027   7.032
10127TIP3    H130324   0.900   3.038   7.077
10127TIP3    H230325   1.021   3.119   7.036
10128TIP3   OH230326   1.726   2.763   7.613
10128TIP3    H130327   1.761   2.772   7.703
10128TIP3    H230328   1.801   2.719   7.571
10129TIP3   OH230329   1.696   2.651   6.484
10129TIP3    H130330   1.750   2.622   6.560
10129TIP3    H230331   1.607   2.630   6.516
10130TIP3   OH230332   1.962   3.296   7.653
10130TIP3    H130333   1.878   3.249   7.634
10130TIP3    H230334   1.959   3.365   7.583
10131TIP3   OH230335   1.858   2.574   6.693
10131TIP3    H130336   1.853   2.516   6.771
10131TIP3    H230337   1.898   2.654   6.730
10132TIP3   OH230338   1.066   2.634   6.491
10132TIP3    H130339   1.077   2.541   6.465
10132TIP3    H230340   1.044   2.626   6.585
10133TIP3   OH230341   1.008   2.645   6.762
10133TIP3    H130342   1.080   2.619   6.820
10133TIP3    H230343   1.011   2.743   6.770
10134TIP3   OH230344   0.731   2.334   6.966
10134TIP3    H130345   0.672   2.388   7.023
10134TIP3    H230346   0.760   2.398   6.899
10135TIP3   OH230347   1.776   1.722   7.025
10135TIP3    H130348   1.764   1.744   6.931
10135TIP3    H230349   1.820   1.803   7.060
10136TIP3   OH230350   1.275   2.838   6.710
10136TIP3    H130351   1.189   2.865   6.746
10136TIP3    H230352   1.295   2.915   6.655
10137TIP3   OH230353   1.458   1.906   7.125
10137TIP3    H130354   1.522   1.977   7.105
10137TIP3    H230355   1.467   1.898   7.222
10138TIP3   OH230356   1.611   1.632   7.230
10138TIP3    H130357   1.591   1.713   7.282
10138TIP3    H230358   1.674   1.668   7.163
10139TIP3   OH230359   1.020   2.916   6.780
10139TIP3    H130360   0.992   2.986   6.717
10139TIP3    H230361   1.006   2.961   6.867
10140TIP3   OH230362   1.138   1.641   7.031
10140TIP3    H130363   1.144   1.738   7.044
10140TIP3    H230364   1.234   1.618   7.033
10141TIP3   OH230365   2.025   2.316   7.302
10141TIP3    H130366   1.949   2.255   7.308
10141TIP3    H230367   2.096   2.268   7.349
10142TIP3   OH230368   0.743   2.546   6.763
10142TIP3    H130369   0.817   2.609   6.771
10142TIP3    H230370   0.785   2.481   6.702
10143TIP3   OH230371   0.737   1.833   6.819
10143TIP3    H130372   0.766   1.925   6.830
10143TIP3    H230373   0.674   1.826   6.893
10144TIP3   OH230374   1.993   3.272   7.249
10144TIP3    H130375   1.951   3.318   7.174
10144TIP3    H230376   2.088   3.289   7.229
10145TIP3   OH230377   0.608   2.772   7.161
10145TIP3    H130378   0.526   2.798   7.203
10145TIP3    H230379   0.592   2.805   7.071
10146TIP3   OH230380   1.225   2.839   6.399
10146TIP3    H130381   1.171   2.768   6.439
10146TIP3    H230382   1.302   2.788   6.369
10147TIP3   OH230383   1.658   2.881   6.315
10147TIP3    H130384   1.702   2.819   6.376
10147TIP3    H230385   1.718   2.883   6.238
10148TIP3   OH230386   0.866   2.347   6.623
10148TIP3    H130387   0.899   2.280   6.687
10148TIP3    H230388   0.944   2.356   6.564
10149TIP3   OH230389   1.389   2.554   6.431
10149TIP3    H130390   1.387   2.567   6.528
10149TIP3    H230391   1.382   2.456   6.426
10150TIP3   OH230392   1.981   2.780   7.772
10150TIP3    H130393   2.072   2.813   7.759
10150TIP3    H230394   1.935   2.864   7.788
10151TIP3   OH230395   2.004   2.385   6.349
10151TIP3    H130396   1.981   2.340   6.266
10151TIP3    H230397   1.973   2.476   6.328
10152TIP3   OH230398   0.989   3.115   6.591
10152TIP3    H130399   1.085   3.110   6.573
10152TIP3    H230400   0.962   3.167   6.513
10153TIP3   OH230401   0.481   2.496   6.815
10153TIP3    H130402   0.575   2.522   6.800
10153TIP3    H230403   0.476   2.412   6.767
10154TIP3   OH230404   0.365   3.113   7.225
10154TIP3    H130405   0.322   3.046   7.172
10154TIP3    H230406   0.412   3.061   7.293
10155TIP3   OH230407   0.505   2.970   7.410
10155TIP3    H130408   0.532   2.886   7.447
10155TIP3    H230409   0.561   3.032   7.462
10156TIP3   OH230410   2.251   3.353   7.212
10156TIP3    H130411   2.277   3.391   7.297
10156TIP3    H230412   2.305   3.405   7.149
10157TIP3   OH230413   2.277   3.381   7.494
10157TIP3    H130414   2.232   3.295   7.486
10157TIP3    H230415   2.348   3.356   7.555
10158TIP3   OH230416   2.327   2.833   7.321
10158TIP3    H130417   2.375   2.767   7.268
10158TIP3    H230418   2.322   2.909   7.259
10159TIP3   OH230419   2.148   3.132   7.511
10159TIP3    H130420   2.075   3.173   7.561
10159TIP3    H230421   2.101   3.086   7.439
10160TIP3   OH230422   2.196   2.367   6.539
10160TIP3    H130423   2.138   2.364   6.460
10160TIP3    H230424   2.134   2.407   6.601
10161TIP3   OH230425   2.080   2.021   6.485
10161TIP3    H130426   2.034   2.057   6.409
10161TIP3    H230427   2.055   1.926   6.480
10162TIP3   OH230428   2.070   2.293   7.026
10162TIP3    H130429   2.086   2.197   7.020
10162TIP3    H230430   2.068   2.309   7.122
10163TIP3   OH230431   2.344   2.694   7.865
10163TIP3    H130432   2.435   2.668   7.889
10163TIP3    H230433   2.355   2.787   7.841
10164TIP3   OH230434   2.552   2.524   7.921
10164TIP3    H130435   2.469   2.478   7.937
10164TIP3    H230436   2.612   2.451   7.896
10165TIP3   OH230437   2.016   1.754   6.481
10165TIP3    H130438   2.085   1.705   6.528
10165TIP3    H230439   1.938   1.698   6.490
10166TIP3   OH230440   2.075   2.019   6.924
10166TIP3    H130441   2.113   1.929   6.942
10166TIP3    H230442   2.136   2.049   6.854
10167TIP3   OH230443   2.237   2.187   7.426
10167TIP3    H130444   2.323   2.212   7.385
10167TIP3    H230445   2.249   2.225   7.515
10168TIP3   OH230446   2.303   2.336   7.663
10168TIP3    H130447   2.227   2.374   7.711
10168TIP3    H230448   2.336   2.414   7.614
10169TIP3   OH230449   2.157   1.769   6.987
10169TIP3    H130450   2.225   1.747   7.053
10169TIP3    H230451   2.108   1.684   6.979
10170TIP3   OH230452   1.835   3.221   6.862
10170TIP3    H130453   1.890   3.202   6.785
10170TIP3    H230454   1.879   3.299   6.901
10171TIP3   OH230455   1.092   3.073   7.786
10171TIP3    H130456   1.071   3.159   7.743
10171TIP3    H230457   1.185   3.066   7.761
10172TIP3   OH230458   1.725   3.460   7.773
10172TIP3    H130459   1.810   3.420   7.753
10172TIP3    H230460   1.739   3.496   7.862
10173TIP3   OH230461   1.012   3.308   7.672
10173TIP3    H130462   0.947   3.358   7.723
10173TIP3    H230463   0.995   3.337   7.580
10174TIP3   OH230464   1.449   3.323   7.474
10174TIP3    H130465   1.378   3.342   7.410
10174TIP3    H230466   1.463   3.412   7.514
10175TIP3   OH230467   1.717   3.261   7.522
10175TIP3    H130468   1.622   3.280   7.509
10175TIP3    H230469   1.757   3.342   7.487
10176TIP3   OH230470   1.929   3.462   7.441
10176TIP3    H130471   1.909   3.545   7.394
10176TIP3    H230472   1.949   3.401   7.367
10177TIP3   OH230473   0.694   3.112   7.554
10177TIP3    H130474   0.719   3.105   7.647
10177TIP3    H230475   0.771   3.069   7.510
10178TIP3   OH230476   0.894   2.987   7.421
10178TIP3    H130477   0.911   2.903   7.469
10178TIP3    H230478   0.985   3.025   7.418
10179TIP3   OH230479   1.157   3.077   7.429
10179TIP3    H130480   1.188   2.985   7.419
10179TIP3    H230481   1.206   3.102   7.510
10180TIP3   OH230482   1.761   1.752   7.518
10180TIP3    H130483   1.718   1.673   7.553
10180TIP3    H230484   1.827   1.712   7.457
10181TIP3   OH230485   2.256   1.612   7.417
10181TIP3    H130486   2.293   1.665   7.342
10181TIP3    H230487   2.162   1.637   7.414
10182TIP3   OH230488   2.351   1.716   7.181
10182TIP3    H130489   2.424   1.665   7.140
10182TIP3    H230490   2.384   1.807   7.164
10183TIP3   OH230491   1.404   1.496   7.370
10183TIP3    H130492   1.478   1.544   7.330
10183TIP3    H230493   1.414   1.514   7.463
10184TIP3   OH230494   1.967   1.621   7.391
10184TIP3    H130495   1.977   1.588   7.301
10184TIP3    H230496   1.953   1.538   7.442
10185TIP3   OH230497   1.997   1.548   6.957
10185TIP3    H130498   1.913   1.594   6.973
10185TIP3    H230499   1.981   1.462   7.002
10186TIP3   OH230500   0.471   2.892   6.962
10186TIP3    H130501   0.405   2.843   6.910
10186TIP3    H230502   0.466   2.980   6.920
10187TIP3   OH230503   1.412   1.652   7.036
10187TIP3    H130504   1.471   1.611   7.101
10187TIP3    H230505   1.427   1.747   7.059
10188TIP3   OH230506   1.256   3.072   6.541
10188TIP3    H130507   1.344   3.096   6.504
10188TIP3    H230508   1.234   2.998   6.480
10189TIP3   OH230509   0.560   2.908   6.597
10189TIP3    H130510   0.567   2.949   6.685
10189TIP3    H230511   0.649   2.868   6.585
10190TIP3   OH230512   2.187   3.326   7.812
10190TIP3    H130513   2.112   3.308   7.752
10190TIP3    H230514   2.180   3.423   7.821
10191TIP3   OH230515   3.469   2.713   6.583
10191TIP3    H130516   3.438   2.803   6.561
10191TIP3    H230517   3.394   2.661   6.549
10192TIP3   OH230518   3.469   2.714   6.969
10192TIP3    H130519   3.502   2.687   7.056
10192TIP3    H230520   3.428   2.632   6.937
10193TIP3   OH230521   2.767   2.607   7.330
10193TIP3    H130522   2.796   2.539   7.393
10193TIP3    H230523   2.845   2.664   7.325
10194TIP3   OH230524   3.717   3.016   6.649
10194TIP3    H130525   3.697   2.949   6.716
10194TIP3    H230526   3.741   3.092   6.704
10195TIP3   OH230527   2.741   3.016   7.053
10195TIP3    H130528   2.731   2.918   7.056
10195TIP3    H230529   2.838   3.023   7.047
10196TIP3   OH230530   2.444   2.215   6.845
10196TIP3    H130531   2.394   2.281   6.895
10196TIP3    H230532   2.374   2.170   6.794
10197TIP3   OH230533   2.519   2.511   6.998
10197TIP3    H130534   2.550   2.430   7.041
10197TIP3    H230535   2.597   2.538   6.947
10198TIP3   OH230536   3.363   3.477   6.665
10198TIP3    H130537   3.406   3.404   6.616
10198TIP3    H230538   3.355   3.439   6.754
10199TIP3   OH230539   3.266   2.937   7.015
10199TIP3    H130540   3.307   2.861   6.970
10199TIP3    H230541   3.347   2.984   7.041
10200TIP3   OH230542   4.282   2.255   7.012
10200TIP3    H130543   4.311   2.340   7.052
10200TIP3    H230544   4.311   2.266   6.920
10201TIP3   OH230545   3.677   2.436   7.046
10201TIP3    H130546   3.723   2.352   7.065
10201TIP3    H230547   3.647   2.421   6.954
10202TIP3   OH230548   3.020   2.099   7.011
10202TIP3    H130549   2.999   2.172   6.948
10202TIP3    H230550   2.973   2.025   6.966
10203TIP3   OH230551   3.712   2.191   6.631
10203TIP3    H130552   3.784   2.177   6.697
10203TIP3    H230553   3.764   2.225   6.556
10204TIP3   OH230554   2.646   2.299   7.119
10204TIP3    H130555   2.730   2.283   7.166
10204TIP3    H230556   2.661   2.245   7.039
10205TIP3   OH230557   3.091   2.497   6.914
10205TIP3    H130558   3.185   2.473   6.925
10205TIP3    H230559   3.052   2.413   6.881
10206TIP3   OH230560   4.355   2.466   7.184
10206TIP3    H130561   4.270   2.512   7.166
10206TIP3    H230562   4.378   2.503   7.271
10207TIP3   OH230563   3.013   2.090   7.441
10207TIP3    H130564   2.952   2.123   7.372
10207TIP3    H230565   2.960   2.107   7.522
10208TIP3   OH230566   3.357   2.932   6.454
10208TIP3    H130567   3.319   2.917   6.366
10208TIP3    H230568   3.312   3.015   6.480
10209TIP3   OH230569   3.120   2.857   7.239
10209TIP3    H130570   3.059   2.926   7.275
10209TIP3    H230571   3.164   2.905   7.166
10210TIP3   OH230572   3.917   2.197   6.809
10210TIP3    H130573   3.915   2.145   6.890
10210TIP3    H230574   3.973   2.273   6.834
10211TIP3   OH230575   2.884   2.199   7.227
10211TIP3    H130576   2.946   2.271   7.252
10211TIP3    H230577   2.935   2.158   7.153
10212TIP3   OH230578   2.950   3.053   7.337
10212TIP3    H130579   2.926   3.141   7.300
10212TIP3    H230580   2.870   3.037   7.392
10213TIP3   OH230581   3.781   3.256   6.809
10213TIP3    H130582   3.693   3.248   6.852
10213TIP3    H230583   3.774   3.345   6.768
10214TIP3   OH230584   4.075   2.154   7.179
10214TIP3    H130585   3.988   2.183   7.146
10214TIP3    H230586   4.135   2.187   7.108
10215TIP3   OH230587   3.374   1.803   7.164
10215TIP3    H130588   3.351   1.708   7.165
10215TIP3    H230589   3.292   1.844   7.196
10216TIP3   OH230590   3.480   3.302   6.486
10216TIP3    H130591   3.531   3.220   6.466
10216TIP3    H230592   3.541   3.368   6.446
10217TIP3   OH230593   3.626   3.088   6.398
10217TIP3    H130594   3.592   3.007   6.358
10217TIP3    H230595   3.664   3.053   6.482
10218TIP3   OH230596   4.007   3.167   7.161
10218TIP3    H130597   3.994   3.092   7.100
10218TIP3    H230598   3.987   3.244   7.103
10219TIP3   OH230599   3.300   2.564   6.417
10219TIP3    H130600   3.220   2.616   6.395
10219TIP3    H230601   3.346   2.560   6.332
10220TIP3   OH230602   3.258   2.350   6.130
10220TIP3    H130603   3.327   2.401   6.178
10220TIP3    H230604   3.315   2.286   6.082
10221TIP3   OH230605   4.202   2.809   7.004
10221TIP3    H130606   4.118   2.860   7.011
10221TIP3    H230607   4.229   2.831   6.913
10222TIP3   OH230608   3.647   2.647   6.386
10222TIP3    H130609   3.593   2.672   6.464
10222TIP3    H230610   3.731   2.621   6.430
10223TIP3   OH230611   3.881   2.684   7.304
10223TIP3    H130612   3.879   2.768   7.353
10223TIP3    H230613   3.796   2.689   7.257
10224TIP3   OH230614   2.879   2.642   6.807
10224TIP3    H130615   2.836   2.583   6.741
10224TIP3    H230616   2.956   2.589   6.835
10225TIP3   OH230617   3.009   3.054   6.952
10225TIP3    H130618   2.991   3.018   6.864
10225TIP3    H230619   3.098   3.019   6.970
10226TIP3   OH230620   3.015   2.615   7.158
10226TIP3    H130621   3.049   2.593   7.069
10226TIP3    H230622   3.058   2.702   7.176
10227TIP3   OH230623   3.543   3.252   6.936
10227TIP3    H130624   3.528   3.334   6.986
10227TIP3    H230625   3.526   3.182   7.001
10228TIP3   OH230626   3.153   3.171   7.484
10228TIP3    H130627   3.092   3.233   7.530
10228TIP3    H230628   3.088   3.118   7.433
10229TIP3   OH230629   3.485   2.505   6.214
10229TIP3    H130630   3.545   2.565   6.264
10229TIP3    H230631   3.511   2.527   6.121
10230TIP3   OH230632   2.912   2.720   7.588
10230TIP3    H130633   2.919   2.812   7.622
10230TIP3    H230634   2.816   2.706   7.593
10231TIP3   OH230635   3.232   3.181   6.490
10231TIP3    H130636   3.313   3.234   6.500
10231TIP3    H230637   3.172   3.243   6.448
10232TIP3   OH230638   2.947   3.337   7.572
10232TIP3    H130639   2.912   3.339   7.480
10232TIP3    H230640   2.867   3.316   7.624
10233TIP3   OH230641   4.002   1.743   6.262
10233TIP3    H130642   3.922   1.767   6.312
10233TIP3    H230643   4.018   1.825   6.210
10234TIP3   OH230644   2.737   2.487   6.616
10234TIP3    H130645   2.665   2.534   6.569
10234TIP3    H230646   2.707   2.396   6.611
10235TIP3   OH230647   3.803   3.111   5.814
10235TIP3    H130648   3.812   3.207   5.797
10235TIP3    H230649   3.896   3.081   5.800
10236TIP3   OH230650   2.525   2.873   7.519
10236TIP3    H130651   2.456   2.855   7.451
10236TIP3    H230652   2.562   2.784   7.535
10237TIP3   OH230653   2.382   3.059   7.155
10237TIP3    H130654   2.478   3.068   7.147
10237TIP3    H230655   2.359   3.142   7.200
10238TIP3   OH230656   4.253   3.508   7.223
10238TIP3    H130657   4.246   3.412   7.236
10238TIP3    H230658   4.166   3.538   7.259
10239TIP3   OH230659   3.350   3.300   7.340
10239TIP3    H130660   3.348   3.392   7.372
10239TIP3    H230661   3.279   3.259   7.394
10240TIP3   OH230662   3.114   3.428   6.292
10240TIP3    H130663   3.066   3.409   6.209
10240TIP3    H230664   3.079   3.515   6.318
10241TIP3   OH230665   2.553   3.285   6.678
10241TIP3    H130666   2.598   3.275   6.765
10241TIP3    H230667   2.499   3.203   6.677
10242TIP3   OH230668   3.314   3.332   5.930
10242TIP3    H130669   3.371   3.261   5.894
10242TIP3    H230670   3.348   3.340   6.021
10243TIP3   OH230671   3.365   3.380   6.200
10243TIP3    H130672   3.277   3.389   6.241
10243TIP3    H230673   3.417   3.341   6.273
10244TIP3   OH230674   4.134   2.644   7.482
10244TIP3    H130675   4.053   2.657   7.430
10244TIP3    H230676   4.150   2.548   7.472
10245TIP3   OH230677   2.731   3.054   7.500
10245TIP3    H130678   2.782   3.039   7.582
10245TIP3    H230679   2.655   2.992   7.511
10246TIP3   OH230680   3.124   1.898   7.239
10246TIP3    H130681   3.035   1.859   7.239
10246TIP3    H230682   3.112   1.964   7.312
10247TIP3   OH230683   3.666   1.998   7.486
10247TIP3    H130684   3.736   1.965   7.548
10247TIP3    H230685   3.583   1.973   7.533
10248TIP3   OH230686   3.901   2.420   7.399
10248TIP3    H130687   3.853   2.417   7.485
10248TIP3    H230688   3.879   2.508   7.365
10249TIP3   OH230689   3.563   2.549   5.959
10249TIP3    H130690   3.528   2.526   5.871
10249TIP3    H230691   3.648   2.591   5.934
10250TIP3   OH230692   3.275   1.924   6.260
10250TIP3    H130693   3.241   1.922   6.352
10250TIP3    H230694   3.236   1.842   6.226
10251TIP3   OH230695   3.062   2.394   7.306
10251TIP3    H130696   3.011   2.414   7.387
10251TIP3    H230697   3.046   2.475   7.253
10252TIP3   OH230698   2.945   2.279   6.822
10252TIP3    H130699   2.853   2.253   6.840
10252TIP3    H230700   2.958   2.238   6.734
10253TIP3   OH230701   3.436   2.364   6.551
10253TIP3    H130702   3.385   2.435   6.507
10253TIP3    H230703   3.493   2.331   6.478
10254TIP3   OH230704   3.615   2.644   7.630
10254TIP3    H130705   3.593   2.570   7.691
10254TIP3    H230706   3.709   2.659   7.653
10255TIP3   OH230707   3.591   2.390   6.788
10255TIP3    H130708   3.531   2.418   6.716
10255TIP3    H230709   3.628   2.311   6.744
10256TIP3   OH230710   2.882   2.423   7.514
10256TIP3    H130711   2.902   2.492   7.580
10256TIP3    H230712   2.871   2.344   7.569
10257TIP3   OH230713   2.935   1.898   6.233
10257TIP3    H130714   2.916   1.891   6.328
10257TIP3    H230715   2.856   1.948   6.203
10258TIP3   OH230716   2.478   1.940   7.103
10258TIP3    H130717   2.550   1.976   7.159
10258TIP3    H230718   2.517   1.941   7.014
10259TIP3   OH230719   3.602   2.636   7.210
10259TIP3    H130720   3.635   2.564   7.151
10259TIP3    H230721   3.572   2.583   7.286
10260TIP3   OH230722   3.277   2.097   6.883
10260TIP3    H130723   3.196   2.098   6.938
10260TIP3    H230724   3.347   2.096   6.950
10261TIP3   OH230725   2.706   2.158   6.890
10261TIP3    H130726   2.613   2.166   6.861
10261TIP3    H230727   2.730   2.067   6.862
10262TIP3   OH230728   2.974   2.154   6.580
10262TIP3    H130729   3.068   2.169   6.558
10262TIP3    H230730   2.927   2.177   6.497
10263TIP3   OH230731   3.768   2.176   7.090
10263TIP3    H130732   3.731   2.190   7.179
10263TIP3    H230733   3.702   2.117   7.050
10264TIP3   OH230734   2.817   2.194   6.361
10264TIP3    H130735   2.746   2.144   6.316
10264TIP3    H230736   2.868   2.224   6.283
10265TIP3   OH230737   2.909   2.973   7.713
10265TIP3    H130738   2.984   3.006   7.767
10265TIP3    H230739   2.837   2.981   7.779
10266TIP3   OH230740   3.358   2.429   6.977
10266TIP3    H130741   3.431   2.393   6.925
10266TIP3    H230742   3.369   2.385   7.063
10267TIP3   OH230743   2.880   1.918   6.858
10267TIP3    H130744   2.843   1.838   6.902
10267TIP3    H230745   2.911   1.882   6.773
10268TIP3   OH230746   3.332   2.324   7.277
10268TIP3    H130747   3.243   2.363   7.286
10268TIP3    H230748   3.390   2.389   7.323
10269TIP3   OH230749   3.067   2.714   6.364
10269TIP3    H130750   2.994   2.650   6.353
10269TIP3    H230751   3.049   2.748   6.455
10270TIP3   OH230752   3.967   2.950   6.994
10270TIP3    H130753   3.991   3.001   6.914
10270TIP3    H230754   3.881   2.909   6.968
10271TIP3   OH230755   3.528   2.024   6.236
10271TIP3    H130756   3.431   2.007   6.240
10271TIP3    H230757   3.536   2.120   6.255
10272TIP3   OH230758   3.461   3.031   7.366
10272TIP3    H130759   3.498   3.021   7.455
10272TIP3    H230760   3.430   3.123   7.366
10273TIP3   OH230761   3.596   2.277   6.334
10273TIP3    H130762   3.693   2.282   6.346
10273TIP3    H230763   3.577   2.356   6.279
10274TIP3   OH230764   2.761   2.736   7.041
10274TIP3    H130765   2.802   2.709   6.956
10274TIP3    H230766   2.806   2.678   7.104
10275TIP3   OH230767   3.215   2.866   6.190
10275TIP3    H130768   3.167   2.952   6.194
10275TIP3    H230769   3.161   2.810   6.249
10276TIP3   OH230770   2.646   2.654   7.642
10276TIP3    H130771   2.665   2.653   7.738
10276TIP3    H230772   2.565   2.600   7.635
10277TIP3   OH230773   3.371   2.772   7.674
10277TIP3    H130774   3.312   2.721   7.618
10277TIP3    H230775   3.459   2.742   7.642
10278TIP3   OH230776   3.627   3.284   7.267
10278TIP3    H130777   3.531   3.292   7.275
10278TIP3    H230778   3.656   3.344   7.339
10279TIP3   OH230779   4.037   2.371   6.170
10279TIP3    H130780   3.977   2.325   6.108
10279TIP3    H230781   4.035   2.459   6.128
10280TIP3   OH230782   4.257   3.218   7.251
10280TIP3    H130783   4.159   3.216   7.240
10280TIP3    H230784   4.284   3.194   7.159
10281TIP3   OH230785   3.747   3.185   6.079
10281TIP3    H130786   3.711   3.116   6.136
10281TIP3    H230787   3.755   3.141   5.993
10282TIP3   OH230788   3.735   2.815   6.910
10282TIP3    H130789   3.641   2.791   6.923
10282TIP3    H230790   3.767   2.734   6.865
10283TIP3   OH230791   2.863   3.043   6.665
10283TIP3    H130792   2.864   3.125   6.611
10283TIP3    H230793   2.769   3.034   6.683
10284TIP3   OH230794   2.420   2.351   6.377
10284TIP3    H130795   2.464   2.437   6.389
10284TIP3    H230796   2.344   2.360   6.439
10285TIP3   OH230797   2.995   2.806   6.608
10285TIP3    H130798   2.961   2.897   6.626
10285TIP3    H230799   2.961   2.758   6.685
10286TIP3   OH230800   3.135   3.386   7.134
10286TIP3    H130801   3.176   3.459   7.083
10286TIP3    H230802   3.211   3.351   7.182
10287TIP3   OH230803   2.781   3.281   6.518
10287TIP3    H130804   2.696   3.291   6.566
10287TIP3    H230805   2.814   3.374   6.521
10288TIP3   OH230806   3.517   3.021   7.097
10288TIP3    H130807   3.507   3.018   7.194
10288TIP3    H230808   3.599   2.971   7.085
10289TIP3   OH230809   3.496   2.917   5.978
10289TIP3    H130810   3.549   2.891   6.057
10289TIP3    H230811   3.408   2.886   6.004
10290TIP3   OH230812   3.769   3.553   7.140
10290TIP3    H130813   3.685   3.504   7.127
10290TIP3    H230814   3.759   3.624   7.074
10291TIP3   OH230815   3.839   3.386   5.799
10291TIP3    H130816   3.875   3.456   5.743
10291TIP3    H230817   3.758   3.432   5.832
10292TIP3   OH230818   2.851   2.162   7.654
10292TIP3    H130819   2.755   2.160   7.667
10292TIP3    H230820   2.883   2.102   7.724
10293TIP3   OH230821   3.655   2.850   6.194
10293TIP3    H130822   3.646   2.781   6.264
10293TIP3    H230823   3.751   2.846   6.179
10294TIP3   OH230824   2.575   3.248   7.292
10294TIP3    H130825   2.626   3.176   7.332
10294TIP3    H230826   2.596   3.321   7.352
10295TIP3   OH230827   2.860   2.894   5.977
10295TIP3    H130828   2.873   2.802   5.949
10295TIP3    H230829   2.842   2.883   6.072
10296TIP3   OH230830   2.808   2.899   6.251
10296TIP3    H130831   2.884   2.875   6.306
10296TIP3    H230832   2.810   2.998   6.256
10297TIP3   OH230833   2.536   2.610   6.459
10297TIP3    H130834   2.453   2.645   6.419
10297TIP3    H230835   2.600   2.646   6.395
10298TIP3   OH230836   3.690   2.233   7.346
10298TIP3    H130837   3.773   2.272   7.379
10298TIP3    H230838   3.680   2.153   7.402
10299TIP3   OH230839   3.571   1.977   6.514
10299TIP3    H130840   3.558   1.998   6.419
10299TIP3    H230841   3.612   2.060   6.547
10300TIP3   OH230842   3.072   3.095   6.198
10300TIP3    H130843   2.985   3.122   6.233
10300TIP3    H230844   3.088   3.168   6.136
10301TIP3   OH230845   3.258   2.161   6.612
10301TIP3    H130846   3.323   2.233   6.594
10301TIP3    H230847   3.265   2.153   6.709
10302TIP3   OH230848   3.529   2.475   7.419
10302TIP3    H130849   3.556   2.529   7.496
10302TIP3    H230850   3.585   2.396   7.426
10303TIP3   OH230851   3.403   1.880   6.713
10303TIP3    H130852   3.394   1.958   6.771
10303TIP3    H230853   3.466   1.915   6.645
10304TIP3   OH230854   2.816   3.171   6.267
10304TIP3    H130855   2.786   3.241   6.204
10304TIP3    H230856   2.800   3.215   6.353
10305TIP3   OH230857   2.923   1.884   6.517
10305TIP3    H130858   2.919   1.978   6.544
10305TIP3    H230859   3.020   1.872   6.517
10306TIP3   OH230860   4.168   2.377   7.403
10306TIP3    H130861   4.070   2.375   7.406
10306TIP3    H230862   4.183   2.341   7.314
10307TIP3   OH230863   3.820   2.571   6.787
10307TIP3    H130864   3.744   2.511   6.798
10307TIP3    H230865   3.891   2.524   6.836
10308TIP3   OH230866   2.536   2.817   6.240
10308TIP3    H130867   2.611   2.878   6.253
10308TIP3    H230868   2.579   2.752   6.181
10309TIP3   OH230869   2.484   2.084   6.341
10309TIP3    H130870   2.471   2.176   6.370
10309TIP3    H230871   2.433   2.034   6.404
10310TIP3   OH230872   3.791   3.524   6.731
10310TIP3    H130873   3.746   3.572   6.658
10310TIP3    H230874   3.885   3.546   6.711
10311TIP3   OH230875   2.868   1.798   7.263
10311TIP3    H130876   2.835   1.768   7.175
10311TIP3    H230877   2.854   1.718   7.317
10312TIP3   OH230878   2.431   3.042   6.650
10312TIP3    H130879   2.337   3.024   6.672
10312TIP3    H230880   2.427   3.039   6.554
10313TIP3   OH230881   2.563   3.563   7.719
10313TIP3    H130882   2.649   3.559   7.766
10313TIP3    H230883   2.541   3.468   7.714
10314TIP3   OH230884   3.040   3.521   7.760
10314TIP3    H130885   3.134   3.503   7.767
10314TIP3    H230886   3.015   3.459   7.688
10315TIP3   OH230887   3.024   3.097   5.887
10315TIP3    H130888   2.969   3.024   5.926
10315TIP3    H230889   3.099   3.046   5.851
10316TIP3   OH230890   3.677   3.431   7.497
10316TIP3    H130891   3.674   3.360   7.564
10316TIP3    H230892   3.756   3.482   7.522
10317TIP3   OH230893   3.458   3.136   5.802
10317TIP3    H130894   3.500   3.069   5.859
10317TIP3    H230895   3.513   3.133   5.721
10318TIP3   OH230896   2.699   2.976   7.883
10318TIP3    H130897   2.711   2.882   7.903
10318TIP3    H230898   2.605   2.978   7.853
10319TIP3   OH230899   2.673   2.612   6.117
10319TIP3    H130900   2.735   2.577   6.184
10319TIP3    H230901   2.734   2.617   6.040
10320TIP3   OH230902   3.299   3.052   7.688
10320TIP3    H130903   3.258   3.071   7.601
10320TIP3    H230904   3.330   2.960   7.678
10321TIP3   OH230905   3.184   2.812   5.920
10321TIP3    H130906   3.185   2.825   6.017
10321TIP3    H230907   3.185   2.714   5.914
10322TIP3   OH230908   3.791   3.060   7.298
10322TIP3    H130909   3.867   3.102   7.254
10322TIP3    H230910   3.723   3.129   7.285
10323TIP3   OH230911   2.801   2.698   7.880
10323TIP3    H130912   2.889   2.677   7.846
10323TIP3    H230913   2.802   2.658   7.970
10324TIP3   OH230914   2.869   2.516   6.328
10324TIP3    H130915   2.855   2.468   6.412
10324TIP3    H230916   2.910   2.446   6.273
10325TIP3   OH230917   3.150   2.579   7.563
10325TIP3    H130918   3.071   2.638   7.565
10325TIP3    H230919   3.197   2.613   7.483
10326TIP3   OH230920   2.979   2.317   6.172
10326TIP3    H130921   2.953   2.318   6.077
10326TIP3    H230922   3.077   2.319   6.164
10327TIP3   OH230923   3.662   2.983   7.694
10327TIP3    H130924   3.740   2.957   7.644
10327TIP3    H230925   3.660   2.917   7.765
10328TIP3   OH230926   3.797   2.641   5.839
10328TIP3    H130927   3.778   2.596   5.754
10328TIP3    H230928   3.765   2.731   5.816
10329TIP3   OH230929   3.274   2.370   7.684
10329TIP3    H130930   3.273   2.291   7.625
10329TIP3    H230931   3.231   2.437   7.626
10330TIP3   OH230932   3.273   2.159   7.498
10330TIP3    H130933   3.299   2.202   7.413
10330TIP3    H230934   3.181   2.132   7.477
10331TIP3   OH230935   3.297   2.693   7.369
10331TIP3    H130936   3.381   2.707   7.325
10331TIP3    H230937   3.240   2.759   7.323
10332TIP3   OH230938   3.882   2.660   7.745
10332TIP3    H130939   3.932   2.577   7.753
10332TIP3    H230940   3.948   2.719   7.708
10333TIP3   OH230941   3.920   2.912   7.483
10333TIP3    H130942   3.862   2.968   7.424
10333TIP3    H230943   4.008   2.933   7.444
10334TIP3   OH230944   3.128   2.494   7.891
10334TIP3    H130945   3.065   2.420   7.894
10334TIP3    H230946   3.176   2.474   7.808
10335TIP3   OH230947   3.405   1.923   7.557
10335TIP3    H130948   3.365   2.009   7.540
10335TIP3    H230949   3.325   1.868   7.547
10336TIP3   OH230950   3.535   2.424   7.767
10336TIP3    H130951   3.517   2.417   7.863
10336TIP3    H230952   3.447   2.400   7.732
10337TIP3   OH230953   3.770   2.373   7.629
10337TIP3    H130954   3.695   2.376   7.690
10337TIP3    H230955   3.844   2.345   7.687
10338TIP3   OH230956   3.998   2.316   7.775
10338TIP3    H130957   4.009   2.220   7.791
10338TIP3    H230958   3.994   2.353   7.866
10339TIP3   OH230959   2.975   2.266   7.936
10339TIP3    H130960   2.993   2.174   7.910
10339TIP3    H230961   3.022   2.271   8.021
10340TIP3   OH230962   3.492   1.924   7.822
10340TIP3    H130963   3.563   1.861   7.798
10340TIP3    H230964   3.449   1.934   7.735
10341TIP3   OH230965   3.573   2.147   7.971
10341TIP3    H130966   3.546   2.065   7.924
10341TIP3    H230967   3.494   2.201   7.964
10342TIP3   OH230968   2.788   3.376   6.080
10342TIP3    H130969   2.883   3.367   6.058
10342TIP3    H230970   2.757   3.424   6.001
10343TIP3   OH230971   2.311   2.689   6.341
10343TIP3    H130972   2.362   2.757   6.292
10343TIP3    H230973   2.277   2.633   6.268
10344TIP3   OH230974   2.177   3.361   6.697
10344TIP3    H130975   2.141   3.290   6.641
10344TIP3    H230976   2.220   3.310   6.769
10345TIP3   OH230977   2.309   3.233   6.897
10345TIP3    H130978   2.300   3.150   6.946
10345TIP3    H230979   2.366   3.285   6.957
10346TIP3   OH230980   4.049   3.602   6.683
10346TIP3    H130981   4.069   3.619   6.778
10346TIP3    H230982   4.093   3.678   6.642
10347TIP3   OH230983   4.099   3.618   6.947
10347TIP3    H130984   4.059   3.534   6.977
10347TIP3    H230985   4.115   3.663   7.031
10348TIP3   OH230986   4.121   3.314   7.552
10348TIP3    H130987   4.046   3.325   7.614
10348TIP3    H230988   4.160   3.404   7.553
10349TIP3   OH230989   3.931   2.832   6.167
10349TIP3    H130990   4.000   2.894   6.137
10349TIP3    H230991   3.972   2.796   6.249
10350TIP3   OH230992   4.051   2.716   6.381
10350TIP3    H130993   3.987   2.662   6.433
10350TIP3    H230994   4.121   2.734   6.446
10351TIP3   OH230995   4.117   3.086   6.808
10351TIP3    H130996   4.173   3.021   6.762
10351TIP3    H230997   4.107   3.157   6.743
10352TIP3   OH230998   3.946   3.384   7.004
10352TIP3    H130999   3.879   3.436   7.054
10352TIP3    H231000   3.891   3.343   6.934
10353TIP3   OH231001   3.999   2.607   6.021
10353TIP3    H131002   3.928   2.605   5.952
10353TIP3    H231003   3.968   2.683   6.074
10354TIP3   OH231004   3.869   2.279   5.975
10354TIP3    H131005   3.829   2.312   5.894
10354TIP3    H231006   3.848   2.184   5.968
10355TIP3   OH231007   3.876   2.554   6.517
10355TIP3    H131008   3.884   2.457   6.507
10355TIP3    H231009   3.862   2.564   6.613
10356TIP3   OH231010   2.502   2.619   7.262
10356TIP3    H131011   2.502   2.597   7.166
10356TIP3    H231012   2.599   2.623   7.279
10357TIP3   OH231013   4.164   2.977   7.378
10357TIP3    H131014   4.237   2.911   7.366
10357TIP3    H231015   4.191   3.049   7.318
10358TIP3   OH231016   4.348   2.779   7.386
10358TIP3    H131017   4.274   2.730   7.428
10358TIP3    H231018   4.422   2.717   7.403
10359TIP3   OH231019   3.814   2.013   5.958
10359TIP3    H131020   3.891   1.981   6.011
10359TIP3    H231021   3.743   1.951   5.981
10360TIP3   OH231022   3.874   2.274   6.411
10360TIP3    H131023   3.914   2.185   6.427
10360TIP3    H231024   3.933   2.305   6.340
10361TIP3   OH231025   4.033   2.442   6.910
10361TIP3    H131026   4.118   2.467   6.868
10361TIP3    H231027   4.048   2.479   6.999
10362TIP3   OH231028   4.105   2.588   7.142
10362TIP3    H131029   4.027   2.622   7.189
10362TIP3    H231030   4.137   2.668   7.096
10363TIP3   OH231031   2.712   2.307   7.878
10363TIP3    H131032   2.810   2.310   7.876
10363TIP3    H231033   2.700   2.245   7.952
10364TIP3   OH231034   4.553   2.176   7.696
10364TIP3    H131035   4.614   2.113   7.652
10364TIP3    H231036   4.524   2.231   7.620
10365TIP3   OH231037   3.976   2.024   6.456
10365TIP3    H131038   4.030   2.005   6.535
10365TIP3    H231039   3.919   1.944   6.452
10366TIP3   OH231040   2.684   2.007   7.274
10366TIP3    H131041   2.747   1.933   7.278
10366TIP3    H231042   2.745   2.083   7.263
10367TIP3   OH231043   2.484   2.275   7.347
10367TIP3    H131044   2.533   2.275   7.262
10367TIP3    H231045   2.502   2.365   7.378
10368TIP3   OH231046   4.423   2.316   7.503
10368TIP3    H131047   4.336   2.359   7.519
10368TIP3    H231048   4.394   2.244   7.442
10369TIP3   OH231049   4.056   1.951   6.085
10369TIP3    H131050   4.102   1.883   6.032
10369TIP3    H231051   4.122   2.024   6.087
10370TIP3   OH231052   3.625   3.484   6.350
10370TIP3    H131053   3.680   3.476   6.270
10370TIP3    H231054   3.673   3.552   6.401
10371TIP3   OH231055   2.678   1.882   7.663
10371TIP3    H131056   2.590   1.858   7.697
10371TIP3    H231057   2.647   1.936   7.588
10372TIP3   OH231058   2.725   3.290   7.737
10372TIP3    H131059   2.632   3.267   7.720
10372TIP3    H231060   2.735   3.266   7.830
10373TIP3   OH231061   2.909   3.324   7.284
10373TIP3    H131062   2.859   3.398   7.246
10373TIP3    H231063   2.994   3.339   7.238
10374TIP3   OH231064   3.349   3.566   7.421
10374TIP3    H131065   3.391   3.567   7.510
10374TIP3    H231066   3.415   3.618   7.370
10375TIP3   OH231067   3.528   3.721   7.283
10375TIP3    H131068   3.598   3.674   7.235
10375TIP3    H231069   3.582   3.780   7.340
10376TIP3   OH231070   4.323   2.080   7.381
10376TIP3    H131071   4.234   2.073   7.341
10376TIP3    H231072   4.357   1.988   7.369
10377TIP3   OH231073   2.583   3.579   7.309
10377TIP3    H131074   2.493   3.610   7.284
10377TIP3    H231075   2.593   3.622   7.395
10378TIP3   OH231076   2.818   3.558   7.167
10378TIP3    H131077   2.732   3.570   7.211
10378TIP3    H231078   2.798   3.590   7.076
10379TIP3   OH231079   3.244   3.586   6.964
10379TIP3    H131080   3.174   3.606   6.900
10379TIP3    H231081   3.257   3.673   7.006
10380TIP3   OH231082   3.514   3.520   7.017
10380TIP3    H131083   3.421   3.543   6.997
10380TIP3    H231084   3.563   3.593   6.975
10381TIP3   OH231085   3.698   3.711   6.928
10381TIP3    H131086   3.705   3.804   6.897
10381TIP3    H231087   3.738   3.662   6.853
10382TIP3   OH231088   2.496   3.374   7.053
10382TIP3    H131089   2.522   3.345   7.144
10382TIP3    H231090   2.568   3.331   7.002
10383TIP3   OH231091   2.689   3.246   6.912
10383TIP3    H131092   2.704   3.161   6.961
10383TIP3    H231093   2.781   3.282   6.909
10384TIP3   OH231094   2.956   3.339   6.915
10384TIP3    H131095   2.986   3.247   6.905
10384TIP3    H231096   3.002   3.362   6.998
10385TIP3   OH231097   3.531   1.997   7.000
10385TIP3    H131098   3.489   1.925   7.050
10385TIP3    H231099   3.605   1.952   6.955
10386TIP3   OH231100   4.050   1.881   6.908
10386TIP3    H131101   4.087   1.930   6.831
10386TIP3    H231102   3.954   1.898   6.897
10387TIP3   OH231103   4.146   1.978   6.670
10387TIP3    H131104   4.215   1.921   6.630
10387TIP3    H231105   4.185   2.066   6.650
10388TIP3   OH231106   2.778   1.706   7.016
10388TIP3    H131107   2.685   1.675   7.014
10388TIP3    H231108   2.824   1.621   7.005
10389TIP3   OH231109   3.228   1.730   6.899
10389TIP3    H131110   3.279   1.778   6.831
10389TIP3    H231111   3.248   1.782   6.978
10390TIP3   OH231112   3.764   1.883   6.880
10390TIP3    H131113   3.769   1.846   6.792
10390TIP3    H231114   3.752   1.802   6.935
10391TIP3   OH231115   3.798   1.807   6.443
10391TIP3    H131116   3.712   1.850   6.456
10391TIP3    H231117   3.783   1.721   6.488
10392TIP3   OH231118   2.694   1.762   6.382
10392TIP3    H131119   2.743   1.683   6.353
10392TIP3    H231120   2.747   1.793   6.458
10393TIP3   OH231121   3.197   1.910   6.525
10393TIP3    H131122   3.260   1.866   6.585
10393TIP3    H231123   3.216   2.004   6.549
10394TIP3   OH231124   3.054   3.330   6.025
10394TIP3    H131125   3.142   3.353   5.989
10394TIP3    H231126   3.032   3.255   5.966
10395TIP3   OH231127   3.776   3.453   6.120
10395TIP3    H131128   3.768   3.356   6.109
10395TIP3    H231129   3.730   3.485   6.040
10396TIP3   OH231130   3.023   2.000   7.872
10396TIP3    H131131   3.015   1.941   7.949
10396TIP3    H231132   3.119   2.007   7.861
10397TIP3   OH231133   2.349   3.171   6.079
10397TIP3    H131134   2.335   3.216   6.164
10397TIP3    H231135   2.439   3.134   6.085
10398TIP3   OH231136   4.060   2.047   7.795
10398TIP3    H131137   4.088   2.026   7.887
10398TIP3    H231138   4.147   2.050   7.750
10399TIP3   OH231139   3.998   3.588   7.308
10399TIP3    H131140   3.917   3.575   7.257
10399TIP3    H231141   4.012   3.685   7.296
10400TIP3   OH231142   5.266   2.971   6.069
10400TIP3    H131143   5.234   3.061   6.047
10400TIP3    H231144   5.192   2.918   6.035
10401TIP3   OH231145   5.264   2.970   6.458
10401TIP3    H131146   5.299   2.942   6.544
10401TIP3    H231147   5.224   2.888   6.425
10402TIP3   OH231148   4.559   2.868   6.816
10402TIP3    H131149   4.586   2.797   6.879
10402TIP3    H231150   4.645   2.911   6.802
10403TIP3   OH231151   5.511   3.272   6.136
10403TIP3    H131152   5.492   3.203   6.201
10403TIP3    H231153   5.539   3.346   6.192
10404TIP3   OH231154   4.241   2.512   6.355
10404TIP3    H131155   4.164   2.566   6.335
10404TIP3    H231156   4.218   2.428   6.314
10405TIP3   OH231157   4.319   2.770   6.492
10405TIP3    H131158   4.351   2.690   6.540
10405TIP3    H231159   4.340   2.742   6.402
10406TIP3   OH231160   5.161   3.733   6.153
10406TIP3    H131161   5.201   3.661   6.101
10406TIP3    H231162   5.150   3.692   6.239
10407TIP3   OH231163   5.061   3.196   6.502
10407TIP3    H131164   5.101   3.118   6.459
10407TIP3    H231165   5.145   3.242   6.527
10408TIP3   OH231166   6.081   2.513   6.500
10408TIP3    H131167   6.108   2.598   6.542
10408TIP3    H231168   6.097   2.532   6.406
10409TIP3   OH231169   5.478   2.695   6.531
10409TIP3    H131170   5.518   2.608   6.551
10409TIP3    H231171   5.443   2.679   6.441
10410TIP3   OH231172   4.812   2.350   6.488
10410TIP3    H131173   4.794   2.425   6.429
10410TIP3    H231174   4.748   2.287   6.448
10411TIP3   OH231175   5.509   2.448   6.119
10411TIP3    H131176   5.582   2.432   6.184
10411TIP3    H231177   5.561   2.482   6.044
10412TIP3   OH231178   4.435   2.547   6.601
10412TIP3    H131179   4.525   2.521   6.630
10412TIP3    H231180   4.421   2.489   6.525
10413TIP3   OH231181   4.882   2.756   6.403
10413TIP3    H131182   4.976   2.729   6.412
10413TIP3    H231183   4.840   2.672   6.371
10414TIP3   OH231184   6.153   2.725   6.667
10414TIP3    H131185   6.067   2.769   6.648
10414TIP3    H231186   6.163   2.747   6.761
10415TIP3   OH231187   4.810   2.342   6.932
10415TIP3    H131188   4.750   2.372   6.862
10415TIP3    H231189   4.756   2.359   7.011
10416TIP3   OH231190   5.152   3.190   5.940
10416TIP3    H131191   5.114   3.172   5.853
10416TIP3    H231192   5.106   3.272   5.966
10417TIP3   OH231193   4.917   3.114   6.725
10417TIP3    H131194   4.857   3.183   6.761
10417TIP3    H231195   4.962   3.163   6.653
10418TIP3   OH231196   5.716   2.451   6.295
10418TIP3    H131197   5.699   2.404   6.378
10418TIP3    H231198   5.767   2.528   6.326
10419TIP3   OH231199   4.681   2.450   6.709
10419TIP3    H131200   4.744   2.522   6.731
10419TIP3    H231201   4.730   2.407   6.634
10420TIP3   OH231202   4.747   3.310   6.823
10420TIP3    H131203   4.723   3.399   6.790
10420TIP3    H231204   4.668   3.293   6.880
10421TIP3   OH231205   4.135   2.997   6.060
10421TIP3    H131206   4.094   3.011   5.972
10421TIP3    H231207   4.155   3.089   6.087
10422TIP3   OH231208   5.578   3.516   6.301
10422TIP3    H131209   5.488   3.506   6.341
10422TIP3    H231210   5.569   3.602   6.256
10423TIP3   OH231211   5.870   2.415   6.666
10423TIP3    H131212   5.782   2.440   6.634
10423TIP3    H231213   5.929   2.446   6.593
10424TIP3   OH231214   5.170   2.059   6.656
10424TIP3    H131215   5.151   1.964   6.661
10424TIP3    H231216   5.090   2.096   6.699
10425TIP3   OH231217   5.274   3.559   5.970
10425TIP3    H131218   5.325   3.477   5.952
10425TIP3    H231219   5.336   3.625   5.932
10426TIP3   OH231220   5.421   3.345   5.885
10426TIP3    H131221   5.388   3.264   5.844
10426TIP3    H231222   5.459   3.311   5.969
10427TIP3   OH231223   5.804   3.426   6.645
10427TIP3    H131224   5.791   3.348   6.586
10427TIP3    H231225   5.785   3.500   6.584
10428TIP3   OH231226   5.097   2.823   5.904
10428TIP3    H131227   5.015   2.871   5.881
10428TIP3    H231228   5.141   2.817   5.817
10429TIP3   OH231229   5.054   2.608   5.615
10429TIP3    H131230   5.123   2.657   5.664
10429TIP3    H231231   5.110   2.543   5.569
10430TIP3   OH231232   5.999   3.066   6.492
10430TIP3    H131233   5.915   3.116   6.496
10430TIP3    H231234   6.028   3.089   6.401
10431TIP3   OH231235   5.444   2.905   5.873
10431TIP3    H131236   5.389   2.929   5.951
10431TIP3    H231237   5.527   2.878   5.917
10432TIP3   OH231238   5.678   2.941   6.789
10432TIP3    H131239   5.674   3.025   6.838
10432TIP3    H231240   5.591   2.943   6.743
10433TIP3   OH231241   4.678   2.903   6.287
10433TIP3    H131242   4.633   2.841   6.225
10433TIP3    H231243   4.753   2.847   6.318
10434TIP3   OH231244   4.816   3.328   6.422
10434TIP3    H131245   4.795   3.264   6.353
10434TIP3    H231246   4.901   3.293   6.455
10435TIP3   OH231247   4.804   2.876   6.645
10435TIP3    H131248   4.840   2.847   6.558
10435TIP3    H231249   4.854   2.958   6.663
10436TIP3   OH231250   5.338   3.510   6.423
10436TIP3    H131251   5.323   3.589   6.478
10436TIP3    H231252   5.322   3.436   6.486
10437TIP3   OH231253   4.950   3.428   6.971
10437TIP3    H131254   4.889   3.490   7.016
10437TIP3    H231255   4.885   3.374   6.920
10438TIP3   OH231256   5.283   2.761   5.701
10438TIP3    H131257   5.342   2.821   5.752
10438TIP3    H231258   5.309   2.783   5.608
10439TIP3   OH231259   4.706   2.983   7.074
10439TIP3    H131260   4.709   3.072   7.116
10439TIP3    H231261   4.610   2.964   7.084
10440TIP3   OH231262   5.024   3.441   5.980
10440TIP3    H131263   5.108   3.490   5.987
10440TIP3    H231264   4.968   3.502   5.930
10441TIP3   OH231265   4.743   3.593   7.059
10441TIP3    H131266   4.705   3.598   6.969
10441TIP3    H231267   4.665   3.568   7.113
10442TIP3   OH231268   5.799   2.000   5.751
10442TIP3    H131269   5.717   2.020   5.800
10442TIP3    H231270   5.812   2.082   5.700
10443TIP3   OH231271   4.527   2.751   6.116
10443TIP3    H131272   4.465   2.777   6.045
10443TIP3    H231273   4.524   2.654   6.111
10444TIP3   OH231274   5.599   3.368   5.299
10444TIP3    H131275   5.607   3.464   5.283
10444TIP3    H231276   5.691   3.339   5.286
10445TIP3   OH231277   4.323   3.127   7.004
10445TIP3    H131278   4.252   3.105   6.940
10445TIP3    H231279   4.359   3.040   7.028
10446TIP3   OH231280   4.189   3.330   6.638
10446TIP3    H131281   4.269   3.363   6.683
10446TIP3    H231282   4.125   3.396   6.670
10447TIP3   OH231283   6.041   3.773   6.693
10447TIP3    H131284   6.040   3.677   6.708
10447TIP3    H231285   5.957   3.798   6.739
10448TIP3   OH231286   5.146   3.556   6.827
10448TIP3    H131287   5.144   3.649   6.859
10448TIP3    H231288   5.075   3.516   6.881
10449TIP3   OH231289   4.910   3.683   5.780
10449TIP3    H131290   4.864   3.664   5.696
10449TIP3    H231291   4.877   3.772   5.803
10450TIP3   OH231292   4.346   3.539   6.167
10450TIP3    H131293   4.397   3.525   6.250
10450TIP3    H231294   4.273   3.477   6.179
10451TIP3   OH231295   5.111   3.588   5.418
10451TIP3    H131296   5.168   3.517   5.382
10451TIP3    H231297   5.145   3.597   5.509
10452TIP3   OH231298   5.162   3.637   5.687
10452TIP3    H131299   5.073   3.646   5.728
10452TIP3    H231300   5.212   3.597   5.760
10453TIP3   OH231301   5.931   2.902   6.966
10453TIP3    H131302   5.847   2.913   6.918
10453TIP3    H231303   5.946   2.806   6.957
10454TIP3   OH231304   4.525   3.311   6.982
10454TIP3    H131305   4.570   3.305   7.069
10454TIP3    H231306   4.452   3.247   6.994
10455TIP3   OH231307   4.928   2.134   6.778
10455TIP3    H131308   4.839   2.102   6.751
10455TIP3    H231309   4.901   2.216   6.824
10456TIP3   OH231310   5.461   2.249   6.972
10456TIP3    H131311   5.529   2.220   7.036
10456TIP3    H231312   5.377   2.228   7.018
10457TIP3   OH231313   5.701   2.679   6.892
10457TIP3    H131314   5.649   2.675   6.976
10457TIP3    H231315   5.674   2.765   6.854
10458TIP3   OH231316   5.361   2.805   5.446
10458TIP3    H131317   5.324   2.782   5.359
10458TIP3    H231318   5.444   2.849   5.420
10459TIP3   OH231319   5.074   2.179   5.748
10459TIP3    H131320   5.038   2.178   5.839
10459TIP3    H231321   5.032   2.098   5.713
10460TIP3   OH231322   4.857   2.651   6.792
10460TIP3    H131323   4.805   2.668   6.873
10460TIP3    H231324   4.838   2.732   6.740
10461TIP3   OH231325   4.738   2.540   6.305
10461TIP3    H131326   4.668   2.470   6.304
10461TIP3    H231327   4.766   2.529   6.211
10462TIP3   OH231328   5.235   2.626   6.040
10462TIP3    H131329   5.181   2.695   5.996
10462TIP3    H231330   5.287   2.590   5.966
10463TIP3   OH231331   5.407   2.897   7.122
10463TIP3    H131332   5.384   2.824   7.184
10463TIP3    H231333   5.501   2.910   7.145
10464TIP3   OH231334   5.390   2.649   6.274
10464TIP3    H131335   5.328   2.675   6.203
10464TIP3    H231336   5.425   2.567   6.231
10465TIP3   OH231337   4.675   2.679   7.001
10465TIP3    H131338   4.705   2.741   7.068
10465TIP3    H231339   4.665   2.596   7.052
10466TIP3   OH231340   4.731   2.159   5.717
10466TIP3    H131341   4.720   2.159   5.814
10466TIP3    H231342   4.651   2.209   5.690
10467TIP3   OH231343   4.280   2.197   6.581
10467TIP3    H131344   4.351   2.229   6.641
10467TIP3    H231345   4.328   2.181   6.499
10468TIP3   OH231346   4.231   2.172   6.097
10468TIP3    H131347   4.298   2.207   6.035
10468TIP3    H231348   4.182   2.252   6.120
10469TIP3   OH231349   5.402   2.893   6.696
10469TIP3    H131350   5.435   2.822   6.637
10469TIP3    H231351   5.371   2.840   6.772
10470TIP3   OH231352   5.072   2.355   6.370
10470TIP3    H131353   4.986   2.348   6.415
10470TIP3    H231354   5.134   2.353   6.444
10471TIP3   OH231355   4.796   2.485   6.048
10471TIP3    H131356   4.877   2.437   6.026
10471TIP3    H231357   4.731   2.451   5.984
10472TIP3   OH231358   5.561   2.431   6.573
10472TIP3    H131359   5.528   2.445   6.665
10472TIP3    H231360   5.493   2.370   6.539
10473TIP3   OH231361   4.610   2.454   5.845
10473TIP3    H131362   4.541   2.400   5.802
10473TIP3    H231363   4.663   2.482   5.768
10474TIP3   OH231364   5.735   4.121   6.792
10474TIP3    H131365   5.731   4.146   6.698
10474TIP3    H231366   5.814   4.170   6.823
10475TIP3   OH231367   4.689   3.231   7.211
10475TIP3    H131368   4.768   3.262   7.260
10475TIP3    H231369   4.622   3.236   7.282
10476TIP3   OH231370   5.151   2.688   6.469
10476TIP3    H131371   5.219   2.644   6.418
10476TIP3    H231372   5.156   2.643   6.555
10477TIP3   OH231373   5.128   2.586   6.755
10477TIP3    H131374   5.037   2.620   6.770
10477TIP3    H231375   5.184   2.647   6.807
10478TIP3   OH231376   4.862   2.973   5.849
10478TIP3    H131377   4.792   2.904   5.840
10478TIP3    H231378   4.844   3.006   5.941
10479TIP3   OH231379   5.764   3.209   6.479
10479TIP3    H131380   5.788   3.259   6.398
10479TIP3    H231381   5.679   3.167   6.454
10480TIP3   OH231382   5.323   2.284   5.717
10480TIP3    H131383   5.227   2.263   5.726
10480TIP3    H231384   5.328   2.378   5.743
10481TIP3   OH231385   5.265   3.292   6.849
10481TIP3    H131386   5.291   3.272   6.940
10481TIP3    H231387   5.225   3.380   6.857
10482TIP3   OH231388   5.390   2.533   5.822
10482TIP3    H131389   5.487   2.539   5.835
10482TIP3    H231390   5.371   2.613   5.768
10483TIP3   OH231391   4.531   3.008   6.486
10483TIP3    H131392   4.600   2.962   6.433
10483TIP3    H231393   4.553   2.972   6.574
10484TIP3   OH231394   5.013   3.123   5.678
10484TIP3    H131395   4.964   3.208   5.682
10484TIP3    H231396   4.957   3.067   5.736
10485TIP3   OH231397   4.441   2.914   7.140
10485TIP3    H131398   4.461   2.903   7.235
10485TIP3    H231399   4.370   2.849   7.127
10486TIP3   OH231400   5.166   3.032   7.161
10486TIP3    H131401   5.105   2.972   7.115
10486TIP3    H231402   5.252   2.996   7.132
10487TIP3   OH231403   5.424   3.552   6.746
10487TIP3    H131404   5.328   3.550   6.758
10487TIP3    H231405   5.451   3.604   6.825
10488TIP3   OH231406   5.834   2.625   5.653
10488TIP3    H131407   5.772   2.580   5.591
10488TIP3    H231408   5.830   2.714   5.612
10489TIP3   OH231409   6.054   3.484   6.733
10489TIP3    H131410   5.956   3.477   6.725
10489TIP3    H231411   6.080   3.453   6.644
10490TIP3   OH231412   5.541   3.443   5.565
10490TIP3    H131413   5.508   3.374   5.624
10490TIP3    H231414   5.549   3.397   5.479
10491TIP3   OH231415   5.531   3.072   6.396
10491TIP3    H131416   5.437   3.046   6.410
10491TIP3    H231417   5.564   2.991   6.352
10492TIP3   OH231418   4.631   3.289   6.156
10492TIP3    H131419   4.683   3.367   6.134
10492TIP3    H231420   4.553   3.306   6.101
10493TIP3   OH231421   4.221   2.603   5.858
10493TIP3    H131422   4.269   2.685   5.880
10493TIP3    H231423   4.145   2.608   5.920
10494TIP3   OH231424   4.795   3.068   6.095
10494TIP3    H131425   4.749   3.151   6.117
10494TIP3    H231426   4.764   3.009   6.166
10495TIP3   OH231427   4.931   3.643   6.619
10495TIP3    H131428   4.972   3.716   6.569
10495TIP3    H231429   5.007   3.608   6.668
10496TIP3   OH231430   4.576   3.540   6.004
10496TIP3    H131431   4.490   3.553   6.050
10496TIP3    H231432   4.611   3.632   6.007
10497TIP3   OH231433   5.315   3.278   6.581
10497TIP3    H131434   5.305   3.277   6.679
10497TIP3    H231435   5.392   3.222   6.569
10498TIP3   OH231436   5.293   3.173   5.464
10498TIP3    H131437   5.345   3.148   5.544
10498TIP3    H231438   5.205   3.142   5.489
10499TIP3   OH231439   5.565   3.809   6.631
10499TIP3    H131440   5.485   3.752   6.626
10499TIP3    H231441   5.548   3.873   6.559
10500TIP3   OH231442   5.629   3.643   5.281
10500TIP3    H131443   5.662   3.715   5.225
10500TIP3    H231444   5.550   3.687   5.319
10501TIP3   OH231445   4.648   2.423   7.147
10501TIP3    H131446   4.551   2.423   7.158
10501TIP3    H231447   4.676   2.364   7.218
10502TIP3   OH231448   5.453   3.106   5.681
10502TIP3    H131449   5.442   3.038   5.750
10502TIP3    H231450   5.550   3.102   5.667
10503TIP3   OH231451   4.378   3.486   6.781
10503TIP3    H131452   4.432   3.435   6.845
10503TIP3    H231453   4.362   3.567   6.832
10504TIP3   OH231454   4.658   3.150   5.466
10504TIP3    H131455   4.668   3.058   5.435
10504TIP3    H231456   4.634   3.137   5.559
10505TIP3   OH231457   4.599   3.156   5.739
10505TIP3    H131458   4.680   3.128   5.785
10505TIP3    H231459   4.606   3.254   5.744
10506TIP3   OH231460   4.335   2.847   5.937
10506TIP3    H131461   4.267   2.893   5.990
10506TIP3    H231462   4.351   2.913   5.867
10507TIP3   OH231463   5.488   2.487   6.834
10507TIP3    H131464   5.570   2.522   6.873
10507TIP3    H231465   5.474   2.404   6.886
10508TIP3   OH231466   5.373   2.231   5.998
10508TIP3    H131467   5.354   2.254   5.905
10508TIP3    H231468   5.409   2.315   6.034
10509TIP3   OH231469   4.869   3.352   5.687
10509TIP3    H131470   4.781   3.380   5.720
10509TIP3    H231471   4.884   3.420   5.619
10510TIP3   OH231472   5.074   2.407   6.098
10510TIP3    H131473   5.129   2.487   6.083
10510TIP3    H231474   5.066   2.407   6.195
10511TIP3   OH231475   5.326   2.733   6.904
10511TIP3    H131476   5.350   2.784   6.984
10511TIP3    H231477   5.379   2.652   6.914
10512TIP3   OH231478   5.201   2.141   6.204
10512TIP3    H131479   5.181   2.223   6.252
10512TIP3    H231480   5.261   2.174   6.134
10513TIP3   OH231481   4.614   3.428   5.754
10513TIP3    H131482   4.584   3.497   5.689
10513TIP3    H231483   4.598   3.474   5.839
10514TIP3   OH231484   4.701   2.143   5.995
10514TIP3    H131485   4.669   2.184   6.078
10514TIP3    H231486   4.797   2.139   6.010
10515TIP3   OH231487   5.966   2.634   6.884
10515TIP3    H131488   5.868   2.635   6.895
10515TIP3    H231489   5.971   2.585   6.800
10516TIP3   OH231490   5.617   2.828   6.275
10516TIP3    H131491   5.539   2.769   6.286
10516TIP3    H231492   5.686   2.779   6.324
10517TIP3   OH231493   4.331   3.055   5.744
10517TIP3    H131494   4.403   3.121   5.749
10517TIP3    H231495   4.371   2.996   5.676
10518TIP3   OH231496   4.281   2.333   5.868
10518TIP3    H131497   4.276   2.431   5.870
10518TIP3    H231498   4.191   2.309   5.845
10519TIP3   OH231499   5.586   3.787   6.223
10519TIP3    H131500   5.543   3.834   6.148
10519TIP3    H231501   5.680   3.805   6.202
10520TIP3   OH231502   4.663   2.060   6.768
10520TIP3    H131503   4.631   2.028   6.679
10520TIP3    H231504   4.650   1.979   6.820
10521TIP3   OH231505   4.210   3.257   6.151
10521TIP3    H131506   4.140   3.297   6.205
10521TIP3    H231507   4.191   3.300   6.065
10522TIP3   OH231508   4.391   3.819   7.154
10522TIP3    H131509   4.455   3.816   7.227
10522TIP3    H231510   4.314   3.774   7.192
10523TIP3   OH231511   4.839   3.774   7.249
10523TIP3    H131512   4.933   3.752   7.252
10523TIP3    H231513   4.809   3.715   7.176
10524TIP3   OH231514   4.821   3.353   5.377
10524TIP3    H131515   4.766   3.280   5.413
10524TIP3    H231516   4.894   3.302   5.338
10525TIP3   OH231517   5.477   3.685   6.981
10525TIP3    H131518   5.470   3.615   7.050
10525TIP3    H231519   5.554   3.736   7.012
10526TIP3   OH231520   5.256   3.393   5.289
10526TIP3    H131521   5.296   3.325   5.348
10526TIP3    H231522   5.312   3.388   5.210
10527TIP3   OH231523   4.488   3.221   7.404
10527TIP3    H131524   4.504   3.125   7.408
10527TIP3    H231525   4.401   3.224   7.359
10528TIP3   OH231526   4.465   2.868   5.599
10528TIP3    H131527   4.521   2.832   5.670
10528TIP3    H231528   4.531   2.873   5.527
10529TIP3   OH231529   5.096   3.308   7.177
10529TIP3    H131530   5.053   3.326   7.091
10529TIP3    H231531   5.126   3.215   7.167
10530TIP3   OH231532   4.984   3.070   5.407
10530TIP3    H131533   4.982   3.081   5.504
10530TIP3    H231534   4.982   2.972   5.400
10531TIP3   OH231535   5.588   3.317   6.785
10531TIP3    H131536   5.663   3.362   6.740
10531TIP3    H231537   5.517   3.383   6.770
10532TIP3   OH231538   4.606   2.954   7.387
10532TIP3    H131539   4.685   2.905   7.361
10532TIP3    H231540   4.633   2.988   7.475
10533TIP3   OH231541   4.676   2.770   5.821
10533TIP3    H131542   4.654   2.717   5.899
10533TIP3    H231543   4.713   2.700   5.762
10534TIP3   OH231544   4.942   2.839   7.049
10534TIP3    H131545   4.864   2.899   7.051
10534TIP3    H231546   4.991   2.873   6.970
10535TIP3   OH231547   4.775   2.573   5.655
10535TIP3    H131548   4.750   2.576   5.560
10535TIP3    H231549   4.873   2.575   5.649
10536TIP3   OH231550   5.460   3.241   7.180
10536TIP3    H131551   5.537   3.210   7.131
10536TIP3    H231552   5.454   3.176   7.252
10537TIP3   OH231553   5.595   2.898   5.325
10537TIP3    H131554   5.574   2.853   5.241
10537TIP3    H231555   5.562   2.988   5.302
10538TIP3   OH231556   5.066   2.628   7.172
10538TIP3    H131557   5.067   2.549   7.114
10538TIP3    H231558   5.022   2.695   7.115
10539TIP3   OH231559   5.069   2.416   6.980
10539TIP3    H131560   5.097   2.455   6.895
10539TIP3    H231561   4.976   2.392   6.962
10540TIP3   OH231562   5.092   2.949   6.855
10540TIP3    H131563   5.177   2.958   6.810
10540TIP3    H231564   5.037   3.015   6.809
10541TIP3   OH231565   5.675   2.915   7.233
10541TIP3    H131566   5.722   2.831   7.245
10541TIP3    H231567   5.745   2.972   7.197
10542TIP3   OH231568   5.717   3.170   6.971
10542TIP3    H131569   5.659   3.225   6.912
10542TIP3    H231570   5.805   3.190   6.931
10543TIP3   OH231571   4.945   2.735   7.405
10543TIP3    H131572   4.876   2.668   7.420
10543TIP3    H231573   4.978   2.710   7.317
10544TIP3   OH231574   5.200   2.178   7.050
10544TIP3    H131575   5.151   2.259   7.026
10544TIP3    H231576   5.132   2.109   7.037
10545TIP3   OH231577   5.326   2.679   7.264
10545TIP3    H131578   5.311   2.666   7.360
10545TIP3    H231579   5.236   2.656   7.231
10546TIP3   OH231580   5.566   2.632   7.120
10546TIP3    H131581   5.489   2.631   7.182
10546TIP3    H231582   5.639   2.600   7.177
10547TIP3   OH231583   5.798   2.573   7.269
10547TIP3    H131584   5.809   2.477   7.286
10547TIP3    H231585   5.791   2.610   7.360
10548TIP3   OH231586   4.782   2.516   7.460
10548TIP3    H131587   4.788   2.425   7.425
10548TIP3    H231588   4.819   2.505   7.549
10549TIP3   OH231589   5.292   2.187   7.309
10549TIP3    H131590   5.359   2.116   7.302
10549TIP3    H231591   5.253   2.182   7.219
10550TIP3   OH231592   5.360   2.401   7.466
10550TIP3    H131593   5.338   2.330   7.402
10550TIP3    H231594   5.282   2.460   7.459
10551TIP3   OH231595   4.584   3.631   5.567
10551TIP3    H131596   4.679   3.625   5.545
10551TIP3    H231597   4.552   3.680   5.489
10552TIP3   OH231598   4.064   3.007   5.788
10552TIP3    H131599   4.157   3.031   5.767
10552TIP3    H231600   4.055   2.921   5.741
10553TIP3   OH231601   3.979   3.623   6.197
10553TIP3    H131602   3.912   3.564   6.158
10553TIP3    H231603   4.022   3.563   6.261
10554TIP3   OH231604   4.121   3.469   6.377
10554TIP3    H131605   4.094   3.409   6.448
10554TIP3    H231606   4.169   3.537   6.431
10555TIP3   OH231607   5.842   3.872   6.183
10555TIP3    H131608   5.865   3.905   6.272
10555TIP3    H231609   5.903   3.921   6.126
10556TIP3   OH231610   5.869   3.895   6.464
10556TIP3    H131611   5.823   3.808   6.461
10556TIP3    H231612   5.942   3.872   6.523
10557TIP3   OH231613   5.915   3.573   7.037
10557TIP3    H131614   5.843   3.581   7.103
10557TIP3    H231615   5.957   3.661   7.042
10558TIP3   OH231616   5.732   3.084   5.656
10558TIP3    H131617   5.799   3.149   5.627
10558TIP3    H231618   5.776   3.046   5.735
10559TIP3   OH231619   5.860   2.952   5.861
10559TIP3    H131620   5.793   2.910   5.918
10559TIP3    H231621   5.923   2.989   5.925
10560TIP3   OH231622   5.916   3.347   6.293
10560TIP3    H131623   5.968   3.280   6.245
10560TIP3    H231624   5.908   3.419   6.227
10561TIP3   OH231625   5.743   3.646   6.486
10561TIP3    H131626   5.671   3.687   6.538
10561TIP3    H231627   5.693   3.599   6.416
10562TIP3   OH231628   5.797   2.861   5.506
10562TIP3    H131629   5.725   2.862   5.439
10562TIP3    H231630   5.768   2.937   5.561
10563TIP3   OH231631   5.669   2.533   5.459
10563TIP3    H131632   5.622   2.569   5.383
10563TIP3    H231633   5.645   2.437   5.451
10564TIP3   OH231634   5.672   2.810   6.005
10564TIP3    H131635   5.678   2.713   5.998
10564TIP3    H231636   5.657   2.823   6.101
10565TIP3   OH231637   4.298   2.888   6.746
10565TIP3    H131638   4.302   2.848   6.657
10565TIP3    H231639   4.393   2.885   6.772
10566TIP3   OH231640   5.962   3.235   6.864
10566TIP3    H131641   6.033   3.168   6.853
10566TIP3    H231642   5.987   3.303   6.800
10567TIP3   OH231643   6.146   3.037   6.872
10567TIP3    H131644   6.071   2.988   6.912
10567TIP3    H231645   6.219   2.973   6.890
10568TIP3   OH231646   5.611   2.267   5.444
10568TIP3    H131647   5.681   2.233   5.503
10568TIP3    H231648   5.534   2.210   5.465
10569TIP3   OH231649   5.670   2.527   5.899
10569TIP3    H131650   5.710   2.439   5.914
10569TIP3    H231651   5.727   2.559   5.827
10570TIP3   OH231652   5.830   2.695   6.397
10570TIP3    H131653   5.915   2.722   6.355
10570TIP3    H231654   5.843   2.734   6.485
10571TIP3   OH231655   5.901   2.844   6.626
10571TIP3    H131656   5.823   2.877   6.676
10571TIP3    H231657   5.932   2.926   6.582
10572TIP3   OH231658   4.514   2.567   7.425
10572TIP3    H131659   4.612   2.563   7.430
10572TIP3    H231660   4.492   2.481   7.468
10573TIP3   OH231661   6.351   2.438   7.181
10573TIP3    H131662   6.410   2.372   7.139
10573TIP3    H231663   6.321   2.491   7.104
10574TIP3   OH231664   5.778   2.277   5.938
10574TIP3    H131665   5.824   2.259   6.023
10574TIP3    H231666   5.716   2.201   5.935
10575TIP3   OH231667   4.475   2.266   6.773
10575TIP3    H131668   4.535   2.188   6.775
10575TIP3    H231669   4.539   2.336   6.752
10576TIP3   OH231670   4.276   2.537   6.831
10576TIP3    H131671   4.326   2.525   6.748
10576TIP3    H231672   4.318   2.616   6.867
10577TIP3   OH231673   6.221   2.573   6.985
10577TIP3    H131674   6.135   2.615   7.008
10577TIP3    H231675   6.188   2.500   6.929
10578TIP3   OH231676   5.857   2.208   5.574
10578TIP3    H131677   5.895   2.138   5.517
10578TIP3    H231678   5.923   2.279   5.566
10579TIP3   OH231679   4.260   2.020   6.323
10579TIP3    H131680   4.168   2.036   6.352
10579TIP3    H231681   4.273   2.090   6.256
10580TIP3   OH231682   5.424   3.742   5.840
10580TIP3    H131683   5.475   3.730   5.757
10580TIP3    H231684   5.475   3.810   5.886
10581TIP3   OH231685   4.485   2.119   7.149
10581TIP3    H131686   4.431   2.117   7.230
10581TIP3    H231687   4.421   2.156   7.085
10582TIP3   OH231688   4.529   3.528   7.222
10582TIP3    H131689   4.433   3.527   7.203
10582TIP3    H231690   4.528   3.529   7.318
10583TIP3   OH231691   4.706   3.578   6.768
10583TIP3    H131692   4.655   3.654   6.735
10583TIP3    H231693   4.790   3.596   6.722
10584TIP3   OH231694   5.145   3.822   6.908
10584TIP3    H131695   5.186   3.822   6.997
10584TIP3    H231696   5.210   3.874   6.857
10585TIP3   OH231697   5.324   3.977   6.769
10585TIP3    H131698   5.394   3.926   6.727
10585TIP3    H231699   5.376   4.034   6.830
10586TIP3   OH231700   6.121   2.336   6.866
10586TIP3    H131701   6.030   2.327   6.834
10586TIP3    H231702   6.153   2.243   6.856
10587TIP3   OH231703   4.376   3.829   6.795
10587TIP3    H131704   4.287   3.866   6.779
10587TIP3    H231705   4.387   3.850   6.889
10588TIP3   OH231706   4.613   3.814   6.654
10588TIP3    H131707   4.527   3.826   6.701
10588TIP3    H231708   4.592   3.850   6.566
10589TIP3   OH231709   5.040   3.842   6.451
10589TIP3    H131710   4.971   3.862   6.385
10589TIP3    H231711   5.052   3.930   6.493
10590TIP3   OH231712   5.309   3.782   6.504
10590TIP3    H131713   5.215   3.798   6.484
10590TIP3    H231714   5.351   3.856   6.458
10591TIP3   OH231715   5.516   3.973   6.416
10591TIP3    H131716   5.501   4.058   6.368
10591TIP3    H231717   5.541   3.913   6.343
10592TIP3   OH231718   4.297   3.631   6.530
10592TIP3    H131719   4.316   3.609   6.623
10592TIP3    H231720   4.372   3.585   6.487
10593TIP3   OH231721   4.498   3.500   6.396
10593TIP3    H131722   4.542   3.431   6.447
10593TIP3    H231723   4.576   3.558   6.379
10594TIP3   OH231724   4.755   3.600   6.400
10594TIP3    H131725   4.784   3.506   6.393
10594TIP3    H231726   4.800   3.624   6.483
10595TIP3   OH231727   5.331   2.254   6.498
10595TIP3    H131728   5.284   2.184   6.546
10595TIP3    H231729   5.394   2.203   6.444
10596TIP3   OH231730   5.848   2.135   6.393
10596TIP3    H131731   5.882   2.186   6.315
10596TIP3    H231732   5.752   2.150   6.385
10597TIP3   OH231733   5.943   2.231   6.155
10597TIP3    H131734   6.016   2.180   6.115
10597TIP3    H231735   5.975   2.322   6.140
10598TIP3   OH231736   4.570   1.955   6.541
10598TIP3    H131737   4.481   1.941   6.505
10598TIP3    H231738   4.621   1.884   6.499
10599TIP3   OH231739   4.360   1.828   6.149
10599TIP3    H131740   4.392   1.889   6.080
10599TIP3    H231741   4.330   1.892   6.218
10600TIP3   OH231742   5.033   1.981   6.383
10600TIP3    H131743   5.085   2.037   6.324
10600TIP3    H231744   5.026   2.036   6.462
10601TIP3   OH231745   5.569   2.140   6.365
10601TIP3    H131746   5.558   2.100   6.277
10601TIP3    H231747   5.554   2.062   6.423
10602TIP3   OH231748   5.595   2.065   5.930
10602TIP3    H131749   5.510   2.109   5.947
10602TIP3    H231750   5.579   1.978   5.974
10603TIP3   OH231751   4.081   3.400   5.949
10603TIP3    H131752   3.998   3.365   5.912
10603TIP3    H231753   4.074   3.491   5.917
10604TIP3   OH231754   4.476   1.991   5.911
10604TIP3    H131755   4.529   1.929   5.857
10604TIP3    H231756   4.546   2.047   5.950
10605TIP3   OH231757   4.987   2.167   6.010
10605TIP3    H131758   5.037   2.113   6.073
10605TIP3    H231759   5.018   2.256   6.037
10606TIP3   OH231760   4.851   3.588   5.514
10606TIP3    H131761   4.938   3.612   5.476
10606TIP3    H231762   4.828   3.513   5.453
10607TIP3   OH231763   5.572   3.710   5.607
10607TIP3    H131764   5.564   3.613   5.595
10607TIP3    H231765   5.524   3.742   5.528
10608TIP3   OH231766   4.781   2.240   7.395
10608TIP3    H131767   4.748   2.169   7.453
10608TIP3    H231768   4.876   2.241   7.421
10609TIP3   OH231769   5.031   2.238   7.512
10609TIP3    H131770   5.116   2.215   7.470
10609TIP3    H231771   5.021   2.166   7.577
10610TIP3   OH231772   4.154   3.424   5.566
10610TIP3    H131773   4.160   3.452   5.658
10610TIP3    H231774   4.241   3.380   5.551
10611TIP3   OH231775   5.857   2.302   7.300
10611TIP3    H131776   5.875   2.271   7.392
10611TIP3    H231777   5.946   2.296   7.260
10612TIP3   OH231778   5.793   3.852   6.792
10612TIP3    H131779   5.714   3.821   6.743
10612TIP3    H231780   5.774   3.947   6.798
10613TIP3   OH231781   7.061   3.225   5.557
10613TIP3    H131782   7.031   3.316   5.536
10613TIP3    H231783   6.987   3.174   5.522
10614TIP3   OH231784   7.061   3.227   5.942
10614TIP3    H131785   7.094   3.199   6.029
10614TIP3    H231786   7.019   3.146   5.909
10615TIP3   OH231787   6.359   3.118   6.304
10615TIP3    H131788   6.389   3.050   6.367
10615TIP3    H231789   6.438   3.174   6.298
10616TIP3   OH231790   7.306   3.529   5.623
10616TIP3    H131791   7.290   3.461   5.690
10616TIP3    H231792   7.336   3.604   5.677
10617TIP3   OH231793   6.333   3.531   6.027
10617TIP3    H131794   6.323   3.433   6.029
10617TIP3    H231795   6.430   3.539   6.023
10618TIP3   OH231796   6.038   2.734   5.812
10618TIP3    H131797   5.988   2.815   5.829
10618TIP3    H231798   5.969   2.679   5.770
10619TIP3   OH231799   6.097   3.021   5.991
10619TIP3    H131800   6.146   2.943   6.025
10619TIP3    H231801   6.153   3.050   5.918
10620TIP3   OH231802   6.950   3.985   5.639
10620TIP3    H131803   6.995   3.916   5.587
10620TIP3    H231804   6.950   3.946   5.727
10621TIP3   OH231805   6.857   3.452   5.989
10621TIP3    H131806   6.897   3.376   5.943
10621TIP3    H231807   6.940   3.498   6.014
10622TIP3   OH231808   7.872   2.769   5.985
10622TIP3    H131809   7.901   2.853   6.025
10622TIP3    H231810   7.901   2.781   5.893
10623TIP3   OH231811   7.270   2.949   6.020
10623TIP3    H131812   7.316   2.864   6.037
10623TIP3    H231813   7.240   2.935   5.928
10624TIP3   OH231814   6.614   2.611   5.984
10624TIP3    H131815   6.591   2.684   5.922
10624TIP3    H231816   6.564   2.538   5.941
10625TIP3   OH231817   7.304   2.705   5.606
10625TIP3    H131818   7.377   2.691   5.671
10625TIP3    H231819   7.356   2.738   5.530
10626TIP3   OH231820   6.243   2.813   6.093
10626TIP3    H131821   6.326   2.793   6.141
10626TIP3    H231822   6.255   2.757   6.014
10627TIP3   OH231823   6.682   3.011   5.888
10627TIP3    H131824   6.777   2.986   5.899
10627TIP3    H231825   6.643   2.927   5.855
10628TIP3   OH231826   7.945   2.976   6.164
10628TIP3    H131827   7.863   3.026   6.144
10628TIP3    H231828   7.980   3.025   6.241
10629TIP3   OH231829   6.607   2.594   6.420
10629TIP3    H131830   6.548   2.631   6.352
10629TIP3    H231831   6.554   2.611   6.500
10630TIP3   OH231832   6.948   3.444   5.428
10630TIP3    H131833   6.911   3.429   5.340
10630TIP3    H231834   6.904   3.527   5.454
10631TIP3   OH231835   6.713   3.371   6.212
10631TIP3    H131836   6.651   3.439   6.249
10631TIP3    H231837   6.756   3.420   6.140
10632TIP3   OH231838   7.510   2.710   5.782
10632TIP3    H131839   7.508   2.658   5.864
10632TIP3    H231840   7.566   2.786   5.808
10633TIP3   OH231841   6.479   2.710   6.203
10633TIP3    H131842   6.540   2.783   6.226
10633TIP3    H231843   6.528   2.669   6.128
10634TIP3   OH231844   6.542   3.567   6.311
10634TIP3    H131845   6.517   3.654   6.275
10634TIP3    H231846   6.463   3.549   6.367
10635TIP3   OH231847   5.933   3.256   5.547
10635TIP3    H131848   5.891   3.280   5.463
10635TIP3    H231849   5.964   3.343   5.581
10636TIP3   OH231850   7.372   3.772   5.787
10636TIP3    H131851   7.282   3.764   5.826
10636TIP3    H231852   7.365   3.859   5.743
10637TIP3   OH231853   7.666   2.666   6.151
10637TIP3    H131854   7.580   2.694   6.118
10637TIP3    H231855   7.727   2.700   6.082
10638TIP3   OH231856   6.972   2.335   6.136
10638TIP3    H131857   6.944   2.249   6.100
10638TIP3    H231858   6.890   2.365   6.181
10639TIP3   OH231859   7.072   3.816   5.459
10639TIP3    H131860   7.123   3.733   5.439
10639TIP3    H231861   7.134   3.882   5.419
10640TIP3   OH231862   7.216   3.601   5.372
10640TIP3    H131863   7.186   3.519   5.330
10640TIP3    H231864   7.254   3.567   5.456
10641TIP3   OH231865   7.598   3.681   6.133
10641TIP3    H131866   7.588   3.605   6.072
10641TIP3    H231867   7.581   3.757   6.073
10642TIP3   OH231868   6.892   3.077   5.391
10642TIP3    H131869   6.812   3.129   5.369
10642TIP3    H231870   6.938   3.074   5.305
10643TIP3   OH231871   6.850   2.864   5.104
10643TIP3    H131872   6.918   2.914   5.151
10643TIP3    H231873   6.907   2.799   5.056
10644TIP3   OH231874   7.793   3.319   5.979
10644TIP3    H131875   7.711   3.373   5.982
10644TIP3    H231876   7.825   3.343   5.889
10645TIP3   OH231877   7.239   3.160   5.360
10645TIP3    H131878   7.185   3.185   5.438
10645TIP3    H231879   7.323   3.135   5.403
10646TIP3   OH231880   7.472   3.195   6.276
10646TIP3    H131881   7.471   3.281   6.324
10646TIP3    H231882   7.387   3.200   6.230
10647TIP3   OH231883   6.471   3.156   5.779
10647TIP3    H131884   6.429   3.098   5.711
10647TIP3    H231885   6.547   3.102   5.808
10648TIP3   OH231886   6.602   3.572   5.924
10648TIP3    H131887   6.581   3.531   5.838
10648TIP3    H231888   6.691   3.535   5.943
10649TIP3   OH231889   6.609   3.127   6.134
10649TIP3    H131890   6.640   3.105   6.044
10649TIP3    H231891   6.651   3.214   6.150
10650TIP3   OH231892   7.132   3.767   5.909
10650TIP3    H131893   7.120   3.846   5.964
10650TIP3    H231894   7.117   3.694   5.973
10651TIP3   OH231895   6.746   3.684   6.458
10651TIP3    H131896   6.685   3.746   6.504
10651TIP3    H231897   6.681   3.631   6.407
10652TIP3   OH231898   7.078   3.018   5.188
10652TIP3    H131899   7.138   3.078   5.238
10652TIP3    H231900   7.104   3.040   5.095
10653TIP3   OH231901   6.501   3.237   6.561
10653TIP3    H131902   6.506   3.326   6.603
10653TIP3    H231903   6.406   3.218   6.573
10654TIP3   OH231904   6.824   3.695   5.466
10654TIP3    H131905   6.908   3.745   5.475
10654TIP3    H231906   6.766   3.758   5.422
10655TIP3   OH231907   6.540   3.850   6.544
10655TIP3    H131908   6.505   3.852   6.453
10655TIP3    H231909   6.460   3.829   6.597
10656TIP3   OH231910   7.595   2.257   5.237
10656TIP3    H131911   7.514   2.279   5.287
10656TIP3    H231912   7.609   2.339   5.186
10657TIP3   OH231913   6.337   3.000   5.584
10657TIP3    H131914   6.270   3.045   5.528
10657TIP3    H231915   6.299   2.912   5.593
10658TIP3   OH231916   7.395   3.625   4.786
10658TIP3    H131917   7.403   3.721   4.770
10658TIP3    H231918   7.488   3.596   4.772
10659TIP3   OH231919   6.119   3.384   6.490
10659TIP3    H131920   6.051   3.364   6.423
10659TIP3    H231921   6.155   3.296   6.511
10660TIP3   OH231922   5.973   3.577   6.120
10660TIP3    H131923   6.069   3.572   6.115
10660TIP3    H231924   5.960   3.655   6.177
10661TIP3   OH231925   7.838   4.029   6.182
10661TIP3    H131926   7.836   3.932   6.196
10661TIP3    H231927   7.754   4.055   6.226
10662TIP3   OH231928   6.943   3.813   6.314
10662TIP3    H131929   6.940   3.906   6.346
10662TIP3    H231930   6.872   3.773   6.369
10663TIP3   OH231931   6.693   3.945   5.266
10663TIP3    H131932   6.659   3.914   5.180
10663TIP3    H231933   6.675   4.040   5.263
10664TIP3   OH231934   6.143   3.791   5.650
10664TIP3    H131935   6.186   3.781   5.738
10664TIP3    H231936   6.089   3.710   5.647
10665TIP3   OH231937   6.905   3.844   4.905
10665TIP3    H131938   6.963   3.774   4.868
10665TIP3    H231939   6.941   3.853   4.995
10666TIP3   OH231940   6.952   3.894   5.177
10666TIP3    H131941   6.867   3.897   5.224
10666TIP3    H231942   7.011   3.859   5.245
10667TIP3   OH231943   7.723   3.154   6.459
10667TIP3    H131944   7.646   3.170   6.402
10667TIP3    H231945   7.741   3.059   6.443
10668TIP3   OH231946   6.324   3.566   6.475
10668TIP3    H131947   6.373   3.550   6.559
10668TIP3    H231948   6.249   3.503   6.483
10669TIP3   OH231949   6.723   2.390   6.258
10669TIP3    H131950   6.632   2.359   6.235
10669TIP3    H231951   6.699   2.471   6.306
10670TIP3   OH231952   7.257   2.498   6.456
10670TIP3    H131953   7.323   2.470   6.522
10670TIP3    H231954   7.172   2.483   6.501
10671TIP3   OH231955   7.492   2.933   6.378
10671TIP3    H131956   7.436   2.936   6.459
10671TIP3    H231957   7.473   3.020   6.336
10672TIP3   OH231958   7.156   3.062   4.932
10672TIP3    H131959   7.121   3.038   4.845
10672TIP3    H231960   7.240   3.105   4.908
10673TIP3   OH231961   6.868   2.437   5.234
10673TIP3    H131962   6.832   2.435   5.325
10673TIP3    H231963   6.829   2.355   5.199
10674TIP3   OH231964   6.656   2.905   6.282
10674TIP3    H131965   6.604   2.925   6.363
10674TIP3    H231966   6.639   2.987   6.230
10675TIP3   OH231967   6.539   2.791   5.796
10675TIP3    H131968   6.446   2.766   5.814
10675TIP3    H231969   6.551   2.751   5.707
10676TIP3   OH231970   7.029   2.877   5.525
10676TIP3    H131971   6.977   2.949   5.481
10676TIP3    H231972   7.084   2.845   5.452
10677TIP3   OH231973   7.203   3.153   6.606
10677TIP3    H131974   7.177   3.087   6.674
10677TIP3    H231975   7.295   3.171   6.630
10678TIP3   OH231976   7.184   2.904   5.762
10678TIP3    H131977   7.123   2.933   5.691
10678TIP3    H231978   7.220   2.824   5.718
10679TIP3   OH231979   6.476   2.934   6.490
10679TIP3    H131980   6.495   2.999   6.559
10679TIP3    H231981   6.461   2.852   6.541
10680TIP3   OH231982   6.526   2.413   5.201
10680TIP3    H131983   6.513   2.410   5.298
10680TIP3    H231984   6.446   2.464   5.174
10681TIP3   OH231985   6.066   2.456   6.073
10681TIP3    H131986   6.143   2.487   6.124
10681TIP3    H231987   6.104   2.424   5.990
10682TIP3   OH231988   6.035   2.437   5.591
10682TIP3    H131989   6.079   2.475   5.512
10682TIP3    H231990   5.973   2.509   5.611
10683TIP3   OH231991   7.197   3.150   6.183
10683TIP3    H131992   7.229   3.078   6.124
10683TIP3    H231993   7.164   3.097   6.258
10684TIP3   OH231994   6.869   2.606   5.857
10684TIP3    H131995   6.786   2.612   5.909
10684TIP3    H231996   6.937   2.615   5.926
10685TIP3   OH231997   6.300   2.671   5.864
10685TIP3    H131998   6.205   2.680   5.837
10685TIP3    H231999   6.320   2.579   5.841
10686TIP3   OH232000   6.566   2.666   5.555
10686TIP3    H132001   6.660   2.681   5.531
10686TIP3    H232002   6.519   2.688   5.472
10687TIP3   OH232003   7.359   2.688   6.064
10687TIP3    H132004   7.319   2.702   6.153
10687TIP3    H232005   7.292   2.630   6.023
10688TIP3   OH232006   6.414   2.701   5.331
10688TIP3    H132007   6.344   2.654   5.283
10688TIP3    H232008   6.466   2.737   5.256
10689TIP3   OH232009   7.531   4.378   6.281
10689TIP3    H132010   7.529   4.403   6.186
10689TIP3    H232011   7.610   4.428   6.311
10690TIP3   OH232012   6.485   3.488   6.698
10690TIP3    H132013   6.564   3.519   6.747
10690TIP3    H232014   6.420   3.487   6.770
10691TIP3   OH232015   6.949   2.941   5.952
10691TIP3    H132016   7.024   2.906   5.902
10691TIP3    H232017   6.959   2.898   6.039
10692TIP3   OH232018   6.474   2.427   5.837
10692TIP3    H132019   6.434   2.349   5.883
10692TIP3    H232020   6.504   2.387   5.754
10693TIP3   OH232021   6.924   2.839   6.246
10693TIP3    H132022   6.833   2.875   6.258
10693TIP3    H232023   6.980   2.903   6.294
10694TIP3   OH232024   6.661   3.229   5.338
10694TIP3    H132025   6.589   3.163   5.327
10694TIP3    H232026   6.642   3.262   5.429
10695TIP3   OH232027   7.561   3.465   5.966
10695TIP3    H132028   7.586   3.515   5.885
10695TIP3    H232029   7.476   3.424   5.939
10696TIP3   OH232030   7.120   2.538   5.209
10696TIP3    H132031   7.023   2.520   5.214
10696TIP3    H232032   7.127   2.633   5.229
10697TIP3   OH232033   7.058   3.546   6.338
10697TIP3    H132034   7.088   3.532   6.428
10697TIP3    H232035   7.022   3.637   6.340
10698TIP3   OH232036   7.187   2.790   5.308
10698TIP3    H132037   7.284   2.796   5.321
10698TIP3    H232038   7.168   2.869   5.254
10699TIP3   OH232039   6.357   3.255   6.014
10699TIP3    H132040   6.394   3.225   5.928
10699TIP3    H232041   6.395   3.191   6.076
10700TIP3   OH232042   6.808   3.379   5.163
10700TIP3    H132043   6.760   3.465   5.168
10700TIP3    H232044   6.753   3.323   5.222
10701TIP3   OH232045   6.237   3.169   6.627
10701TIP3    H132046   6.251   3.155   6.722
10701TIP3    H232047   6.165   3.106   6.608
10702TIP3   OH232048   6.960   3.287   6.649
10702TIP3    H132049   6.897   3.229   6.603
10702TIP3    H232050   7.045   3.253   6.615
10703TIP3   OH232051   7.220   3.804   6.236
10703TIP3    H132052   7.123   3.806   6.247
10703TIP3    H232053   7.248   3.859   6.312
10704TIP3   OH232054   7.628   2.882   5.141
10704TIP3    H132055   7.567   2.837   5.078
10704TIP3    H232056   7.625   2.971   5.100
10705TIP3   OH232057   7.849   3.738   6.221
10705TIP3    H132058   7.751   3.732   6.211
10705TIP3    H232059   7.876   3.709   6.131
10706TIP3   OH232060   7.330   3.700   5.050
10706TIP3    H132061   7.306   3.628   5.110
10706TIP3    H232062   7.344   3.653   4.965
10707TIP3   OH232063   7.327   3.328   5.884
10707TIP3    H132064   7.233   3.304   5.896
10707TIP3    H232065   7.360   3.248   5.839
10708TIP3   OH232066   6.456   3.554   5.644
10708TIP3    H132067   6.452   3.631   5.584
10708TIP3    H232068   6.362   3.532   5.654
10709TIP3   OH232069   6.021   2.859   5.347
10709TIP3    H132070   6.065   2.944   5.368
10709TIP3    H232071   5.943   2.864   5.406
10710TIP3   OH232072   6.590   3.319   5.583
10710TIP3    H132073   6.557   3.409   5.603
10710TIP3    H232074   6.554   3.268   5.658
10711TIP3   OH232075   6.725   3.898   6.107
10711TIP3    H132076   6.767   3.971   6.056
10711TIP3    H232077   6.802   3.863   6.156
10712TIP3   OH232078   6.367   3.784   5.492
10712TIP3    H132079   6.281   3.788   5.538
10712TIP3    H232080   6.401   3.873   5.505
10713TIP3   OH232081   7.110   3.535   6.068
10713TIP3    H132082   7.101   3.532   6.166
10713TIP3    H232083   7.190   3.482   6.055
10714TIP3   OH232084   7.089   3.429   4.951
10714TIP3    H132085   7.142   3.404   5.030
10714TIP3    H232086   7.002   3.398   4.979
10715TIP3   OH232087   7.360   4.069   6.112
10715TIP3    H132088   7.279   4.017   6.102
10715TIP3    H232089   7.348   4.137   6.042
10716TIP3   OH232090   7.427   3.901   4.769
10716TIP3    H132091   7.465   3.975   4.719
10716TIP3    H232092   7.346   3.945   4.804
10717TIP3   OH232093   6.444   2.677   6.633
10717TIP3    H132094   6.347   2.683   6.645
10717TIP3    H232095   6.470   2.620   6.707
10718TIP3   OH232096   7.249   3.362   5.168
10718TIP3    H132097   7.239   3.294   5.237
10718TIP3    H232098   7.346   3.358   5.154
10719TIP3   OH232099   6.164   3.761   6.266
10719TIP3    H132100   6.217   3.688   6.302
10719TIP3    H232101   6.189   3.833   6.325
10720TIP3   OH232102   6.452   3.407   4.951
10720TIP3    H132103   6.465   3.315   4.922
10720TIP3    H232104   6.431   3.394   5.046
10721TIP3   OH232105   6.396   3.411   5.224
10721TIP3    H132106   6.471   3.383   5.278
10721TIP3    H232107   6.402   3.509   5.230
10722TIP3   OH232108   6.133   3.105   5.427
10722TIP3    H132109   6.065   3.149   5.483
10722TIP3    H232110   6.146   3.173   5.359
10723TIP3   OH232111   7.280   2.744   6.324
10723TIP3    H132112   7.366   2.777   6.353
10723TIP3    H232113   7.271   2.660   6.373
10724TIP3   OH232114   7.162   2.491   5.487
10724TIP3    H132115   7.149   2.511   5.393
10724TIP3    H232116   7.203   2.573   5.521
10725TIP3   OH232117   6.666   3.609   5.173
10725TIP3    H132118   6.578   3.635   5.206
10725TIP3    H232119   6.680   3.675   5.104
10726TIP3   OH232120   6.851   2.673   5.586
10726TIP3    H132121   6.915   2.745   5.567
10726TIP3    H232122   6.857   2.666   5.683
10727TIP3   OH232123   7.120   2.989   6.389
10727TIP3    H132124   7.145   3.041   6.467
10727TIP3    H232125   7.174   2.908   6.397
10728TIP3   OH232126   6.993   2.395   5.687
10728TIP3    H132127   6.981   2.474   5.742
10728TIP3    H232128   7.056   2.429   5.619
10729TIP3   OH232129   6.410   3.684   5.237
10729TIP3    H132130   6.380   3.754   5.175
10729TIP3    H232131   6.389   3.723   5.324
10730TIP3   OH232132   6.508   2.398   5.479
10730TIP3    H132133   6.506   2.490   5.513
10730TIP3    H232134   6.604   2.381   5.484
10731TIP3   OH232135   7.760   2.888   6.383
10731TIP3    H132136   7.662   2.885   6.376
10731TIP3    H232137   7.785   2.864   6.292
10732TIP3   OH232138   7.412   3.085   5.762
10732TIP3    H132139   7.337   3.024   5.772
10732TIP3    H232140   7.484   3.038   5.810
10733TIP3   OH232141   6.127   3.310   5.231
10733TIP3    H132142   6.198   3.377   5.239
10733TIP3    H232143   6.169   3.252   5.164
10734TIP3   OH232144   6.069   2.588   5.366
10734TIP3    H132145   6.068   2.686   5.363
10734TIP3    H232146   5.988   2.567   5.317
10735TIP3   OH232147   7.381   4.044   5.712
10735TIP3    H132148   7.340   4.088   5.634
10735TIP3    H232149   7.476   4.061   5.692
10736TIP3   OH232150   6.460   2.309   6.234
10736TIP3    H132151   6.425   2.276   6.148
10736TIP3    H232152   6.447   2.232   6.293
10737TIP3   OH232153   5.997   3.535   5.616
10737TIP3    H132154   5.930   3.560   5.681
10737TIP3    H232155   5.960   3.575   5.534
10738TIP3   OH232156   6.156   4.075   6.689
10738TIP3    H132157   6.242   4.075   6.737
10738TIP3    H232158   6.135   3.980   6.689
10739TIP3   OH232159   6.632   4.031   6.736
10739TIP3    H132160   6.728   4.015   6.741
10739TIP3    H232161   6.608   3.971   6.663
10740TIP3   OH232162   6.617   3.610   4.864
10740TIP3    H132163   6.561   3.537   4.900
10740TIP3    H232164   6.691   3.560   4.827
10741TIP3   OH232165   7.272   3.942   6.469
10741TIP3    H132166   7.267   3.872   6.537
10741TIP3    H232167   7.350   3.994   6.498
10742TIP3   OH232168   7.051   3.649   4.775
10742TIP3    H132169   7.093   3.584   4.834
10742TIP3    H232170   7.109   3.647   4.696
10743TIP3   OH232171   6.284   3.478   6.890
10743TIP3    H132172   6.300   3.382   6.895
10743TIP3    H232173   6.196   3.481   6.845
10744TIP3   OH232174   6.262   3.125   5.085
10744TIP3    H132175   6.319   3.093   5.158
10744TIP3    H232176   6.329   3.130   5.013
10745TIP3   OH232177   6.892   3.564   6.664
10745TIP3    H132178   6.849   3.584   6.578
10745TIP3    H232179   6.921   3.471   6.653
10746TIP3   OH232180   6.776   3.326   4.893
10746TIP3    H132181   6.777   3.338   4.990
10746TIP3    H232182   6.776   3.228   4.887
10747TIP3   OH232183   7.384   3.574   6.273
10747TIP3    H132184   7.459   3.616   6.227
10747TIP3    H232185   7.315   3.642   6.257
10748TIP3   OH232186   6.403   3.216   6.874
10748TIP3    H132187   6.477   3.159   6.850
10748TIP3    H232188   6.431   3.247   6.963
10749TIP3   OH232189   6.468   3.032   5.304
10749TIP3    H132190   6.441   2.989   5.387
10749TIP3    H232191   6.506   2.957   5.254
10750TIP3   OH232192   6.742   3.098   6.537
10750TIP3    H132193   6.661   3.154   6.538
10750TIP3    H232194   6.789   3.131   6.457
10751TIP3   OH232195   6.572   2.827   5.145
10751TIP3    H132196   6.545   2.832   5.051
10751TIP3    H232197   6.669   2.831   5.137
10752TIP3   OH232198   7.254   3.497   6.667
10752TIP3    H132199   7.333   3.472   6.618
10752TIP3    H232200   7.252   3.431   6.739
10753TIP3   OH232201   7.390   3.155   4.812
10753TIP3    H132202   7.370   3.109   4.728
10753TIP3    H232203   7.358   3.245   4.789
10754TIP3   OH232204   6.865   2.885   6.656
10754TIP3    H132205   6.861   2.806   6.599
10754TIP3    H232206   6.820   2.953   6.601
10755TIP3   OH232207   6.866   2.670   6.468
10755TIP3    H132208   6.892   2.713   6.384
10755TIP3    H232209   6.772   2.647   6.449
10756TIP3   OH232210   6.890   3.207   6.340
10756TIP3    H132211   6.974   3.221   6.295
10756TIP3    H232212   6.832   3.272   6.296
10757TIP3   OH232213   7.477   3.181   6.714
10757TIP3    H132214   7.543   3.110   6.712
10757TIP3    H232215   7.530   3.256   6.682
10758TIP3   OH232216   7.513   3.425   6.457
10758TIP3    H132217   7.455   3.480   6.398
10758TIP3    H232218   7.600   3.447   6.417
10759TIP3   OH232219   6.744   2.990   6.892
10759TIP3    H132220   6.674   2.924   6.908
10759TIP3    H232221   6.774   2.967   6.802
10760TIP3   OH232222   6.997   2.434   6.537
10760TIP3    H132223   6.949   2.517   6.513
10760TIP3    H232224   6.926   2.367   6.523
10761TIP3   OH232225   7.118   2.937   6.749
10761TIP3    H132226   7.100   2.922   6.844
10761TIP3    H232227   7.029   2.915   6.714
10762TIP3   OH232228   7.348   2.888   6.610
10762TIP3    H132229   7.257   2.901   6.643
10762TIP3    H232230   7.388   2.859   6.692
10763TIP3   OH232231   7.649   2.814   6.802
10763TIP3    H132232   7.582   2.785   6.738
10763TIP3    H232233   7.603   2.887   6.852
10764TIP3   OH232234   6.580   2.772   6.945
10764TIP3    H132235   6.583   2.680   6.912
10764TIP3    H232236   6.616   2.760   7.035
10765TIP3   OH232237   7.094   2.445   6.792
10765TIP3    H132238   7.156   2.370   6.785
10765TIP3    H232239   7.050   2.440   6.704
10766TIP3   OH232240   7.157   2.660   6.944
10766TIP3    H132241   7.132   2.587   6.884
10766TIP3    H232242   7.077   2.717   6.942
10767TIP3   OH232243   6.381   3.893   5.056
10767TIP3    H132244   6.475   3.884   5.034
10767TIP3    H232245   6.350   3.938   4.975
10768TIP3   OH232246   5.858   3.269   5.267
10768TIP3    H132247   5.953   3.289   5.252
10768TIP3    H232248   5.851   3.180   5.225
10769TIP3   OH232249   5.776   3.882   5.682
10769TIP3    H132250   5.708   3.821   5.644
10769TIP3    H232251   5.819   3.823   5.747
10770TIP3   OH232252   5.909   3.729   5.870
10770TIP3    H132253   5.894   3.658   5.934
10770TIP3    H232254   5.959   3.792   5.925
10771TIP3   OH232255   7.637   4.127   5.671
10771TIP3    H132256   7.661   4.166   5.757
10771TIP3    H232257   7.691   4.180   5.610
10772TIP3   OH232258   7.663   4.149   5.953
10772TIP3    H132259   7.622   4.061   5.948
10772TIP3    H232260   7.741   4.129   6.007
10773TIP3   OH232261   7.712   3.828   6.526
10773TIP3    H132262   7.639   3.839   6.590
10773TIP3    H232263   7.754   3.917   6.528
10774TIP3   OH232264   7.528   3.342   5.143
10774TIP3    H132265   7.595   3.407   5.113
10774TIP3    H232266   7.572   3.303   5.222
10775TIP3   OH232267   7.655   3.210   5.347
10775TIP3    H132268   7.589   3.168   5.406
10775TIP3    H232269   7.721   3.246   5.411
10776TIP3   OH232270   7.711   3.602   5.779
10776TIP3    H132271   7.764   3.536   5.731
10776TIP3    H232272   7.707   3.677   5.715
10777TIP3   OH232273   7.539   3.899   5.975
10777TIP3    H132274   7.467   3.945   6.023
10777TIP3    H232275   7.489   3.854   5.903
10778TIP3   OH232276   7.593   3.118   4.993
10778TIP3    H132277   7.520   3.119   4.926
10778TIP3    H232278   7.565   3.194   5.048
10779TIP3   OH232279   7.462   2.791   4.947
10779TIP3    H132280   7.419   2.825   4.868
10779TIP3    H232281   7.439   2.696   4.940
10780TIP3   OH232282   7.467   3.067   5.492
10780TIP3    H132283   7.476   2.971   5.484
10780TIP3    H232284   7.454   3.080   5.588
10781TIP3   OH232285   6.094   3.138   6.241
10781TIP3    H132286   6.090   3.106   6.149
10781TIP3    H232287   6.191   3.140   6.257
10782TIP3   OH232288   7.756   3.492   6.351
10782TIP3    H132289   7.829   3.425   6.340
10782TIP3    H232290   7.783   3.561   6.288
10783TIP3   OH232291   7.938   3.294   6.367
10783TIP3    H132292   7.866   3.241   6.407
10783TIP3    H232293   8.013   3.233   6.378
10784TIP3   OH232294   7.405   2.526   4.934
10784TIP3    H132295   7.480   2.491   4.987
10784TIP3    H232296   7.333   2.465   4.953
10785TIP3   OH232297   7.465   2.784   5.385
10785TIP3    H132298   7.507   2.696   5.401
10785TIP3    H232299   7.523   2.817   5.314
10786TIP3   OH232300   7.625   2.956   5.884
10786TIP3    H132301   7.711   2.980   5.841
10786TIP3    H232302   7.641   2.993   5.972
10787TIP3   OH232303   7.698   3.102   6.118
10787TIP3    H132304   7.618   3.138   6.161
10787TIP3    H232305   7.731   3.180   6.069
10788TIP3   OH232306   6.314   2.827   6.917
10788TIP3    H132307   6.411   2.819   6.920
10788TIP3    H232308   6.288   2.740   6.955
10789TIP3   OH232309   8.160   2.684   6.662
10789TIP3    H132310   8.193   2.607   6.611
10789TIP3    H232311   8.123   2.740   6.590
10790TIP3   OH232312   7.573   2.534   5.426
10790TIP3    H132313   7.622   2.516   5.509
10790TIP3    H232314   7.513   2.457   5.423
10791TIP3   OH232315   6.276   2.518   6.243
10791TIP3    H132316   6.338   2.443   6.253
10791TIP3    H232317   6.337   2.593   6.237
10792TIP3   OH232318   6.076   2.790   6.318
10792TIP3    H132319   6.124   2.786   6.234
10792TIP3    H232320   6.102   2.877   6.351
10793TIP3   OH232321   8.013   2.823   6.482
10793TIP3    H132322   7.928   2.870   6.489
10793TIP3    H232323   7.990   2.756   6.416
10794TIP3   OH232324   7.652   2.464   5.059
10794TIP3    H132325   7.691   2.394   5.003
10794TIP3    H232326   7.719   2.536   5.054
10795TIP3   OH232327   6.061   2.299   5.822
10795TIP3    H132328   5.967   2.290   5.847
10795TIP3    H232329   6.055   2.355   5.742
10796TIP3   OH232330   7.214   4.000   5.323
10796TIP3    H132331   7.271   3.990   5.244
10796TIP3    H232332   7.263   4.068   5.374
10797TIP3   OH232333   6.283   2.370   6.631
10797TIP3    H132334   6.233   2.367   6.714
10797TIP3    H232335   6.217   2.413   6.572
10798TIP3   OH232336   6.319   3.803   6.708
10798TIP3    H132337   6.226   3.779   6.693
10798TIP3    H232338   6.329   3.785   6.803
10799TIP3   OH232339   6.500   3.838   6.258
10799TIP3    H132340   6.451   3.913   6.219
10799TIP3    H232341   6.586   3.852   6.212
10800TIP3   OH232342   6.940   4.079   6.394
10800TIP3    H132343   6.982   4.080   6.483
10800TIP3    H232344   7.006   4.131   6.342
10801TIP3   OH232345   7.121   4.232   6.256
10801TIP3    H132346   7.193   4.182   6.215
10801TIP3    H232347   7.172   4.291   6.317
10802TIP3   OH232348   7.912   2.591   6.355
10802TIP3    H132349   7.825   2.581   6.313
10802TIP3    H232350   7.950   2.500   6.342
10803TIP3   OH232351   6.175   4.095   6.281
10803TIP3    H132352   6.084   4.125   6.260
10803TIP3    H232353   6.187   4.137   6.367
10804TIP3   OH232354   6.409   4.072   6.139
10804TIP3    H132355   6.323   4.083   6.185
10804TIP3    H232356   6.387   4.104   6.049
10805TIP3   OH232357   6.836   4.093   5.938
10805TIP3    H132358   6.770   4.116   5.870
10805TIP3    H232359   6.850   4.180   5.981
10806TIP3   OH232360   7.106   4.038   5.989
10806TIP3    H132361   7.011   4.053   5.972
10806TIP3    H232362   7.146   4.115   5.945
10807TIP3   OH232363   7.311   4.237   5.896
10807TIP3    H132364   7.281   4.310   5.840
10807TIP3    H232365   7.341   4.172   5.829
10808TIP3   OH232366   6.087   3.888   6.026
10808TIP3    H132367   6.112   3.859   6.116
10808TIP3    H232368   6.159   3.843   5.975
10809TIP3   OH232369   6.281   3.759   5.885
10809TIP3    H132370   6.294   3.674   5.934
10809TIP3    H232371   6.373   3.792   5.884
10810TIP3   OH232372   6.550   3.852   5.889
10810TIP3    H132373   6.578   3.759   5.878
10810TIP3    H232374   6.596   3.872   5.973
10811TIP3   OH232375   7.132   2.518   5.976
10811TIP3    H132376   7.085   2.449   6.026
10811TIP3    H232377   7.199   2.467   5.927
10812TIP3   OH232378   7.640   2.396   5.883
10812TIP3    H132379   7.679   2.442   5.806
10812TIP3    H232380   7.545   2.410   5.869
10813TIP3   OH232381   7.738   2.487   5.644
10813TIP3    H132382   7.811   2.434   5.605
10813TIP3    H232383   7.773   2.578   5.628
10814TIP3   OH232384   6.368   2.217   5.988
10814TIP3    H132385   6.275   2.185   5.990
10814TIP3    H232386   6.415   2.131   5.984
10815TIP3   OH232387   6.164   2.088   5.642
10815TIP3    H132388   6.189   2.144   5.566
10815TIP3    H232389   6.131   2.154   5.706
10816TIP3   OH232390   6.825   2.249   5.878
10816TIP3    H132391   6.877   2.288   5.805
10816TIP3    H232392   6.812   2.324   5.936
10817TIP3   OH232393   7.356   2.393   5.852
10817TIP3    H132394   7.360   2.355   5.763
10817TIP3    H232395   7.344   2.312   5.908
10818TIP3   OH232396   7.391   2.321   5.417
10818TIP3    H132397   7.304   2.363   5.429
10818TIP3    H232398   7.377   2.235   5.461
10819TIP3   OH232399   5.873   3.662   5.413
10819TIP3    H132400   5.787   3.627   5.382
10819TIP3    H232401   5.862   3.755   5.386
10820TIP3   OH232402   6.276   2.245   5.401
10820TIP3    H132403   6.323   2.182   5.343
10820TIP3    H232404   6.350   2.298   5.436
10821TIP3   OH232405   6.784   2.424   5.499
10821TIP3    H132406   6.847   2.376   5.556
10821TIP3    H232407   6.806   2.516   5.524
10822TIP3   OH232408   6.647   3.845   5.002
10822TIP3    H132409   6.735   3.867   4.965
10822TIP3    H232410   6.624   3.771   4.941
10823TIP3   OH232411   7.366   3.966   5.093
10823TIP3    H132412   7.357   3.869   5.081
10823TIP3    H232413   7.321   3.999   5.013
10824TIP3   OH232414   6.578   2.497   6.881
10824TIP3    H132415   6.542   2.426   6.938
10824TIP3    H232416   6.672   2.497   6.910
10825TIP3   OH232417   6.828   2.494   7.001
10825TIP3    H132418   6.913   2.462   6.966
10825TIP3    H232419   6.810   2.426   7.070
10826TIP3   OH232420   5.951   3.682   5.054
10826TIP3    H132421   5.951   3.701   5.149
10826TIP3    H232422   6.038   3.639   5.041
10827TIP3   OH232423   7.664   2.540   6.771
10827TIP3    H132424   7.671   2.466   6.834
10827TIP3    H232425   7.746   2.529   6.716
10828TIP3   OH232426   7.588   4.108   6.280
10828TIP3    H132427   7.511   4.079   6.228
10828TIP3    H232428   7.571   4.205   6.284
10829TIP3   OH232429   8.153   3.373   5.793
10829TIP3    H132430   8.180   3.306   5.859
10829TIP3    H232431   8.231   3.431   5.794
10830TIP3   OH232432   8.126   3.788   5.515
10830TIP3    H132433   8.117   3.690   5.517
10830TIP3    H232434   8.222   3.797   5.511
10831TIP3   OH232435   7.832   2.989   5.298
10831TIP3    H132436   7.783   3.071   5.316
10831TIP3    H232437   7.762   2.935   5.256
10832TIP3   OH232438   7.892   3.276   5.478
10832TIP3    H132439   7.941   3.198   5.512
10832TIP3    H232440   7.950   3.306   5.407
10833TIP3   OH232441   8.758   4.211   5.107
10833TIP3    H132442   8.853   4.187   5.109
10833TIP3    H232443   8.740   4.221   5.201
10834TIP3   OH232444   8.660   3.697   5.477
10834TIP3    H132445   8.672   3.665   5.387
10834TIP3    H232446   8.739   3.753   5.492
10835TIP3   OH232447   8.379   2.869   5.485
10835TIP3    H132448   8.395   2.935   5.415
10835TIP3    H232449   8.346   2.794   5.432
10836TIP3   OH232450   8.039   3.069   5.579
10836TIP3    H132451   8.121   3.049   5.629
10836TIP3    H232452   8.056   3.015   5.499
10837TIP3   OH232453   8.465   3.271   5.370
10837TIP3    H132454   8.557   3.238   5.385
10837TIP3    H232455   8.422   3.188   5.340
10838TIP3   OH232456   8.404   2.861   5.917
10838TIP3    H132457   8.348   2.890   5.843
10838TIP3    H232458   8.346   2.882   5.992
10839TIP3   OH232459   8.513   3.625   5.709
10839TIP3    H132460   8.448   3.690   5.744
10839TIP3    H232461   8.554   3.677   5.637
10840TIP3   OH232462   8.266   2.969   5.703
10840TIP3    H132463   8.331   3.040   5.722
10840TIP3    H232464   8.310   2.927   5.625
10841TIP3   OH232465   8.339   3.821   5.797
10841TIP3    H132466   8.313   3.909   5.762
10841TIP3    H232467   8.260   3.803   5.853
10842TIP3   OH232468   7.729   3.513   5.035
10842TIP3    H132469   7.688   3.539   4.951
10842TIP3    H232470   7.760   3.599   5.070
10843TIP3   OH232471   8.258   3.416   5.262
10843TIP3    H132472   8.219   3.357   5.194
10843TIP3    H232473   8.335   3.362   5.293
10844TIP3   OH232474   8.391   3.830   5.408
10844TIP3    H132475   8.366   3.792   5.322
10844TIP3    H232476   8.475   3.786   5.429
10845TIP3   OH232477   8.401   3.387   5.617
10845TIP3    H132478   8.431   3.362   5.527
10845TIP3    H232479   8.445   3.473   5.633
10846TIP3   OH232480   8.539   3.937   5.951
10846TIP3    H132481   8.479   4.002   5.993
10846TIP3    H232482   8.474   3.885   5.899
10847TIP3   OH232483   8.295   3.505   6.042
10847TIP3    H132484   8.299   3.590   6.091
10847TIP3    H232485   8.203   3.479   6.059
10848TIP3   OH232486   8.640   3.990   4.975
10848TIP3    H132487   8.661   4.078   5.010
10848TIP3    H232488   8.571   4.010   4.909
10849TIP3   OH232489   8.336   4.107   6.030
10849TIP3    H132490   8.300   4.110   5.940
10849TIP3    H232491   8.255   4.087   6.083
10850TIP3   OH232492   8.135   3.256   5.066
10850TIP3    H132493   8.065   3.299   5.012
10850TIP3    H232494   8.095   3.170   5.084
10851TIP3   OH232495   7.914   3.642   5.977
10851TIP3    H132496   7.849   3.619   5.908
10851TIP3    H232497   7.952   3.555   6.001
10852TIP3   OH232498   7.768   3.833   5.611
10852TIP3    H132499   7.865   3.831   5.604
10852TIP3    H232500   7.755   3.914   5.663
10853TIP3   OH232501   8.727   4.055   5.791
10853TIP3    H132502   8.734   4.147   5.826
10853TIP3    H232503   8.658   4.019   5.851
10854TIP3   OH232504   8.511   4.199   4.748
10854TIP3    H132505   8.460   4.180   4.667
10854TIP3    H232506   8.472   4.284   4.776
10855TIP3   OH232507   7.939   4.047   5.136
10855TIP3    H132508   7.985   4.039   5.222
10855TIP3    H232509   7.883   3.968   5.138
10856TIP3   OH232510   8.777   4.162   4.683
10856TIP3    H132511   8.683   4.177   4.709
10856TIP3    H232512   8.789   4.069   4.709
10857TIP3   OH232513   8.122   3.822   5.962
10857TIP3    H132514   8.170   3.807   6.046
10857TIP3    H232515   8.047   3.760   5.970
10858TIP3   OH232516   8.503   2.629   5.778
10858TIP3    H132517   8.417   2.611   5.736
10858TIP3    H232518   8.493   2.722   5.802
10859TIP3   OH232519   8.444   3.167   5.769
10859TIP3    H132520   8.394   3.186   5.851
10859TIP3    H232521   8.425   3.247   5.715
10860TIP3   OH232522   8.335   3.049   5.277
10860TIP3    H132523   8.246   3.016   5.301
10860TIP3    H232524   8.348   3.006   5.189
10861TIP3   OH232525   8.260   3.191   5.981
10861TIP3    H132526   8.315   3.244   6.041
10861TIP3    H232527   8.252   3.107   6.030
10862TIP3   OH232528   8.305   2.625   4.674
10862TIP3    H132529   8.294   2.645   4.768
10862TIP3    H232530   8.248   2.693   4.634
10863TIP3   OH232531   7.862   2.710   5.560
10863TIP3    H132532   7.937   2.744   5.614
10863TIP3    H232533   7.905   2.678   5.479
10864TIP3   OH232534   7.829   2.693   5.077
10864TIP3    H132535   7.874   2.731   4.998
10864TIP3    H232536   7.768   2.766   5.098
10865TIP3   OH232537   8.096   2.930   5.347
10865TIP3    H132538   8.001   2.933   5.321
10865TIP3    H232539   8.121   2.837   5.331
10866TIP3   OH232540   8.373   2.926   5.031
10866TIP3    H132541   8.456   2.935   4.982
10866TIP3    H232542   8.308   2.944   4.959
10867TIP3   OH232543   8.210   2.953   4.818
10867TIP3    H132544   8.141   2.906   4.768
10867TIP3    H232545   8.264   2.988   4.745
10868TIP3   OH232546   8.282   3.747   6.187
10868TIP3    H132547   8.362   3.775   6.236
10868TIP3    H232548   8.217   3.745   6.260
10869TIP3   OH232549   8.256   2.685   5.318
10869TIP3    H132550   8.225   2.611   5.375
10869TIP3    H232551   8.305   2.637   5.251
10870TIP3   OH232552   8.714   3.093   5.786
10870TIP3    H132553   8.623   3.118   5.760
10870TIP3    H232554   8.763   3.176   5.777
10871TIP3   OH232555   8.426   3.514   4.824
10871TIP3    H132556   8.378   3.429   4.819
10871TIP3    H232557   8.433   3.528   4.921
10872TIP3   OH232558   8.823   3.777   5.851
10872TIP3    H132559   8.853   3.764   5.941
10872TIP3    H232560   8.798   3.871   5.850
10873TIP3   OH232561   8.152   3.512   5.502
10873TIP3    H132562   8.186   3.481   5.416
10873TIP3    H232563   8.190   3.448   5.564
10874TIP3   OH232564   8.568   3.633   4.621
10874TIP3    H132565   8.541   3.723   4.648
10874TIP3    H232566   8.535   3.582   4.698
10875TIP3   OH232567   8.033   3.433   6.117
10875TIP3    H132568   8.063   3.417   6.208
10875TIP3    H232569   7.968   3.362   6.104
10876TIP3   OH232570   8.763   3.549   6.133
10876TIP3    H132571   8.719   3.499   6.062
10876TIP3    H232572   8.853   3.511   6.131
10877TIP3   OH232573   8.253   3.813   5.128
10877TIP3    H132574   8.250   3.893   5.073
10877TIP3    H232575   8.158   3.795   5.138
10878TIP3   OH232576   7.816   3.116   4.832
10878TIP3    H132577   7.861   3.201   4.854
10878TIP3    H232578   7.738   3.121   4.892
10879TIP3   OH232579   8.403   3.581   5.091
10879TIP3    H132580   8.359   3.668   5.096
10879TIP3    H232581   8.350   3.528   5.154
10880TIP3   OH232582   8.520   4.152   5.596
10880TIP3    H132583   8.555   4.229   5.548
10880TIP3    H232584   8.598   4.123   5.646
10881TIP3   OH232585   8.171   4.050   4.979
10881TIP3    H132586   8.085   4.059   5.025
10881TIP3    H232587   8.203   4.143   4.982
10882TIP3   OH232588   8.234   2.939   6.122
10882TIP3    H132589   8.137   2.937   6.131
10882TIP3    H232590   8.262   2.877   6.191
10883TIP3   OH232591   7.960   4.018   5.753
10883TIP3    H132592   8.014   3.948   5.794
10883TIP3    H232593   7.984   4.094   5.807
10884TIP3   OH232594   8.245   3.662   4.438
10884TIP3    H132595   8.249   3.568   4.412
10884TIP3    H232596   8.228   3.655   4.535
10885TIP3   OH232597   8.198   3.666   4.709
10885TIP3    H132598   8.277   3.632   4.755
10885TIP3    H232599   8.204   3.763   4.724
10886TIP3   OH232600   7.927   3.361   4.914
10886TIP3    H132601   7.861   3.406   4.970
10886TIP3    H232602   7.941   3.430   4.846
10887TIP3   OH232603   8.462   3.878   4.666
10887TIP3    H132604   8.371   3.899   4.696
10887TIP3    H232605   8.481   3.957   4.614
10888TIP3   OH232606   8.202   3.942   4.726
10888TIP3    H132607   8.169   4.011   4.665
10888TIP3    H232608   8.186   3.984   4.813
10889TIP3   OH232609   8.310   2.661   4.956
10889TIP3    H132610   8.297   2.745   5.004
10889TIP3    H232611   8.397   2.677   4.916
10890TIP3   OH232612   7.925   3.566   4.717
10890TIP3    H132613   7.993   3.634   4.729
10890TIP3    H232614   7.969   3.511   4.649
10891TIP3   OH232615   7.867   2.846   4.853
10891TIP3    H132616   7.864   2.944   4.850
10891TIP3    H232617   7.789   2.822   4.803
10892TIP3   OH232618   8.234   2.568   5.724
10892TIP3    H132619   8.221   2.532   5.634
10892TIP3    H232620   8.236   2.487   5.779
10893TIP3   OH232621   7.789   3.782   5.103
10893TIP3    H132622   7.726   3.815   5.168
10893TIP3    H232623   7.757   3.827   5.021
10894TIP3   OH232624   7.951   4.331   6.180
10894TIP3    H132625   8.038   4.332   6.226
10894TIP3    H232626   7.934   4.235   6.175
10895TIP3   OH232627   8.427   4.287   6.223
10895TIP3    H132628   8.522   4.271   6.230
10895TIP3    H232629   8.403   4.228   6.149
10896TIP3   OH232630   8.408   3.862   4.349
10896TIP3    H132631   8.345   3.795   4.384
10896TIP3    H232632   8.492   3.820   4.373
10897TIP3   OH232633   8.080   3.737   6.377
10897TIP3    H132634   8.095   3.642   6.392
10897TIP3    H232635   7.993   3.736   6.331
10898TIP3   OH232636   8.065   3.382   4.569
10898TIP3    H132637   8.117   3.351   4.645
10898TIP3    H232638   8.135   3.386   4.501
10899TIP3   OH232639   8.703   3.824   6.147
10899TIP3    H132640   8.647   3.838   6.068
10899TIP3    H232641   8.719   3.727   6.145
10900TIP3   OH232642   8.554   3.564   4.364
10900TIP3    H132643   8.571   3.596   4.456
10900TIP3    H232644   8.479   3.505   4.382
10901TIP3   OH232645   8.212   3.451   6.352
10901TIP3    H132646   8.298   3.409   6.333
10901TIP3    H232647   8.231   3.491   6.440
10902TIP3   OH232648   8.263   3.285   4.787
10902TIP3    H132649   8.236   3.245   4.872
10902TIP3    H232650   8.306   3.210   4.741
10903TIP3   OH232651   8.503   3.327   6.038
10903TIP3    H132652   8.438   3.400   6.048
10903TIP3    H232653   8.563   3.368   5.971
10904TIP3   OH232654   8.371   3.077   4.631
10904TIP3    H132655   8.334   3.084   4.541
10904TIP3    H232656   8.464   3.056   4.608
10905TIP3   OH232657   8.657   3.135   6.160
10905TIP3    H132658   8.663   3.053   6.107
10905TIP3    H232659   8.603   3.192   6.102
10906TIP3   OH232660   8.666   2.916   5.983
10906TIP3    H132661   8.679   2.968   5.901
10906TIP3    H232662   8.578   2.877   5.964
10907TIP3   OH232663   8.663   3.460   5.869
10907TIP3    H132664   8.732   3.445   5.802
10907TIP3    H232665   8.605   3.524   5.822
10908TIP3   OH232666   8.450   3.283   6.331
10908TIP3    H132667   8.424   3.194   6.363
10908TIP3    H232668   8.516   3.261   6.263
10909TIP3   OH232669   8.367   3.036   6.420
10909TIP3    H132670   8.373   2.941   6.396
10909TIP3    H232671   8.409   3.034   6.509
10910TIP3   OH232672   8.165   4.146   4.539
10910TIP3    H132673   8.261   4.142   4.525
10910TIP3    H232674   8.140   4.198   4.460
10911TIP3   OH232675   7.654   3.526   4.752
10911TIP3    H132676   7.749   3.546   4.739
10911TIP3    H232677   7.648   3.437   4.711
10912TIP3   OH232678   7.573   4.135   5.167
10912TIP3    H132679   7.504   4.076   5.131
10912TIP3    H232680   7.616   4.077   5.233
10913TIP3   OH232681   7.706   3.983   5.355
10913TIP3    H132682   7.692   3.914   5.422
10913TIP3    H232683   7.757   4.048   5.407
10914TIP3   OH232684   7.889   3.395   5.729
10914TIP3    H132685   7.886   3.361   5.636
10914TIP3    H232686   7.987   3.396   5.744
10915TIP3   OH232687   8.098   3.075   6.392
10915TIP3    H132688   8.196   3.080   6.393
10915TIP3    H232689   8.084   2.993   6.442
10916TIP3   OH232690   8.062   2.780   5.741
10916TIP3    H132691   8.122   2.702   5.742
10916TIP3    H232692   8.128   2.851   5.733
10917TIP3   OH232693   7.870   3.049   5.804
10917TIP3    H132694   7.920   3.038   5.721
10917TIP3    H232695   7.903   3.135   5.834
10918TIP3   OH232696   7.856   2.551   5.305
10918TIP3    H132697   7.762   2.547   5.332
10918TIP3    H232698   7.852   2.609   5.227
10919TIP3   OH232699   8.074   2.641   6.126
10919TIP3    H132700   8.018   2.631   6.204
10919TIP3    H232701   8.010   2.673   6.060
10920TIP3   OH232702   8.116   4.060   6.193
10920TIP3    H132703   8.022   4.035   6.180
10920TIP3    H232704   8.128   4.043   6.287
10921TIP3   OH232705   8.295   4.091   5.745
10921TIP3    H132706   8.245   4.167   5.706
10921TIP3    H232707   8.380   4.106   5.698
10922TIP3   OH232708   8.730   4.320   5.884
10922TIP3    H132709   8.775   4.328   5.971
10922TIP3    H232710   8.780   4.382   5.828
10923TIP3   OH232711   8.871   4.490   5.711
10923TIP3    H132712   8.920   4.483   5.626
10923TIP3    H232713   8.906   4.572   5.748
10924TIP3   OH232714   7.974   4.346   5.774
10924TIP3    H132715   7.883   4.373   5.749
10924TIP3    H232716   7.987   4.401   5.852
10925TIP3   OH232717   8.205   4.324   5.625
10925TIP3    H132718   8.119   4.337   5.672
10925TIP3    H232719   8.184   4.360   5.537
10926TIP3   OH232720   8.605   4.362   5.427
10926TIP3    H132721   8.531   4.377   5.365
10926TIP3    H232722   8.618   4.452   5.464
10927TIP3   OH232723   8.856   4.263   5.406
10927TIP3    H132724   8.765   4.297   5.417
10927TIP3    H232725   8.908   4.341   5.432
10928TIP3   OH232726   7.881   4.141   5.510
10928TIP3    H132727   7.905   4.114   5.601
10928TIP3    H232728   7.955   4.099   5.461
10929TIP3   OH232729   8.077   4.015   5.370
10929TIP3    H132730   8.091   3.931   5.420
10929TIP3    H232731   8.167   4.052   5.368
10930TIP3   OH232732   8.343   4.109   5.374
10930TIP3    H132733   8.370   4.016   5.366
10930TIP3    H232734   8.389   4.132   5.458
10931TIP3   OH232735   8.164   2.476   5.470
10931TIP3    H132736   8.073   2.439   5.475
10931TIP3    H232737   8.215   2.391   5.467
10932TIP3   OH232738   7.957   2.345   5.117
10932TIP3    H132739   7.984   2.406   5.046
10932TIP3    H232740   7.929   2.408   5.187
10933TIP3   OH232741   7.670   3.917   4.902
10933TIP3    H132742   7.584   3.886   4.868
10933TIP3    H232743   7.661   4.012   4.881
10934TIP3   OH232744   8.069   2.504   4.892
10934TIP3    H132745   8.112   2.444   4.827
10934TIP3    H232746   8.144   2.558   4.922
10935TIP3   OH232747   8.432   4.100   4.494
10935TIP3    H132748   8.524   4.111   4.460
10935TIP3    H232749   8.404   4.027   4.434
10936TIP3   OH232750   8.379   2.762   6.371
10936TIP3    H132751   8.362   2.698   6.442
10936TIP3    H232752   8.470   2.743   6.346
10937TIP3   OH232753   7.745   3.938   4.541
10937TIP3    H132754   7.746   3.961   4.635
10937TIP3    H232755   7.833   3.897   4.529
10938TIP3   OH232756   1.315   4.281   6.732
10938TIP3    H132757   1.278   4.368   6.706
10938TIP3    H232758   1.241   4.222   6.707
10939TIP3   OH232759   1.302   4.273   7.125
10939TIP3    H132760   1.348   4.232   7.201
10939TIP3    H232761   1.274   4.193   7.076
10940TIP3   OH232762   0.632   4.151   7.445
10940TIP3    H132763   0.629   4.094   7.523
10940TIP3    H232764   0.704   4.211   7.464
10941TIP3   OH232765   1.555   4.576   6.797
10941TIP3    H132766   1.536   4.501   6.855
10941TIP3    H232767   1.583   4.645   6.860
10942TIP3   OH232768   0.587   4.559   7.148
10942TIP3    H132769   0.569   4.464   7.167
10942TIP3    H232770   0.678   4.566   7.180
10943TIP3   OH232771   0.354   4.058   7.124
10943TIP3    H132772   0.396   4.013   7.199
10943TIP3    H232773   0.415   4.130   7.108
10944TIP3   OH232774   1.206   5.034   6.819
10944TIP3    H132775   1.247   4.965   6.763
10944TIP3    H232776   1.202   4.988   6.904
10945TIP3   OH232777   1.109   4.495   7.165
10945TIP3    H132778   1.147   4.413   7.129
10945TIP3    H232779   1.193   4.541   7.187
10946TIP3   OH232780   2.126   3.814   7.165
10946TIP3    H132781   2.154   3.900   7.201
10946TIP3    H232782   2.133   3.829   7.069
10947TIP3   OH232783   0.853   3.657   7.167
10947TIP3    H132784   0.844   3.728   7.100
10947TIP3    H232785   0.812   3.583   7.118
10948TIP3   OH232786   1.556   3.717   6.775
10948TIP3    H132787   1.607   3.725   6.857
10948TIP3    H232788   1.597   3.787   6.723
10949TIP3   OH232789   0.495   3.860   7.271
10949TIP3    H132790   0.577   3.849   7.322
10949TIP3    H232791   0.519   3.814   7.188
10950TIP3   OH232792   0.941   4.053   7.056
10950TIP3    H132793   1.035   4.027   7.069
10950TIP3    H232794   0.902   3.968   7.028
10951TIP3   OH232795   2.200   4.028   7.331
10951TIP3    H132796   2.115   4.071   7.309
10951TIP3    H232797   2.204   4.044   7.426
10952TIP3   OH232798   0.853   3.628   7.593
10952TIP3    H132799   0.799   3.676   7.526
10952TIP3    H232800   0.808   3.651   7.674
10953TIP3   OH232801   1.202   4.497   6.599
10953TIP3    H132802   1.155   4.470   6.519
10953TIP3    H232803   1.152   4.577   6.626
10954TIP3   OH232804   0.961   4.423   7.390
10954TIP3    H132805   0.900   4.488   7.429
10954TIP3    H232806   1.002   4.472   7.316
10955TIP3   OH232807   1.769   3.750   6.963
10955TIP3    H132808   1.715   3.728   7.040
10955TIP3    H232809   1.807   3.836   6.988
10956TIP3   OH232810   0.730   3.755   7.384
10956TIP3    H132811   0.790   3.831   7.405
10956TIP3    H232812   0.778   3.718   7.307
10957TIP3   OH232813   0.776   4.601   7.510
10957TIP3    H132814   0.716   4.652   7.454
10957TIP3    H232815   0.712   4.559   7.570
10958TIP3   OH232816   1.623   4.818   6.968
10958TIP3    H132817   1.532   4.808   7.005
10958TIP3    H232818   1.613   4.904   6.921
10959TIP3   OH232819   1.921   3.718   7.331
10959TIP3    H132820   1.838   3.760   7.304
10959TIP3    H232821   1.981   3.743   7.257
10960TIP3   OH232822   1.211   3.347   7.317
10960TIP3    H132823   1.193   3.253   7.335
10960TIP3    H232824   1.133   3.389   7.360
10961TIP3   OH232825   1.320   4.863   6.635
10961TIP3    H132826   1.370   4.780   6.619
10961TIP3    H232827   1.382   4.927   6.594
10962TIP3   OH232828   1.467   4.648   6.547
10962TIP3    H132829   1.419   4.569   6.518
10962TIP3    H232830   1.507   4.616   6.631
10963TIP3   OH232831   1.849   4.727   7.308
10963TIP3    H132832   1.835   4.649   7.250
10963TIP3    H232833   1.831   4.801   7.246
10964TIP3   OH232834   1.143   4.132   6.566
10964TIP3    H132835   1.061   4.179   6.541
10964TIP3    H232836   1.188   4.121   6.480
10965TIP3   OH232837   1.097   3.910   6.281
10965TIP3    H132838   1.166   3.955   6.332
10965TIP3    H232839   1.151   3.844   6.234
10966TIP3   OH232840   2.044   4.371   7.158
10966TIP3    H132841   1.958   4.419   7.161
10966TIP3    H232842   2.071   4.390   7.065
10967TIP3   OH232843   1.490   4.207   6.536
10967TIP3    H132844   1.435   4.231   6.615
10967TIP3    H232845   1.572   4.177   6.582
10968TIP3   OH232846   1.724   4.243   7.447
10968TIP3    H132847   1.710   4.327   7.495
10968TIP3    H232848   1.638   4.235   7.399
10969TIP3   OH232849   0.728   4.196   6.954
10969TIP3    H132850   0.685   4.137   6.889
10969TIP3    H232851   0.805   4.143   6.982
10970TIP3   OH232852   0.867   4.628   7.095
10970TIP3    H132853   0.836   4.577   7.019
10970TIP3    H232854   0.954   4.585   7.114
10971TIP3   OH232855   0.892   4.168   7.307
10971TIP3    H132856   0.911   4.148   7.213
10971TIP3    H232857   0.917   4.261   7.317
10972TIP3   OH232858   1.380   4.812   7.086
10972TIP3    H132859   1.371   4.888   7.145
10972TIP3    H232860   1.367   4.736   7.146
10973TIP3   OH232861   0.993   4.728   7.632
10973TIP3    H132862   0.935   4.788   7.683
10973TIP3    H232863   0.925   4.673   7.588
10974TIP3   OH232864   1.327   4.064   6.366
10974TIP3    H132865   1.387   4.122   6.417
10974TIP3    H232866   1.354   4.087   6.273
10975TIP3   OH232867   0.730   4.263   7.714
10975TIP3    H132868   0.745   4.350   7.758
10975TIP3    H232869   0.637   4.271   7.691
10976TIP3   OH232870   1.071   4.742   6.638
10976TIP3    H132871   1.154   4.792   6.649
10976TIP3    H232872   1.012   4.806   6.596
10977TIP3   OH232873   0.778   4.890   7.711
10977TIP3    H132874   0.752   4.897   7.617
10977TIP3    H232875   0.698   4.853   7.752
10978TIP3   OH232876   1.826   3.306   6.405
10978TIP3    H132877   1.757   3.327   6.471
10978TIP3    H232878   1.844   3.391   6.364
10979TIP3   OH232879   0.596   4.038   6.760
10979TIP3    H132880   0.531   4.075   6.697
10979TIP3    H232881   0.560   3.951   6.777
10980TIP3   OH232882   1.643   4.669   5.959
10980TIP3    H132883   1.652   4.766   5.948
10980TIP3    H232884   1.736   4.640   5.947
10981TIP3   OH232885   2.085   5.075   7.355
10981TIP3    H132886   2.085   4.978   7.369
10981TIP3    H232887   2.001   5.098   7.402
10982TIP3   OH232888   1.189   4.858   7.487
10982TIP3    H132889   1.188   4.951   7.520
10982TIP3    H232890   1.119   4.817   7.542
10983TIP3   OH232891   0.955   4.987   6.442
10983TIP3    H132892   0.906   4.971   6.359
10983TIP3    H232893   0.924   5.075   6.469
10984TIP3   OH232894   1.156   4.890   6.080
10984TIP3    H132895   1.214   4.818   6.045
10984TIP3    H232896   1.189   4.899   6.171
10985TIP3   OH232897   1.205   4.937   6.349
10985TIP3    H132898   1.117   4.947   6.391
10985TIP3    H232899   1.255   4.895   6.421
10986TIP3   OH232900   1.973   4.205   7.630
10986TIP3    H132901   1.890   4.213   7.579
10986TIP3    H232902   1.990   4.109   7.622
10987TIP3   OH232903   0.972   3.431   7.433
10987TIP3    H132904   0.882   3.402   7.406
10987TIP3    H232905   0.949   3.516   7.475
10988TIP3   OH232906   1.513   3.549   7.613
10988TIP3    H132907   1.581   3.526   7.681
10988TIP3    H232908   1.430   3.543   7.665
10989TIP3   OH232909   1.753   3.982   7.556
10989TIP3    H132910   1.699   3.973   7.637
10989TIP3    H232911   1.716   4.062   7.515
10990TIP3   OH232912   1.405   4.109   6.110
10990TIP3    H132913   1.370   4.083   6.023
10990TIP3    H232914   1.489   4.151   6.084
10991TIP3   OH232915   1.119   3.482   6.414
10991TIP3    H132916   1.086   3.479   6.506
10991TIP3    H232917   1.078   3.400   6.380
10992TIP3   OH232918   0.903   3.948   7.460
10992TIP3    H132919   0.853   3.973   7.541
10992TIP3    H232920   0.895   4.030   7.406
10993TIP3   OH232921   0.785   3.835   6.973
10993TIP3    H132922   0.691   3.811   6.987
10993TIP3    H232923   0.801   3.795   6.885
10994TIP3   OH232924   1.257   3.904   6.680
10994TIP3    H132925   1.222   3.989   6.648
10994TIP3    H232926   1.329   3.885   6.618
10995TIP3   OH232927   1.466   4.222   7.792
10995TIP3    H132928   1.436   4.135   7.827
10995TIP3    H232929   1.562   4.213   7.804
10996TIP3   OH232930   0.730   3.979   7.674
10996TIP3    H132931   0.756   4.063   7.717
10996TIP3    H232932   0.660   3.948   7.732
10997TIP3   OH232933   0.775   3.456   6.375
10997TIP3    H132934   0.764   3.458   6.472
10997TIP3    H232935   0.695   3.503   6.346
10998TIP3   OH232936   0.328   3.537   7.247
10998TIP3    H132937   0.412   3.531   7.295
10998TIP3    H232938   0.337   3.467   7.179
10999TIP3   OH232939   0.309   3.528   6.797
10999TIP3    H132940   0.336   3.542   6.703
10999TIP3    H232941   0.299   3.620   6.824
11000TIP3   OH232942   1.463   4.177   7.344
11000TIP3    H132943   1.485   4.102   7.283
11000TIP3    H232944   1.426   4.127   7.419
11001TIP3   OH232945   1.102   3.667   7.031
11001TIP3    H132946   1.039   3.663   7.104
11001TIP3    H232947   1.186   3.644   7.075
11002TIP3   OH232948   0.546   3.702   7.040
11002TIP3    H132949   0.456   3.667   7.044
11002TIP3    H232950   0.598   3.620   7.023
11003TIP3   OH232951   0.810   3.708   6.732
11003TIP3    H132952   0.907   3.721   6.720
11003TIP3    H232953   0.773   3.734   6.645
11004TIP3   OH232954   0.658   3.751   6.503
11004TIP3    H132955   0.597   3.701   6.445
11004TIP3    H232956   0.716   3.790   6.434
11005TIP3   OH232957   1.779   5.423   7.456
11005TIP3    H132958   1.777   5.446   7.362
11005TIP3    H232959   1.859   5.471   7.486
11006TIP3   OH232960   0.738   4.498   7.845
11006TIP3    H132961   0.809   4.557   7.880
11006TIP3    H232962   0.671   4.504   7.913
11007TIP3   OH232963   1.205   3.980   7.131
11007TIP3    H132964   1.297   3.962   7.103
11007TIP3    H232965   1.206   3.934   7.216
11008TIP3   OH232966   0.713   3.478   7.012
11008TIP3    H132967   0.680   3.397   7.056
11008TIP3    H232968   0.766   3.441   6.940
11009TIP3   OH232969   1.170   3.880   7.425
11009TIP3    H132970   1.082   3.923   7.434
11009TIP3    H232971   1.231   3.945   7.466
11010TIP3   OH232972   0.905   4.277   6.510
11010TIP3    H132973   0.836   4.209   6.501
11010TIP3    H232974   0.890   4.307   6.603
11011TIP3   OH232975   1.807   4.511   7.143
11011TIP3    H132976   1.830   4.559   7.061
11011TIP3    H232977   1.724   4.465   7.117
11012TIP3   OH232978   1.364   3.592   6.366
11012TIP3    H132979   1.270   3.570   6.387
11012TIP3    H232980   1.376   3.682   6.403
11013TIP3   OH232981   1.315   4.597   7.511
11013TIP3    H132982   1.331   4.568   7.601
11013TIP3    H232983   1.272   4.683   7.522
11014TIP3   OH232984   1.442   3.832   6.477
11014TIP3    H132985   1.538   3.839   6.499
11014TIP3    H232986   1.425   3.915   6.430
11015TIP3   OH232987   0.605   4.289   7.192
11015TIP3    H132988   0.656   4.245   7.122
11015TIP3    H232989   0.613   4.228   7.268
11016TIP3   OH232990   1.054   4.425   6.336
11016TIP3    H132991   1.006   4.511   6.343
11016TIP3    H232992   1.000   4.368   6.395
11017TIP3   OH232993   1.213   4.334   7.808
11017TIP3    H132994   1.154   4.272   7.761
11017TIP3    H232995   1.301   4.298   7.784
11018TIP3   OH232996   1.469   4.862   7.401
11018TIP3    H132997   1.373   4.851   7.418
11018TIP3    H232998   1.496   4.910   7.482
11019TIP3   OH232999   1.883   3.922   6.313
11019TIP3    H133000   1.818   3.879   6.252
11019TIP3    H233001   1.877   4.012   6.276
11020TIP3   OH233002   2.099   4.788   7.395
11020TIP3    H133003   2.002   4.778   7.388
11020TIP3    H233004   2.126   4.755   7.306
11021TIP3   OH233005   1.582   4.744   6.228
11021TIP3    H133006   1.553   4.677   6.292
11021TIP3    H233007   1.591   4.692   6.146
11022TIP3   OH233008   1.577   4.370   7.057
11022TIP3    H133009   1.485   4.343   7.074
11022TIP3    H233010   1.611   4.288   7.015
11023TIP3   OH233011   0.708   4.601   6.815
11023TIP3    H133012   0.699   4.681   6.759
11023TIP3    H233013   0.621   4.594   6.856
11024TIP3   OH233014   0.274   3.910   6.532
11024TIP3    H133015   0.331   3.989   6.549
11024TIP3    H233016   0.186   3.947   6.549
11025TIP3   OH233017   0.839   4.364   6.757
11025TIP3    H133018   0.804   4.453   6.778
11025TIP3    H233019   0.808   4.312   6.834
11026TIP3   OH233020   0.981   4.946   7.286
11026TIP3    H133021   1.027   5.015   7.233
11026TIP3    H233022   1.057   4.906   7.332
11027TIP3   OH233023   0.620   4.844   6.672
11027TIP3    H133024   0.540   4.864   6.722
11027TIP3    H233025   0.662   4.933   6.670
11028TIP3   OH233026   1.362   4.582   7.242
11028TIP3    H133027   1.352   4.579   7.340
11028TIP3    H233028   1.433   4.517   7.228
11029TIP3   OH233029   1.338   4.475   6.127
11029TIP3    H133030   1.392   4.449   6.205
11029TIP3    H233031   1.251   4.442   6.154
11030TIP3   OH233032   1.611   5.111   7.297
11030TIP3    H133033   1.534   5.051   7.294
11030TIP3    H233034   1.590   5.172   7.223
11031TIP3   OH233035   1.675   4.946   5.946
11031TIP3    H133036   1.713   5.021   5.898
11031TIP3    H233037   1.594   4.988   5.981
11032TIP3   OH233038   1.498   4.403   6.339
11032TIP3    H133039   1.486   4.340   6.412
11032TIP3    H233040   1.596   4.401   6.331
11033TIP3   OH233041   0.700   4.449   6.124
11033TIP3    H133042   0.714   4.356   6.099
11033TIP3    H233043   0.681   4.440   6.220
11034TIP3   OH233044   0.650   4.458   6.399
11034TIP3    H133045   0.726   4.427   6.451
11034TIP3    H233046   0.657   4.555   6.409
11035TIP3   OH233047   0.396   4.143   6.605
11035TIP3    H133048   0.358   4.195   6.677
11035TIP3    H233049   0.412   4.213   6.538
11036TIP3   OH233050   1.512   3.815   7.541
11036TIP3    H133051   1.601   3.826   7.506
11036TIP3    H233052   1.508   3.719   7.558
11037TIP3   OH233053   1.410   3.524   6.654
11037TIP3    H133054   1.398   3.558   6.564
11037TIP3    H233055   1.457   3.600   6.697
11038TIP3   OH233056   0.913   4.656   6.347
11038TIP3    H133057   0.827   4.681   6.386
11038TIP3    H233058   0.928   4.732   6.289
11039TIP3   OH233059   1.084   3.715   6.762
11039TIP3    H133060   1.152   3.784   6.740
11039TIP3    H233061   1.099   3.707   6.860
11040TIP3   OH233062   1.364   4.038   7.557
11040TIP3    H133063   1.382   4.064   7.648
11040TIP3    H233064   1.415   3.953   7.552
11041TIP3   OH233065   1.244   3.432   6.859
11041TIP3    H133066   1.271   3.484   6.938
11041TIP3    H233067   1.300   3.474   6.790
11042TIP3   OH233068   0.659   4.731   6.419
11042TIP3    H133069   0.630   4.800   6.355
11042TIP3    H233070   0.640   4.775   6.505
11043TIP3   OH233071   0.757   3.444   6.653
11043TIP3    H133072   0.756   3.534   6.690
11043TIP3    H233073   0.853   3.425   6.661
11044TIP3   OH233074   2.016   3.935   7.547
11044TIP3    H133075   1.918   3.939   7.559
11044TIP3    H233076   2.018   3.887   7.463
11045TIP3   OH233077   1.666   4.126   6.939
11045TIP3    H133078   1.599   4.073   6.988
11045TIP3    H233079   1.746   4.085   6.978
11046TIP3   OH233080   0.387   4.365   6.446
11046TIP3    H133081   0.471   4.415   6.433
11046TIP3    H233082   0.388   4.314   6.363
11047TIP3   OH233083   0.295   3.634   6.547
11047TIP3    H133084   0.303   3.731   6.543
11047TIP3    H233085   0.271   3.612   6.456
11048TIP3   OH233086   1.630   5.090   6.886
11048TIP3    H133087   1.587   5.137   6.811
11048TIP3    H233088   1.724   5.108   6.866
11049TIP3   OH233089   0.707   3.351   7.412
11049TIP3    H133090   0.678   3.320   7.323
11049TIP3    H233091   0.694   3.270   7.465
11050TIP3   OH233092   0.860   5.095   7.883
11050TIP3    H133093   0.944   5.088   7.930
11050TIP3    H233094   0.862   5.017   7.824
11051TIP3   OH233095   0.863   4.652   6.037
11051TIP3    H133096   0.805   4.582   6.077
11051TIP3    H233097   0.940   4.597   6.013
11052TIP3   OH233098   1.523   4.993   7.636
11052TIP3    H133099   1.511   4.917   7.697
11052TIP3    H233100   1.600   5.039   7.674
11053TIP3   OH233101   1.302   4.692   5.954
11053TIP3    H133102   1.336   4.624   6.016
11053TIP3    H233103   1.364   4.687   5.880
11054TIP3   OH233104   0.509   4.173   6.268
11054TIP3    H133105   0.568   4.142   6.339
11054TIP3    H233106   0.573   4.175   6.193
11055TIP3   OH233107   1.153   4.607   7.828
11055TIP3    H133108   1.111   4.626   7.742
11055TIP3    H233109   1.180   4.513   7.818
11056TIP3   OH233110   1.024   4.373   6.067
11056TIP3    H133111   1.026   4.384   6.164
11056TIP3    H233112   1.026   4.275   6.061
11057TIP3   OH233113   1.634   4.619   7.451
11057TIP3    H133114   1.707   4.664   7.404
11057TIP3    H233115   1.560   4.679   7.432
11058TIP3   OH233116   0.715   4.077   6.480
11058TIP3    H133117   0.699   4.032   6.564
11058TIP3    H233118   0.754   4.004   6.426
11059TIP3   OH233119   0.987   4.142   7.712
11059TIP3    H133120   0.908   4.199   7.709
11059TIP3    H233121   1.037   4.174   7.634
11060TIP3   OH233122   0.821   3.875   6.322
11060TIP3    H133123   0.795   3.875   6.228
11060TIP3    H233124   0.918   3.876   6.315
11061TIP3   OH233125   1.511   4.537   7.846
11061TIP3    H133126   1.579   4.507   7.785
11061TIP3    H233127   1.501   4.460   7.904
11062TIP3   OH233128   1.639   4.202   5.986
11062TIP3    H133129   1.616   4.154   5.904
11062TIP3    H233130   1.604   4.291   5.963
11063TIP3   OH233131   1.098   3.919   7.839
11063TIP3    H133132   1.097   3.843   7.778
11063TIP3    H233133   1.050   3.988   7.790
11064TIP3   OH233134   1.105   3.721   7.641
11064TIP3    H133135   1.137   3.767   7.561
11064TIP3    H233136   1.015   3.696   7.615
11065TIP3   OH233137   1.137   4.257   7.522
11065TIP3    H133138   1.217   4.247   7.469
11065TIP3    H233139   1.083   4.318   7.469
11066TIP3   OH233140   1.735   4.215   7.896
11066TIP3    H133141   1.756   4.119   7.898
11066TIP3    H233142   1.811   4.250   7.848
11067TIP3   OH233143   1.761   4.475   7.638
11067TIP3    H133144   1.705   4.528   7.577
11067TIP3    H233145   1.849   4.490   7.598
11068TIP3   OH233146   1.247   3.487   7.677
11068TIP3    H133147   1.202   3.574   7.670
11068TIP3    H233148   1.175   3.424   7.664
11069TIP3   OH233149   1.356   3.988   7.875
11069TIP3    H133150   1.340   4.023   7.965
11069TIP3    H233151   1.267   3.949   7.857
11070TIP3   OH233152   1.627   3.959   7.796
11070TIP3    H133153   1.537   3.931   7.822
11070TIP3    H233154   1.683   3.916   7.864
11071TIP3   OH233155   1.842   3.905   7.975
11071TIP3    H133156   1.867   3.810   7.965
11071TIP3    H233157   1.828   3.910   8.072
11072TIP3   OH233158   1.246   3.353   7.922
11072TIP3    H133159   1.338   3.329   7.913
11072TIP3    H233160   1.244   3.433   7.865
11073TIP3   OH233161   0.630   4.928   6.229
11073TIP3    H133162   0.725   4.926   6.205
11073TIP3    H233163   0.595   4.982   6.156
11074TIP3   OH233164   1.885   5.179   6.846
11074TIP3    H133165   1.912   5.207   6.935
11074TIP3    H233166   1.953   5.219   6.790
11075TIP3   OH233167   1.914   5.196   7.128
11075TIP3    H133168   1.867   5.110   7.124
11075TIP3    H233169   1.988   5.171   7.186
11076TIP3   OH233170   1.961   4.874   7.704
11076TIP3    H133171   1.885   4.882   7.765
11076TIP3    H233172   2.000   4.963   7.708
11077TIP3   OH233173   1.778   4.386   6.320
11077TIP3    H133174   1.847   4.450   6.294
11077TIP3    H233175   1.818   4.346   6.401
11078TIP3   OH233176   1.902   4.254   6.526
11078TIP3    H133177   1.836   4.210   6.583
11078TIP3    H233178   1.966   4.290   6.592
11079TIP3   OH233179   1.961   4.649   6.956
11079TIP3    H133180   2.014   4.580   6.911
11079TIP3    H233181   1.951   4.716   6.887
11080TIP3   OH233182   1.789   4.948   7.149
11080TIP3    H133183   1.716   4.987   7.202
11080TIP3    H233184   1.739   4.899   7.080
11081TIP3   OH233185   1.841   4.163   6.168
11081TIP3    H133186   1.768   4.165   6.103
11081TIP3    H233187   1.813   4.237   6.226
11082TIP3   OH233188   1.713   3.834   6.118
11082TIP3    H133189   1.662   3.865   6.043
11082TIP3    H233190   1.693   3.738   6.116
11083TIP3   OH233191   1.716   4.110   6.669
11083TIP3    H133192   1.721   4.014   6.658
11083TIP3    H233193   1.696   4.119   6.765
11084TIP3   OH233194   2.007   4.537   7.530
11084TIP3    H133195   2.077   4.468   7.519
11084TIP3    H233196   2.029   4.600   7.461
11085TIP3   OH233197   2.191   4.339   7.539
11085TIP3    H133198   2.115   4.288   7.575
11085TIP3    H233199   2.263   4.275   7.557
11086TIP3   OH233200   1.658   3.567   6.103
11086TIP3    H133201   1.731   3.537   6.161
11086TIP3    H233202   1.583   3.511   6.131
11087TIP3   OH233203   1.716   3.835   6.557
11087TIP3    H133204   1.750   3.745   6.581
11087TIP3    H233205   1.779   3.858   6.486
11088TIP3   OH233206   1.883   4.001   7.054
11088TIP3    H133207   1.971   4.029   7.020
11088TIP3    H233208   1.887   4.036   7.145
11089TIP3   OH233209   1.949   4.145   7.291
11089TIP3    H133210   1.868   4.175   7.338
11089TIP3    H233211   1.978   4.227   7.247
11090TIP3   OH233212   2.394   3.739   7.845
11090TIP3    H133213   2.458   3.680   7.801
11090TIP3    H233214   2.367   3.798   7.772
11091TIP3   OH233215   1.824   3.581   6.599
11091TIP3    H133216   1.866   3.568   6.686
11091TIP3    H233217   1.760   3.508   6.599
11092TIP3   OH233218   0.536   3.564   7.432
11092TIP3    H133219   0.598   3.488   7.432
11092TIP3    H233220   0.596   3.638   7.411
11093TIP3   OH233221   2.267   3.875   7.647
11093TIP3    H133222   2.180   3.916   7.665
11093TIP3    H233223   2.239   3.803   7.587
11094TIP3   OH233224   1.901   3.513   6.231
11094TIP3    H133225   1.936   3.433   6.187
11094TIP3    H233226   1.975   3.576   6.225
11095TIP3   OH233227   0.328   3.370   7.020
11095TIP3    H133228   0.238   3.336   7.024
11095TIP3    H233229   0.328   3.421   6.936
11096TIP3   OH233230   1.467   5.045   6.501
11096TIP3    H133231   1.520   5.032   6.420
11096TIP3    H233232   1.522   5.109   6.550
11097TIP3   OH233233   0.744   4.915   7.430
11097TIP3    H133234   0.727   4.993   7.374
11097TIP3    H233235   0.834   4.894   7.400
11098TIP3   OH233236   1.188   5.123   7.567
11098TIP3    H133237   1.229   5.121   7.657
11098TIP3    H233238   1.255   5.175   7.518
11099TIP3   OH233239   1.369   5.279   7.431
11099TIP3    H133240   1.438   5.225   7.392
11099TIP3    H233241   1.421   5.335   7.493
11100TIP3   OH233242   2.167   3.637   7.522
11100TIP3    H133243   2.076   3.631   7.488
11100TIP3    H233244   2.197   3.544   7.511
11101TIP3   OH233245   0.660   5.143   7.290
11101TIP3    H133246   0.631   5.231   7.320
11101TIP3    H233247   0.607   5.129   7.210
11102TIP3   OH233248   1.087   5.143   7.118
11102TIP3    H133249   1.035   5.165   7.039
11102TIP3    H233250   1.101   5.231   7.159
11103TIP3   OH233251   1.355   5.085   7.169
11103TIP3    H133252   1.261   5.100   7.148
11103TIP3    H233253   1.398   5.159   7.122
11104TIP3   OH233254   1.561   5.275   7.080
11104TIP3    H133255   1.547   5.359   7.031
11104TIP3    H233256   1.587   5.214   7.008
11105TIP3   OH233257   0.534   4.807   7.052
11105TIP3    H133258   0.539   4.717   7.091
11105TIP3    H233259   0.627   4.834   7.055
11106TIP3   OH233260   0.810   4.903   7.066
11106TIP3    H133261   0.833   4.809   7.049
11106TIP3    H233262   0.860   4.915   7.148
11107TIP3   OH233263   1.329   3.524   7.111
11107TIP3    H133264   1.314   3.470   7.190
11107TIP3    H233265   1.425   3.540   7.115
11108TIP3   OH233266   1.894   3.432   7.054
11108TIP3    H133267   1.927   3.488   6.981
11108TIP3    H233268   1.799   3.453   7.053
11109TIP3   OH233269   1.989   3.531   6.817
11109TIP3    H133270   2.061   3.483   6.772
11109TIP3    H233271   2.019   3.624   6.806
11110TIP3   OH233272   0.616   3.262   7.167
11110TIP3    H133273   0.522   3.235   7.162
11110TIP3    H233274   0.661   3.175   7.162
11111TIP3   OH233275   0.435   3.123   6.822
11111TIP3    H133276   0.452   3.181   6.745
11111TIP3    H233277   0.374   3.177   6.875
11112TIP3   OH233278   1.065   3.295   7.050
11112TIP3    H133279   1.115   3.344   6.982
11112TIP3    H233280   1.101   3.333   7.131
11113TIP3   OH233281   1.617   3.447   7.039
11113TIP3    H133282   1.596   3.422   6.948
11113TIP3    H233283   1.592   3.365   7.088
11114TIP3   OH233284   1.639   3.371   6.601
11114TIP3    H133285   1.552   3.414   6.615
11114TIP3    H233286   1.622   3.283   6.642
11115TIP3   OH233287   0.527   3.287   6.587
11115TIP3    H133288   0.571   3.224   6.527
11115TIP3    H233289   0.602   3.341   6.619
11116TIP3   OH233290   1.033   3.464   6.678
11116TIP3    H133291   1.098   3.422   6.738
11116TIP3    H233292   1.049   3.558   6.702
11117TIP3   OH233293   0.897   4.888   6.174
11117TIP3    H133294   0.985   4.910   6.138
11117TIP3    H233295   0.874   4.812   6.115
11118TIP3   OH233296   1.616   5.011   6.269
11118TIP3    H133297   1.608   4.913   6.259
11118TIP3    H233298   1.568   5.041   6.190
11119TIP3   OH233299   1.941   3.649   7.957
11119TIP3    H133300   1.969   3.586   8.026
11119TIP3    H233301   2.012   3.636   7.891
11120TIP3   OH233302   1.838   5.153   7.458
11120TIP3    H133303   1.759   5.121   7.408
11120TIP3    H233304   1.818   5.248   7.463
11121TIP3   OH233305   3.109   4.528   6.218
11121TIP3    H133306   3.077   4.619   6.200
11121TIP3    H233307   3.031   4.477   6.192
11122TIP3   OH233308   3.104   4.527   6.609
11122TIP3    H133309   3.140   4.502   6.695
11122TIP3    H233310   3.064   4.443   6.580
11123TIP3   OH233311   2.403   4.419   6.968
11123TIP3    H133312   2.431   4.351   7.031
11123TIP3    H233313   2.483   4.472   6.961
11124TIP3   OH233314   3.348   4.831   6.287
11124TIP3    H133315   3.336   4.761   6.353
11124TIP3    H233316   3.380   4.905   6.341
11125TIP3   OH233317   2.377   4.833   6.691
11125TIP3    H133318   2.368   4.735   6.692
11125TIP3    H233319   2.474   4.841   6.689
11126TIP3   OH233320   2.085   4.040   6.474
11126TIP3    H133321   2.030   4.118   6.491
11126TIP3    H233322   2.017   3.978   6.441
11127TIP3   OH233323   2.141   4.322   6.655
11127TIP3    H133324   2.189   4.243   6.690
11127TIP3    H233325   2.197   4.346   6.580
11128TIP3   OH233326   2.999   5.288   6.303
11128TIP3    H133327   3.044   5.218   6.251
11128TIP3    H233328   2.995   5.249   6.391
11129TIP3   OH233329   2.903   4.753   6.651
11129TIP3    H133330   2.943   4.675   6.610
11129TIP3    H233331   2.986   4.800   6.676
11130TIP3   OH233332   3.920   4.072   6.652
11130TIP3    H133333   3.948   4.156   6.695
11130TIP3    H233334   3.941   4.091   6.559
11131TIP3   OH233335   3.317   4.255   6.681
11131TIP3    H133336   3.358   4.170   6.703
11131TIP3    H233337   3.284   4.237   6.591
11132TIP3   OH233338   2.657   3.913   6.647
11132TIP3    H133339   2.635   3.985   6.584
11132TIP3    H233340   2.609   3.838   6.605
11133TIP3   OH233341   3.351   4.004   6.269
11133TIP3    H133342   3.422   3.989   6.336
11133TIP3    H233343   3.405   4.039   6.196
11134TIP3   OH233344   2.289   4.115   6.755
11134TIP3    H133345   2.371   4.093   6.803
11134TIP3    H233346   2.300   4.057   6.677
11135TIP3   OH233347   2.727   4.313   6.551
11135TIP3    H133348   2.821   4.287   6.564
11135TIP3    H233349   2.688   4.228   6.520
11136TIP3   OH233350   3.993   4.285   6.813
11136TIP3    H133351   3.909   4.331   6.790
11136TIP3    H233352   3.976   4.274   6.908
11137TIP3   OH233353   2.651   3.896   7.084
11137TIP3    H133354   2.591   3.932   7.016
11137TIP3    H233355   2.598   3.914   7.164
11138TIP3   OH233356   2.997   4.749   6.088
11138TIP3    H133357   2.950   4.730   6.007
11138TIP3    H233358   2.953   4.832   6.117
11139TIP3   OH233359   2.758   4.672   6.875
11139TIP3    H133360   2.696   4.740   6.912
11139TIP3    H233361   2.801   4.722   6.802
11140TIP3   OH233362   3.555   4.009   6.448
11140TIP3    H133363   3.538   3.967   6.533
11140TIP3    H233364   3.609   4.086   6.474
11141TIP3   OH233365   2.524   4.011   6.866
11141TIP3    H133366   2.586   4.084   6.890
11141TIP3    H233367   2.573   3.970   6.791
11142TIP3   OH233368   2.586   4.868   6.975
11142TIP3    H133369   2.560   4.955   6.939
11142TIP3    H233370   2.508   4.850   7.031
11143TIP3   OH233371   1.981   4.558   6.212
11143TIP3    H133372   1.935   4.586   6.130
11143TIP3    H233373   2.011   4.643   6.248
11144TIP3   OH233374   3.417   5.073   6.450
11144TIP3    H133375   3.327   5.065   6.490
11144TIP3    H233376   3.410   5.160   6.407
11145TIP3   OH233377   3.709   3.968   6.813
11145TIP3    H133378   3.623   4.001   6.783
11145TIP3    H233379   3.771   4.005   6.747
11146TIP3   OH233380   3.005   3.614   6.799
11146TIP3    H133381   2.991   3.519   6.817
11146TIP3    H233382   2.927   3.652   6.846
11147TIP3   OH233383   3.118   5.117   6.122
11147TIP3    H133384   3.170   5.035   6.103
11147TIP3    H233385   3.179   5.184   6.082
11148TIP3   OH233386   3.263   4.901   6.035
11148TIP3    H133387   3.216   4.822   6.006
11148TIP3    H233388   3.302   4.870   6.120
11149TIP3   OH233389   3.645   4.984   6.795
11149TIP3    H133390   3.633   4.906   6.737
11149TIP3    H233391   3.627   5.058   6.734
11150TIP3   OH233392   2.937   4.377   6.052
11150TIP3    H133393   2.855   4.427   6.034
11150TIP3    H233394   2.981   4.378   5.965
11151TIP3   OH233395   2.894   4.169   5.763
11151TIP3    H133396   2.962   4.212   5.818
11151TIP3    H233397   2.949   4.102   5.718
11152TIP3   OH233398   3.841   4.627   6.642
11152TIP3    H133399   3.756   4.677   6.645
11152TIP3    H233400   3.870   4.648   6.550
11153TIP3   OH233401   3.283   4.460   6.022
11153TIP3    H133402   3.230   4.486   6.101
11153TIP3    H233403   3.368   4.435   6.065
11154TIP3   OH233404   3.519   4.498   6.941
11154TIP3    H133405   3.515   4.581   6.992
11154TIP3    H233406   3.433   4.501   6.895
11155TIP3   OH233407   2.518   4.458   6.440
11155TIP3    H133408   2.476   4.398   6.374
11155TIP3    H233409   2.593   4.404   6.472
11156TIP3   OH233410   2.649   4.874   6.587
11156TIP3    H133411   2.627   4.830   6.504
11156TIP3    H233412   2.737   4.837   6.607
11157TIP3   OH233413   2.652   4.429   6.797
11157TIP3    H133414   2.685   4.405   6.708
11157TIP3    H233415   2.696   4.515   6.814
11158TIP3   OH233416   3.176   5.068   6.573
11158TIP3    H133417   3.166   5.147   6.629
11158TIP3    H233418   3.163   4.994   6.635
11159TIP3   OH233419   2.791   4.986   7.120
11159TIP3    H133420   2.730   5.047   7.167
11159TIP3    H233421   2.726   4.932   7.070
11160TIP3   OH233422   3.126   4.328   5.842
11160TIP3    H133423   3.185   4.378   5.904
11160TIP3    H233424   3.152   4.366   5.757
11161TIP3   OH233425   2.545   4.542   7.223
11161TIP3    H133426   2.549   4.629   7.267
11161TIP3    H233427   2.451   4.520   7.235
11162TIP3   OH233428   2.870   4.996   6.122
11162TIP3    H133429   2.952   5.047   6.135
11162TIP3    H233430   2.808   5.063   6.090
11163TIP3   OH233431   2.584   5.153   7.207
11163TIP3    H133432   2.550   5.152   7.116
11163TIP3    H233433   2.504   5.132   7.260
11164TIP3   OH233434   3.642   3.558   5.902
11164TIP3    H133435   3.559   3.579   5.950
11164TIP3    H233436   3.654   3.640   5.849
11165TIP3   OH233437   2.385   4.301   6.242
11165TIP3    H133438   2.313   4.342   6.190
11165TIP3    H233439   2.349   4.214   6.262
11166TIP3   OH233440   3.443   4.921   5.462
11166TIP3    H133441   3.448   5.015   5.435
11166TIP3    H233442   3.532   4.889   5.438
11167TIP3   OH233443   2.164   4.686   7.153
11167TIP3    H133444   2.096   4.664   7.086
11167TIP3    H233445   2.200   4.598   7.176
11168TIP3   OH233446   2.018   4.881   6.779
11168TIP3    H133447   2.114   4.869   6.775
11168TIP3    H233448   2.009   4.955   6.841
11169TIP3   OH233449   3.877   5.321   6.842
11169TIP3    H133450   3.879   5.224   6.858
11169TIP3    H233451   3.794   5.346   6.887
11170TIP3   OH233452   2.987   5.116   6.976
11170TIP3    H133453   2.984   5.208   7.009
11170TIP3    H233454   2.916   5.075   7.031
11171TIP3   OH233455   2.747   5.243   5.930
11171TIP3    H133456   2.701   5.228   5.846
11171TIP3    H233457   2.718   5.333   5.955
11172TIP3   OH233458   2.188   5.091   6.314
11172TIP3    H133459   2.233   5.082   6.400
11172TIP3    H233460   2.136   5.009   6.312
11173TIP3   OH233461   2.961   5.137   5.572
11173TIP3    H133462   3.042   5.087   5.555
11173TIP3    H233463   2.977   5.163   5.666
11174TIP3   OH233464   2.998   5.195   5.837
11174TIP3    H133465   2.912   5.203   5.884
11174TIP3    H233466   3.055   5.160   5.907
11175TIP3   OH233467   3.771   4.462   7.119
11175TIP3    H133468   3.689   4.472   7.068
11175TIP3    H233469   3.793   4.368   7.101
11176TIP3   OH233470   2.368   4.869   7.140
11176TIP3    H133471   2.418   4.851   7.222
11176TIP3    H233472   2.295   4.804   7.147
11177TIP3   OH233473   2.767   3.691   6.928
11177TIP3    H133474   2.679   3.659   6.900
11177TIP3    H233475   2.740   3.772   6.977
11178TIP3   OH233476   3.303   3.806   7.122
11178TIP3    H133477   3.372   3.779   7.185
11178TIP3    H233478   3.220   3.786   7.170
11179TIP3   OH233479   3.537   4.232   7.038
11179TIP3    H133480   3.489   4.230   7.124
11179TIP3    H233481   3.515   4.321   7.004
11180TIP3   OH233482   3.177   4.437   5.571
11180TIP3    H133483   3.156   4.365   5.506
11180TIP3    H233484   3.275   4.443   5.560
11181TIP3   OH233485   2.913   3.740   5.898
11181TIP3    H133486   2.879   3.737   5.990
11181TIP3    H233487   2.874   3.657   5.864
11182TIP3   OH233488   2.701   4.207   6.946
11182TIP3    H133489   2.649   4.226   7.027
11182TIP3    H233490   2.684   4.288   6.894
11183TIP3   OH233491   2.581   4.095   6.459
11183TIP3    H133492   2.490   4.065   6.479
11183TIP3    H233493   2.594   4.052   6.371
11184TIP3   OH233494   3.074   4.179   6.190
11184TIP3    H133495   3.022   4.250   6.145
11184TIP3    H233496   3.129   4.145   6.117
11185TIP3   OH233497   3.248   4.456   7.274
11185TIP3    H133498   3.225   4.382   7.335
11185TIP3    H233499   3.343   4.467   7.295
11186TIP3   OH233500   3.231   4.205   6.424
11186TIP3    H133501   3.168   4.230   6.354
11186TIP3    H233502   3.267   4.124   6.382
11187TIP3   OH233503   2.519   4.235   7.153
11187TIP3    H133504   2.547   4.296   7.223
11187TIP3    H233505   2.504   4.152   7.203
11188TIP3   OH233506   2.569   3.715   5.864
11188TIP3    H133507   2.561   3.710   5.961
11188TIP3    H233508   2.488   3.763   5.840
11189TIP3   OH233509   2.108   3.762   6.737
11189TIP3    H133510   2.189   3.787   6.786
11189TIP3    H233511   2.140   3.723   6.654
11190TIP3   OH233512   2.084   3.733   6.251
11190TIP3    H133513   2.130   3.773   6.174
11190TIP3    H233514   2.021   3.804   6.273
11191TIP3   OH233515   3.240   4.453   6.847
11191TIP3    H133516   3.274   4.381   6.788
11191TIP3    H233517   3.211   4.399   6.923
11192TIP3   OH233518   2.914   3.916   6.519
11192TIP3    H133519   2.832   3.914   6.574
11192TIP3    H233520   2.983   3.908   6.587
11193TIP3   OH233521   2.346   3.972   6.526
11193TIP3    H133522   2.251   3.980   6.500
11193TIP3    H233523   2.365   3.878   6.508
11194TIP3   OH233524   2.611   3.967   6.219
11194TIP3    H133525   2.705   3.981   6.197
11194TIP3    H233526   2.564   3.989   6.135
11195TIP3   OH233527   3.398   3.993   6.720
11195TIP3    H133528   3.368   4.004   6.813
11195TIP3    H233529   3.331   3.930   6.687
11196TIP3   OH233530   2.456   4.004   5.996
11196TIP3    H133531   2.383   3.958   5.952
11196TIP3    H233532   2.507   4.036   5.918
11197TIP3   OH233533   3.573   5.685   6.934
11197TIP3    H133534   3.573   5.693   6.837
11197TIP3    H233535   3.604   5.773   6.959
11198TIP3   OH233536   2.529   4.792   7.362
11198TIP3    H133537   2.609   4.819   7.411
11198TIP3    H233538   2.465   4.787   7.435
11199TIP3   OH233539   2.993   4.246   6.619
11199TIP3    H133540   3.065   4.202   6.571
11199TIP3    H233541   2.997   4.202   6.706
11200TIP3   OH233542   2.515   3.728   6.501
11200TIP3    H133543   2.476   3.652   6.551
11200TIP3    H233544   2.558   3.683   6.427
11201TIP3   OH233545   2.970   4.145   6.902
11201TIP3    H133546   2.879   4.177   6.921
11201TIP3    H233547   3.027   4.203   6.956
11202TIP3   OH233548   2.706   4.529   6.002
11202TIP3    H133549   2.634   4.463   5.991
11202TIP3    H233550   2.687   4.563   6.093
11203TIP3   OH233551   3.605   4.768   6.629
11203TIP3    H133552   3.630   4.817   6.548
11203TIP3    H233553   3.520   4.726   6.603
11204TIP3   OH233554   3.163   3.843   5.867
11204TIP3    H133555   3.067   3.822   5.878
11204TIP3    H233556   3.169   3.937   5.894
11205TIP3   OH233557   3.107   4.850   6.999
11205TIP3    H133558   3.133   4.827   7.089
11205TIP3    H233559   3.067   4.938   7.009
11206TIP3   OH233560   3.231   4.093   5.971
11206TIP3    H133561   3.327   4.093   5.987
11206TIP3    H233562   3.219   4.172   5.915
11207TIP3   OH233563   2.402   4.558   6.676
11207TIP3    H133564   2.440   4.526   6.592
11207TIP3    H233565   2.438   4.494   6.740
11208TIP3   OH233566   2.840   4.679   5.817
11208TIP3    H133567   2.795   4.766   5.829
11208TIP3    H233568   2.790   4.624   5.882
11209TIP3   OH233569   2.280   4.472   7.291
11209TIP3    H133570   2.295   4.455   7.386
11209TIP3    H233571   2.210   4.408   7.271
11210TIP3   OH233572   3.007   4.590   7.311
11210TIP3    H133573   2.946   4.529   7.266
11210TIP3    H233574   3.093   4.554   7.283
11211TIP3   OH233575   3.265   5.114   6.893
11211TIP3    H133576   3.169   5.109   6.908
11211TIP3    H233577   3.292   5.163   6.973
11212TIP3   OH233578   3.671   4.181   5.804
11212TIP3    H133579   3.608   4.138   5.743
11212TIP3    H233580   3.672   4.270   5.763
11213TIP3   OH233581   3.895   5.038   6.885
11213TIP3    H133582   3.797   5.031   6.876
11213TIP3    H233583   3.922   5.009   6.794
11214TIP3   OH233584   3.355   5.001   5.710
11214TIP3    H133585   3.355   4.928   5.774
11214TIP3    H233586   3.384   4.957   5.627
11215TIP3   OH233587   3.371   4.631   6.544
11215TIP3    H133588   3.278   4.604   6.560
11215TIP3    H233589   3.406   4.549   6.503
11216TIP3   OH233590   2.500   4.857   6.301
11216TIP3    H133591   2.496   4.939   6.249
11216TIP3    H233592   2.406   4.840   6.318
11217TIP3   OH233593   2.061   4.162   6.005
11217TIP3    H133594   2.108   4.244   6.030
11217TIP3    H233595   1.985   4.165   6.068
11218TIP3   OH233596   2.635   4.622   6.244
11218TIP3    H133597   2.600   4.711   6.265
11218TIP3    H233598   2.600   4.570   6.320
11219TIP3   OH233599   2.771   5.200   6.771
11219TIP3    H133600   2.814   5.272   6.721
11219TIP3    H233601   2.847   5.163   6.820
11220TIP3   OH233602   2.417   5.098   6.154
11220TIP3    H133603   2.332   5.104   6.202
11220TIP3    H233604   2.448   5.191   6.159
11221TIP3   OH233605   3.156   4.836   6.730
11221TIP3    H133606   3.146   4.835   6.828
11221TIP3    H233607   3.235   4.781   6.719
11222TIP3   OH233608   3.407   5.368   6.783
11222TIP3    H133609   3.329   5.309   6.779
11222TIP3    H233610   3.389   5.430   6.710
11223TIP3   OH233611   3.470   5.199   5.433
11223TIP3    H133612   3.509   5.269   5.378
11223TIP3    H233613   3.391   5.246   5.465
11224TIP3   OH233614   2.487   3.980   7.296
11224TIP3    H133615   2.390   3.986   7.307
11224TIP3    H233616   2.513   3.921   7.369
11225TIP3   OH233617   3.290   4.644   5.811
11225TIP3    H133618   3.284   4.594   5.895
11225TIP3    H233619   3.387   4.657   5.806
11226TIP3   OH233620   2.208   5.062   6.930
11226TIP3    H133621   2.260   4.987   6.963
11226TIP3    H233622   2.235   5.132   6.991
11227TIP3   OH233623   2.503   4.702   5.614
11227TIP3    H133624   2.503   4.608   5.590
11227TIP3    H233625   2.479   4.697   5.709
11228TIP3   OH233626   2.442   4.714   5.883
11228TIP3    H133627   2.509   4.683   5.945
11228TIP3    H233628   2.446   4.811   5.896
11229TIP3   OH233629   2.176   4.405   6.090
11229TIP3    H133630   2.110   4.448   6.148
11229TIP3    H233631   2.189   4.475   6.023
11230TIP3   OH233632   3.329   4.043   6.981
11230TIP3    H133633   3.411   4.082   7.015
11230TIP3    H233634   3.319   3.962   7.036
11231TIP3   OH233635   3.210   3.792   6.149
11231TIP3    H133636   3.198   3.815   6.056
11231TIP3    H233637   3.251   3.873   6.186
11232TIP3   OH233638   2.708   4.914   5.831
11232TIP3    H133639   2.621   4.935   5.870
11232TIP3    H233640   2.726   4.997   5.784
11233TIP3   OH233641   2.895   3.976   6.250
11233TIP3    H133642   2.960   4.047   6.235
11233TIP3    H233643   2.900   3.965   6.347
11234TIP3   OH233644   3.168   4.290   7.054
11234TIP3    H133645   3.192   4.340   7.135
11234TIP3    H233646   3.222   4.209   7.064
11235TIP3   OH233647   3.040   3.696   6.351
11235TIP3    H133648   3.036   3.773   6.411
11235TIP3    H233649   3.102   3.731   6.282
11236TIP3   OH233650   2.453   4.986   5.905
11236TIP3    H133651   2.423   5.056   5.843
11236TIP3    H233652   2.437   5.028   5.992
11237TIP3   OH233653   2.555   3.700   6.140
11237TIP3    H133654   2.551   3.789   6.180
11237TIP3    H233655   2.651   3.682   6.148
11238TIP3   OH233656   3.808   4.205   7.018
11238TIP3    H133657   3.710   4.203   7.027
11238TIP3    H233658   3.823   4.116   6.985
11239TIP3   OH233659   3.457   4.387   6.425
11239TIP3    H133660   3.381   4.327   6.438
11239TIP3    H233661   3.529   4.340   6.473
11240TIP3   OH233662   2.172   4.612   5.894
11240TIP3    H133663   2.241   4.680   5.903
11240TIP3    H233664   2.216   4.555   5.827
11241TIP3   OH233665   2.116   3.892   6.025
11241TIP3    H133666   2.110   3.989   6.024
11241TIP3    H233667   2.030   3.865   5.993
11242TIP3   OH233668   3.426   5.344   6.373
11242TIP3    H133669   3.384   5.391   6.298
11242TIP3    H233670   3.521   5.363   6.354
11243TIP3   OH233671   2.505   3.609   6.899
11243TIP3    H133672   2.471   3.576   6.813
11243TIP3    H233673   2.493   3.531   6.957
11244TIP3   OH233674   2.041   4.834   6.280
11244TIP3    H133675   1.975   4.860   6.346
11244TIP3    H233676   2.005   4.875   6.198
11245TIP3   OH233677   2.200   5.376   7.353
11245TIP3    H133678   2.287   5.375   7.400
11245TIP3    H233679   2.180   5.281   7.351
11246TIP3   OH233680   2.677   5.334   7.397
11246TIP3    H133681   2.772   5.314   7.406
11246TIP3    H233682   2.652   5.273   7.325
11247TIP3   OH233683   2.664   4.901   5.522
11247TIP3    H133684   2.597   4.840   5.562
11247TIP3    H233685   2.743   4.847   5.529
11248TIP3   OH233686   3.317   5.243   7.131
11248TIP3    H133687   3.310   5.172   7.199
11248TIP3    H233688   3.394   5.294   7.163
11249TIP3   OH233689   2.328   4.779   7.554
11249TIP3    H133690   2.346   4.684   7.558
11249TIP3    H233691   2.241   4.780   7.508
11250TIP3   OH233692   2.309   4.426   5.747
11250TIP3    H133693   2.361   4.392   5.823
11250TIP3    H233694   2.379   4.430   5.679
11251TIP3   OH233695   2.935   4.865   7.328
11251TIP3    H133696   2.894   4.882   7.241
11251TIP3    H233697   2.967   4.773   7.319
11252TIP3   OH233698   2.895   4.631   5.558
11252TIP3    H133699   2.856   4.653   5.646
11252TIP3    H233700   2.848   4.546   5.538
11253TIP3   OH233701   3.429   4.875   6.935
11253TIP3    H133702   3.504   4.919   6.890
11253TIP3    H233703   3.358   4.940   6.919
11254TIP3   OH233704   2.449   4.520   7.537
11254TIP3    H133705   2.521   4.460   7.513
11254TIP3    H233706   2.476   4.547   7.627
11255TIP3   OH233707   2.511   4.334   5.967
11255TIP3    H133708   2.483   4.296   6.052
11255TIP3    H233709   2.547   4.256   5.921
11256TIP3   OH233710   2.784   4.398   7.199
11256TIP3    H133711   2.705   4.457   7.200
11256TIP3    H233712   2.833   4.432   7.121
11257TIP3   OH233713   2.615   4.129   5.808
11257TIP3    H133714   2.590   4.130   5.714
11257TIP3    H233715   2.713   4.131   5.801
11258TIP3   OH233716   3.302   4.799   7.329
11258TIP3    H133717   3.379   4.767   7.281
11258TIP3    H233718   3.295   4.734   7.402
11259TIP3   OH233719   3.434   4.469   5.471
11259TIP3    H133720   3.411   4.422   5.388
11259TIP3    H233721   3.485   4.544   5.437
11260TIP3   OH233722   2.906   4.186   7.323
11260TIP3    H133723   2.907   4.107   7.265
11260TIP3    H233724   2.862   4.253   7.265
11261TIP3   OH233725   2.910   3.973   7.130
11261TIP3    H133726   2.937   4.012   7.045
11261TIP3    H233727   2.816   3.950   7.112
11262TIP3   OH233728   2.934   4.507   7.004
11262TIP3    H133729   3.019   4.515   6.960
11262TIP3    H233730   2.879   4.573   6.958
11263TIP3   OH233731   3.519   4.471   7.384
11263TIP3    H133732   3.562   4.385   7.393
11263TIP3    H233733   3.590   4.525   7.346
11264TIP3   OH233734   3.557   4.729   7.122
11264TIP3    H133735   3.501   4.784   7.063
11264TIP3    H233736   3.646   4.747   7.083
11265TIP3   OH233737   2.785   4.294   7.554
11265TIP3    H133738   2.717   4.226   7.571
11265TIP3    H233739   2.819   4.268   7.466
11266TIP3   OH233740   3.040   3.735   7.201
11266TIP3    H133741   2.992   3.817   7.177
11266TIP3    H233742   2.971   3.667   7.189
11267TIP3   OH233743   3.165   4.239   7.415
11267TIP3    H133744   3.151   4.224   7.510
11267TIP3    H233745   3.076   4.214   7.382
11268TIP3   OH233746   3.404   4.194   7.270
11268TIP3    H133747   3.329   4.191   7.333
11268TIP3    H233748   3.479   4.162   7.326
11269TIP3   OH233749   3.625   4.131   7.420
11269TIP3    H133750   3.649   4.037   7.432
11269TIP3    H233751   3.634   4.167   7.511
11270TIP3   OH233752   2.626   4.073   7.609
11270TIP3    H133753   2.629   3.982   7.575
11270TIP3    H233754   2.662   4.061   7.699
11271TIP3   OH233755   3.135   3.744   7.458
11271TIP3    H133756   3.202   3.673   7.451
11271TIP3    H233757   3.095   3.739   7.369
11272TIP3   OH233758   3.201   3.960   7.614
11272TIP3    H133759   3.179   3.888   7.550
11272TIP3    H233760   3.122   4.018   7.607
11273TIP3   OH233761   2.425   5.187   5.716
11273TIP3    H133762   2.520   5.181   5.695
11273TIP3    H233763   2.394   5.239   5.639
11274TIP3   OH233764   1.902   4.573   5.926
11274TIP3    H133765   1.998   4.593   5.916
11274TIP3    H233766   1.897   4.483   5.887
11275TIP3   OH233767   1.819   5.182   6.347
11275TIP3    H133768   1.752   5.120   6.310
11275TIP3    H233769   1.863   5.123   6.412
11276TIP3   OH233770   1.952   5.030   6.534
11276TIP3    H133771   1.941   4.958   6.599
11276TIP3    H233772   2.004   5.093   6.587
11277TIP3   OH233773   3.680   5.434   6.334
11277TIP3    H133774   3.711   5.469   6.419
11277TIP3    H233775   3.744   5.471   6.271
11278TIP3   OH233776   3.712   5.451   6.619
11278TIP3    H133777   3.665   5.365   6.610
11278TIP3    H233778   3.787   5.422   6.674
11279TIP3   OH233779   3.749   5.123   7.184
11279TIP3    H133780   3.679   5.133   7.252
11279TIP3    H233781   3.793   5.210   7.189
11280TIP3   OH233782   3.574   4.644   5.805
11280TIP3    H133783   3.641   4.709   5.776
11280TIP3    H233784   3.617   4.606   5.885
11281TIP3   OH233785   3.699   4.511   6.010
11281TIP3    H133786   3.634   4.469   6.071
11281TIP3    H233787   3.766   4.546   6.072
11282TIP3   OH233788   3.756   4.904   6.442
11282TIP3    H133789   3.810   4.837   6.395
11282TIP3    H233790   3.752   4.977   6.377
11283TIP3   OH233791   3.583   5.202   6.636
11283TIP3    H133792   3.511   5.244   6.687
11283TIP3    H233793   3.534   5.155   6.565
11284TIP3   OH233794   3.636   4.419   5.658
11284TIP3    H133795   3.560   4.420   5.596
11284TIP3    H233796   3.614   4.496   5.714
11285TIP3   OH233797   3.494   4.098   5.612
11285TIP3    H133798   3.479   4.117   5.519
11285TIP3    H233799   3.477   4.001   5.613
11286TIP3   OH233800   3.510   4.368   6.155
11286TIP3    H133801   3.521   4.272   6.150
11286TIP3    H233802   3.497   4.382   6.251
11287TIP3   OH233803   2.138   4.442   6.904
11287TIP3    H133804   2.135   4.407   6.812
11287TIP3    H233805   2.235   4.443   6.920
11288TIP3   OH233806   3.803   4.791   7.015
11288TIP3    H133807   3.874   4.724   7.004
11288TIP3    H233808   3.829   4.859   6.950
11289TIP3   OH233809   3.988   4.595   7.024
11289TIP3    H133810   3.912   4.546   7.064
11289TIP3    H233811   4.059   4.530   7.041
11290TIP3   OH233812   3.449   3.831   5.601
11290TIP3    H133813   3.526   3.794   5.650
11290TIP3    H233814   3.378   3.767   5.617
11291TIP3   OH233815   3.509   4.084   6.047
11291TIP3    H133816   3.550   3.995   6.063
11291TIP3    H233817   3.568   4.117   5.978
11292TIP3   OH233818   3.669   4.254   6.543
11292TIP3    H133819   3.755   4.280   6.503
11292TIP3    H233820   3.683   4.291   6.633
11293TIP3   OH233821   3.738   4.403   6.769
11293TIP3    H133822   3.664   4.435   6.824
11293TIP3    H233823   3.772   4.487   6.729
11294TIP3   OH233824   2.360   4.132   7.586
11294TIP3    H133825   2.457   4.122   7.586
11294TIP3    H233826   2.334   4.044   7.620
11295TIP3   OH233827   3.617   3.835   6.089
11295TIP3    H133828   3.666   3.818   6.172
11295TIP3    H233829   3.557   3.757   6.086
11296TIP3   OH233830   2.322   3.818   6.904
11296TIP3    H133831   2.384   3.743   6.915
11296TIP3    H233832   2.384   3.893   6.900
11297TIP3   OH233833   2.130   4.095   6.986
11297TIP3    H133834   2.173   4.084   6.899
11297TIP3    H233835   2.161   4.183   7.012
11298TIP3   OH233836   3.697   3.766   5.721
11298TIP3    H133837   3.736   3.695   5.666
11298TIP3    H233838   3.765   3.835   5.717
11299TIP3   OH233839   2.105   3.615   6.497
11299TIP3    H133840   2.011   3.597   6.516
11299TIP3    H233841   2.101   3.657   6.409
11300TIP3   OH233842   3.259   5.302   5.986
11300TIP3    H133843   3.313   5.290   5.905
11300TIP3    H233844   3.312   5.367   6.035
11301TIP3   OH233845   2.328   3.675   7.294
11301TIP3    H133846   2.276   3.671   7.376
11301TIP3    H233847   2.263   3.716   7.234
11302TIP3   OH233848   2.363   5.109   7.371
11302TIP3    H133849   2.271   5.080   7.356
11302TIP3    H233850   2.376   5.084   7.464
11303TIP3   OH233851   2.544   5.139   6.921
11303TIP3    H133852   2.496   5.215   6.883
11303TIP3    H233853   2.630   5.152   6.877
11304TIP3   OH233854   2.984   5.382   7.058
11304TIP3    H133855   3.027   5.380   7.147
11304TIP3    H233856   3.050   5.433   7.007
11305TIP3   OH233857   3.163   5.536   6.918
11305TIP3    H133858   3.233   5.484   6.876
11305TIP3    H233859   3.217   5.592   6.979
11306TIP3   OH233860   2.219   5.397   6.943
11306TIP3    H133861   2.129   5.428   6.923
11306TIP3    H233862   2.231   5.434   7.031
11307TIP3   OH233863   2.456   5.375   6.804
11307TIP3    H133864   2.368   5.386   6.849
11307TIP3    H233865   2.435   5.405   6.713
11308TIP3   OH233866   2.881   5.400   6.602
11308TIP3    H133867   2.811   5.419   6.537
11308TIP3    H233868   2.894   5.487   6.644
11309TIP3   OH233869   3.151   5.340   6.654
11309TIP3    H133870   3.057   5.357   6.633
11309TIP3    H233871   3.195   5.414   6.609
11310TIP3   OH233872   3.353   5.529   6.566
11310TIP3    H133873   3.342   5.614   6.518
11310TIP3    H233874   3.382   5.470   6.493
11311TIP3   OH233875   2.131   5.188   6.690
11311TIP3    H133876   2.157   5.159   6.780
11311TIP3    H233877   2.202   5.144   6.638
11312TIP3   OH233878   2.326   5.060   6.548
11312TIP3    H133879   2.339   4.976   6.597
11312TIP3    H233880   2.417   5.095   6.546
11313TIP3   OH233881   2.594   5.153   6.552
11313TIP3    H133882   2.622   5.060   6.542
11313TIP3    H233883   2.641   5.174   6.635
11314TIP3   OH233884   3.163   3.807   6.635
11314TIP3    H133885   3.123   3.737   6.689
11314TIP3    H233886   3.239   3.762   6.593
11315TIP3   OH233887   3.688   3.684   6.536
11315TIP3    H133888   3.723   3.740   6.464
11315TIP3    H233889   3.594   3.710   6.538
11316TIP3   OH233890   3.784   3.790   6.304
11316TIP3    H133891   3.858   3.738   6.265
11316TIP3    H233892   3.818   3.881   6.290
11317TIP3   OH233893   2.412   3.519   6.652
11317TIP3    H133894   2.319   3.487   6.649
11317TIP3    H233895   2.461   3.434   6.650
11318TIP3   OH233896   2.238   3.387   6.277
11318TIP3    H133897   2.241   3.465   6.219
11318TIP3    H233898   2.190   3.419   6.354
11319TIP3   OH233899   2.862   3.548   6.533
11319TIP3    H133900   2.919   3.598   6.472
11319TIP3    H233901   2.883   3.587   6.618
11320TIP3   OH233902   3.402   3.698   6.518
11320TIP3    H133903   3.404   3.658   6.430
11320TIP3    H233904   3.391   3.619   6.576
11321TIP3   OH233905   3.436   3.622   6.081
11321TIP3    H133906   3.349   3.664   6.097
11321TIP3    H233907   3.422   3.535   6.125
11322TIP3   OH233908   1.919   4.961   6.076
11322TIP3    H133909   1.833   4.928   6.044
11322TIP3    H233910   1.908   5.056   6.056
11323TIP3   OH233911   2.322   3.561   6.052
11323TIP3    H133912   2.367   3.488   6.005
11323TIP3    H233913   2.397   3.607   6.095
11324TIP3   OH233914   2.831   3.725   6.162
11324TIP3    H133915   2.889   3.677   6.224
11324TIP3    H233916   2.853   3.817   6.189
11325TIP3   OH233917   2.693   5.142   5.660
11325TIP3    H133918   2.779   5.167   5.622
11325TIP3    H233919   2.671   5.067   5.601
11326TIP3   OH233920   3.407   5.265   5.756
11326TIP3    H133921   3.393   5.168   5.742
11326TIP3    H233922   3.366   5.301   5.674
11327TIP3   OH233923   2.622   3.798   7.546
11327TIP3    H133924   2.588   3.727   7.603
11327TIP3    H233925   2.716   3.799   7.573
11328TIP3   OH233926   2.871   3.795   7.665
11328TIP3    H133927   2.956   3.770   7.625
11328TIP3    H233928   2.860   3.725   7.733
11329TIP3   OH233929   1.993   4.984   5.718
11329TIP3    H133930   1.994   5.002   5.813
11329TIP3    H233931   2.081   4.941   5.705
11330TIP3   OH233932   3.708   3.864   7.443
11330TIP3    H133933   3.725   3.832   7.534
11330TIP3    H233934   3.798   3.862   7.405
11331TIP3   OH233935   3.633   5.411   6.948
11331TIP3    H133936   3.556   5.380   6.896
11331TIP3    H233937   3.616   5.508   6.948
11332TIP3   OH233938   4.903   4.784   5.707
11332TIP3    H133939   4.872   4.874   5.685
11332TIP3    H233940   4.828   4.732   5.671
11333TIP3   OH233941   4.903   4.784   6.093
11333TIP3    H133942   4.936   4.756   6.181
11333TIP3    H233943   4.861   4.703   6.061
11334TIP3   OH233944   4.198   4.675   6.457
11334TIP3    H133945   4.229   4.607   6.520
11334TIP3    H233946   4.278   4.728   6.446
11335TIP3   OH233947   5.149   5.085   5.773
11335TIP3    H133948   5.129   5.019   5.841
11335TIP3    H233949   5.176   5.162   5.827
11336TIP3   OH233950   4.174   5.088   6.180
11336TIP3    H133951   4.165   4.990   6.181
11336TIP3    H233952   4.271   5.097   6.170
11337TIP3   OH233953   3.878   4.290   5.961
11337TIP3    H133954   3.831   4.373   5.979
11337TIP3    H233955   3.808   4.236   5.922
11338TIP3   OH233956   3.936   4.576   6.139
11338TIP3    H133957   3.986   4.500   6.174
11338TIP3    H233958   3.998   4.612   6.074
11339TIP3   OH233959   4.796   5.546   5.789
11339TIP3    H133960   4.839   5.475   5.737
11339TIP3    H233961   4.787   5.506   5.876
11340TIP3   OH233962   4.698   5.009   6.139
11340TIP3    H133963   4.738   4.934   6.093
11340TIP3    H233964   4.781   5.056   6.164
11341TIP3   OH233965   5.716   4.329   6.137
11341TIP3    H133966   5.744   4.412   6.181
11341TIP3    H233967   5.730   4.350   6.044
11342TIP3   OH233968   5.114   4.509   6.169
11342TIP3    H133969   5.155   4.422   6.188
11342TIP3    H233970   5.080   4.493   6.078
11343TIP3   OH233971   4.454   4.170   6.134
11343TIP3    H133972   4.433   4.242   6.072
11343TIP3    H233973   4.405   4.096   6.091
11344TIP3   OH233974   5.147   4.262   5.757
11344TIP3    H133975   5.220   4.247   5.821
11344TIP3    H233976   5.197   4.297   5.681
11345TIP3   OH233977   4.085   4.372   6.243
11345TIP3    H133978   4.168   4.352   6.291
11345TIP3    H233979   4.098   4.316   6.163
11346TIP3   OH233980   4.523   4.569   6.040
11346TIP3    H133981   4.617   4.545   6.051
11346TIP3    H233982   4.485   4.485   6.006
11347TIP3   OH233983   5.788   4.538   6.306
11347TIP3    H133984   5.704   4.584   6.287
11347TIP3    H233985   5.805   4.567   6.397
11348TIP3   OH233986   4.448   4.153   6.571
11348TIP3    H133987   4.387   4.190   6.503
11348TIP3    H233988   4.395   4.169   6.652
11349TIP3   OH233989   4.791   5.004   5.577
11349TIP3    H133990   4.751   4.987   5.491
11349TIP3    H233991   4.746   5.087   5.603
11350TIP3   OH233992   4.553   4.929   6.363
11350TIP3    H133993   4.492   4.997   6.399
11350TIP3    H233994   4.596   4.977   6.289
11351TIP3   OH233995   5.355   4.265   5.934
11351TIP3    H133996   5.335   4.222   6.018
11351TIP3    H233997   5.405   4.344   5.962
11352TIP3   OH233998   4.319   4.268   6.353
11352TIP3    H133999   4.382   4.341   6.377
11352TIP3    H234000   4.369   4.227   6.279
11353TIP3   OH234001   4.383   5.125   6.463
11353TIP3    H134002   4.357   5.211   6.424
11353TIP3    H234003   4.304   5.109   6.519
11354TIP3   OH234004   3.773   4.814   5.699
11354TIP3    H134005   3.736   4.842   5.613
11354TIP3    H234006   3.806   4.900   5.735
11355TIP3   OH234007   5.215   5.329   5.938
11355TIP3    H134008   5.125   5.321   5.977
11355TIP3    H234009   5.207   5.416   5.892
11356TIP3   OH234010   5.508   4.228   6.302
11356TIP3    H134011   5.420   4.255   6.271
11356TIP3    H234012   5.566   4.260   6.231
11357TIP3   OH234013   4.801   3.872   6.285
11357TIP3    H134014   4.788   3.777   6.303
11357TIP3    H234015   4.724   3.910   6.332
11358TIP3   OH234016   4.914   5.373   5.610
11358TIP3    H134017   4.965   5.291   5.590
11358TIP3    H234018   4.975   5.439   5.570
11359TIP3   OH234019   5.059   5.158   5.522
11359TIP3    H134020   5.021   5.078   5.484
11359TIP3    H234021   5.097   5.124   5.606
11360TIP3   OH234022   5.441   5.239   6.283
11360TIP3    H134023   5.429   5.163   6.223
11360TIP3    H234024   5.422   5.315   6.223
11361TIP3   OH234025   4.733   4.636   5.542
11361TIP3    H134026   4.653   4.687   5.520
11361TIP3    H234027   4.776   4.628   5.455
11362TIP3   OH234028   4.690   4.420   5.266
11362TIP3    H134029   4.765   4.471   5.303
11362TIP3    H234030   4.740   4.357   5.210
11363TIP3   OH234031   5.636   4.879   6.129
11363TIP3    H134032   5.552   4.930   6.133
11363TIP3    H234033   5.666   4.903   6.038
11364TIP3   OH234034   5.081   4.719   5.511
11364TIP3    H134035   5.026   4.744   5.588
11364TIP3    H234036   5.165   4.694   5.555
11365TIP3   OH234037   5.315   4.755   6.426
11365TIP3    H134038   5.311   4.839   6.475
11365TIP3    H234039   5.228   4.758   6.380
11366TIP3   OH234040   4.312   4.714   5.930
11366TIP3    H134041   4.271   4.656   5.862
11366TIP3    H234042   4.389   4.661   5.959
11367TIP3   OH234043   4.440   5.123   6.077
11367TIP3    H134044   4.422   5.090   5.988
11367TIP3    H234045   4.530   5.089   6.094
11368TIP3   OH234046   4.445   4.687   6.284
11368TIP3    H134047   4.479   4.662   6.195
11368TIP3    H234048   4.490   4.772   6.301
11369TIP3   OH234049   4.975   5.324   6.060
11369TIP3    H134050   4.960   5.405   6.113
11369TIP3    H234051   4.959   5.252   6.124
11370TIP3   OH234052   4.588   5.242   6.608
11370TIP3    H134053   4.526   5.304   6.653
11370TIP3    H234054   4.523   5.189   6.557
11371TIP3   OH234055   4.920   4.575   5.340
11371TIP3    H134056   4.979   4.636   5.390
11371TIP3    H234057   4.946   4.596   5.247
11372TIP3   OH234058   4.342   4.796   6.712
11372TIP3    H134059   4.346   4.885   6.753
11372TIP3    H234060   4.247   4.777   6.722
11373TIP3   OH234061   4.665   5.253   5.614
11373TIP3    H134062   4.747   5.305   5.624
11373TIP3    H234063   4.605   5.315   5.571
11374TIP3   OH234064   4.379   5.407   6.694
11374TIP3    H134065   4.347   5.408   6.601
11374TIP3    H234066   4.296   5.391   6.744
11375TIP3   OH234067   5.437   3.814   5.389
11375TIP3    H134068   5.355   3.835   5.437
11375TIP3    H234069   5.450   3.896   5.338
11376TIP3   OH234070   4.178   4.558   5.735
11376TIP3    H134071   4.111   4.602   5.678
11376TIP3    H234072   4.142   4.469   5.743
11377TIP3   OH234073   5.235   5.182   4.935
11377TIP3    H134074   5.243   5.279   4.921
11377TIP3    H234075   5.328   5.154   4.923
11378TIP3   OH234076   3.960   4.942   6.640
11378TIP3    H134077   3.894   4.920   6.572
11378TIP3    H234078   3.997   4.854   6.663
11379TIP3   OH234079   3.814   5.134   6.272
11379TIP3    H134080   3.910   5.127   6.261
11379TIP3    H234081   3.807   5.213   6.328
11380TIP3   OH234082   5.679   5.588   6.332
11380TIP3    H134083   5.677   5.492   6.345
11380TIP3    H234084   5.595   5.614   6.376
11381TIP3   OH234085   4.785   5.371   6.465
11381TIP3    H134086   4.781   5.464   6.496
11381TIP3    H234087   4.713   5.331   6.519
11382TIP3   OH234088   4.547   5.499   5.417
11382TIP3    H134089   4.501   5.482   5.333
11382TIP3    H234090   4.515   5.587   5.442
11383TIP3   OH234091   3.983   5.347   5.801
11383TIP3    H134092   4.032   5.339   5.886
11383TIP3    H234093   3.928   5.267   5.803
11384TIP3   OH234094   4.746   5.402   5.054
11384TIP3    H134095   4.805   5.332   5.018
11384TIP3    H234096   4.781   5.412   5.145
11385TIP3   OH234097   4.798   5.451   5.324
11385TIP3    H134098   4.710   5.460   5.366
11385TIP3    H234099   4.850   5.414   5.397
11386TIP3   OH234100   5.567   4.716   6.605
11386TIP3    H134101   5.485   4.728   6.555
11386TIP3    H234102   5.583   4.620   6.595
11387TIP3   OH234103   4.165   5.125   6.628
11387TIP3    H134104   4.215   5.106   6.710
11387TIP3    H234105   4.090   5.062   6.635
11388TIP3   OH234106   4.564   3.948   6.416
11388TIP3    H134107   4.474   3.919   6.388
11388TIP3    H234108   4.539   4.030   6.463
11389TIP3   OH234109   5.098   4.062   6.609
11389TIP3    H134110   5.167   4.035   6.674
11389TIP3    H234111   5.015   4.043   6.656
11390TIP3   OH234112   5.336   4.492   6.528
11390TIP3    H134113   5.286   4.490   6.612
11390TIP3    H234114   5.311   4.579   6.491
11391TIP3   OH234115   5.002   4.623   5.088
11391TIP3    H134116   4.964   4.598   5.001
11391TIP3    H234117   5.083   4.668   5.060
11392TIP3   OH234118   4.709   3.992   5.386
11392TIP3    H134119   4.673   3.990   5.477
11392TIP3    H234120   4.667   3.911   5.350
11393TIP3   OH234121   4.497   4.464   6.432
11393TIP3    H134122   4.445   4.483   6.514
11393TIP3    H234123   4.479   4.545   6.380
11394TIP3   OH234124   4.380   4.350   5.946
11394TIP3    H134125   4.287   4.324   5.964
11394TIP3    H234126   4.392   4.310   5.857
11395TIP3   OH234127   4.869   4.435   5.676
11395TIP3    H134128   4.818   4.506   5.632
11395TIP3    H234129   4.924   4.402   5.602
11396TIP3   OH234130   5.044   4.711   6.759
11396TIP3    H134131   5.021   4.639   6.821
11396TIP3    H234132   5.138   4.724   6.782
11397TIP3   OH234133   5.026   4.462   5.912
11397TIP3    H134134   4.964   4.491   5.841
11397TIP3    H234135   5.061   4.382   5.867
11398TIP3   OH234136   4.315   4.491   6.640
11398TIP3    H134137   4.342   4.553   6.709
11398TIP3    H234138   4.301   4.408   6.691
11399TIP3   OH234139   4.366   3.971   5.351
11399TIP3    H134140   4.354   3.969   5.447
11399TIP3    H234141   4.288   4.021   5.322
11400TIP3   OH234142   3.907   4.014   6.221
11400TIP3    H134143   3.982   4.047   6.275
11400TIP3    H234144   3.950   3.983   6.140
11401TIP3   OH234145   3.875   3.992   5.743
11401TIP3    H134146   3.920   4.030   5.664
11401TIP3    H234147   3.814   4.066   5.763
11402TIP3   OH234148   5.039   4.708   6.334
11402TIP3    H134149   5.071   4.636   6.275
11402TIP3    H234150   5.007   4.654   6.410
11403TIP3   OH234151   4.711   4.169   6.007
11403TIP3    H134152   4.629   4.169   6.060
11403TIP3    H234153   4.779   4.167   6.076
11404TIP3   OH234154   4.141   4.229   6.014
11404TIP3    H134155   4.047   4.235   5.986
11404TIP3    H234156   4.165   4.137   5.991
11405TIP3   OH234157   4.407   4.224   5.704
11405TIP3    H134158   4.501   4.238   5.682
11405TIP3    H234159   4.360   4.246   5.620
11406TIP3   OH234160   5.200   4.246   6.209
11406TIP3    H134161   5.167   4.260   6.301
11406TIP3    H234162   5.131   4.186   6.175
11407TIP3   OH234163   4.254   4.259   5.480
11407TIP3    H134164   4.187   4.211   5.428
11407TIP3    H234165   4.308   4.297   5.407
11408TIP3   OH234166   5.371   5.936   6.429
11408TIP3    H134167   5.368   5.961   6.335
11408TIP3    H234168   5.450   5.985   6.459
11409TIP3   OH234169   4.325   5.047   6.849
11409TIP3    H134170   4.405   5.076   6.897
11409TIP3    H234171   4.261   5.042   6.923
11410TIP3   OH234172   4.789   4.501   6.105
11410TIP3    H134173   4.862   4.461   6.055
11410TIP3    H234174   4.796   4.457   6.191
11411TIP3   OH234175   4.310   3.988   5.985
11411TIP3    H134176   4.274   3.910   6.032
11411TIP3    H234177   4.352   3.948   5.908
11412TIP3   OH234178   4.766   4.399   6.393
11412TIP3    H134179   4.675   4.434   6.408
11412TIP3    H234180   4.822   4.460   6.444
11413TIP3   OH234181   4.501   4.787   5.488
11413TIP3    H134182   4.429   4.722   5.476
11413TIP3    H234183   4.482   4.820   5.579
11414TIP3   OH234184   5.402   5.023   6.116
11414TIP3    H134185   5.426   5.073   6.036
11414TIP3    H234186   5.316   4.982   6.091
11415TIP3   OH234187   4.961   4.093   5.362
11415TIP3    H134188   4.864   4.075   5.363
11415TIP3    H234189   4.965   4.190   5.373
11416TIP3   OH234190   4.899   5.104   6.487
11416TIP3    H134191   4.929   5.089   6.578
11416TIP3    H234192   4.864   5.195   6.492
11417TIP3   OH234193   5.028   4.348   5.461
11417TIP3    H134194   5.125   4.356   5.470
11417TIP3    H234195   5.006   4.425   5.404
11418TIP3   OH234196   4.194   4.809   6.164
11418TIP3    H134197   4.233   4.783   6.078
11418TIP3    H234198   4.240   4.750   6.225
11419TIP3   OH234199   4.650   4.938   5.315
11419TIP3    H134200   4.600   5.023   5.318
11419TIP3    H234201   4.595   4.882   5.373
11420TIP3   OH234202   4.077   4.729   6.778
11420TIP3    H134203   4.092   4.713   6.874
11420TIP3    H234204   4.008   4.663   6.759
11421TIP3   OH234205   4.802   4.845   6.799
11421TIP3    H134206   4.741   4.786   6.752
11421TIP3    H234207   4.889   4.810   6.769
11422TIP3   OH234208   5.062   5.362   6.386
11422TIP3    H134209   4.965   5.364   6.396
11422TIP3    H234210   5.089   5.417   6.463
11423TIP3   OH234211   5.473   4.439   5.289
11423TIP3    H134212   5.411   4.394   5.228
11423TIP3    H234213   5.467   4.529   5.250
11424TIP3   OH234214   5.691   5.297   6.371
11424TIP3    H134215   5.593   5.291   6.363
11424TIP3    H234216   5.717   5.267   6.281
11425TIP3   OH234217   5.177   5.257   5.201
11425TIP3    H134218   5.145   5.188   5.261
11425TIP3    H234219   5.185   5.210   5.116
11426TIP3   OH234220   5.168   4.886   6.034
11426TIP3    H134221   5.074   4.861   6.048
11426TIP3    H234222   5.201   4.806   5.989
11427TIP3   OH234223   4.299   5.116   5.793
11427TIP3    H134224   4.299   5.196   5.738
11427TIP3    H234225   4.204   5.098   5.799
11428TIP3   OH234226   3.860   4.417   5.494
11428TIP3    H134227   3.908   4.500   5.516
11428TIP3    H234228   3.785   4.422   5.556
11429TIP3   OH234229   4.430   4.878   5.733
11429TIP3    H134230   4.398   4.968   5.752
11429TIP3    H234231   4.394   4.828   5.809
11430TIP3   OH234232   4.567   5.456   6.258
11430TIP3    H134233   4.606   5.530   6.207
11430TIP3    H234234   4.645   5.422   6.304
11431TIP3   OH234235   4.217   5.351   5.643
11431TIP3    H134236   4.130   5.362   5.688
11431TIP3    H234237   4.250   5.444   5.646
11432TIP3   OH234238   4.951   5.092   6.219
11432TIP3    H134239   4.942   5.090   6.317
11432TIP3    H234240   5.031   5.039   6.206
11433TIP3   OH234241   4.930   4.986   5.101
11433TIP3    H134242   4.982   4.960   5.180
11433TIP3    H234243   4.842   4.957   5.128
11434TIP3   OH234244   5.202   5.624   6.267
11434TIP3    H134245   5.121   5.570   6.259
11434TIP3    H234246   5.188   5.689   6.195
11435TIP3   OH234247   5.267   5.458   4.919
11435TIP3    H134248   5.302   5.532   4.867
11435TIP3    H234249   5.187   5.502   4.955
11436TIP3   OH234250   4.285   4.235   6.784
11436TIP3    H134251   4.188   4.242   6.797
11436TIP3    H234252   4.311   4.177   6.857
11437TIP3   OH234253   5.090   4.919   5.316
11437TIP3    H134254   5.080   4.852   5.387
11437TIP3    H234255   5.187   4.916   5.304
11438TIP3   OH234256   4.003   5.318   6.417
11438TIP3    H134257   4.056   5.243   6.450
11438TIP3    H234258   4.037   5.389   6.472
11439TIP3   OH234259   4.294   4.964   5.102
11439TIP3    H134260   4.307   4.872   5.074
11439TIP3    H234261   4.273   4.953   5.197
11440TIP3   OH234262   4.236   4.969   5.375
11440TIP3    H134263   4.313   4.944   5.428
11440TIP3    H234264   4.240   5.067   5.381
11441TIP3   OH234265   3.972   4.661   5.577
11441TIP3    H134266   3.907   4.708   5.634
11441TIP3    H234267   3.989   4.729   5.510
11442TIP3   OH234268   5.127   4.299   6.469
11442TIP3    H134269   5.207   4.337   6.509
11442TIP3    H234270   5.112   4.218   6.523
11443TIP3   OH234271   5.006   4.047   5.637
11443TIP3    H134272   4.989   4.068   5.543
11443TIP3    H234273   5.044   4.131   5.669
11444TIP3   OH234274   4.505   5.166   5.322
11444TIP3    H134275   4.417   5.193   5.357
11444TIP3    H234276   4.522   5.240   5.261
11445TIP3   OH234277   4.691   4.231   5.736
11445TIP3    H134278   4.755   4.303   5.718
11445TIP3    H234279   4.698   4.224   5.834
11446TIP3   OH234280   4.963   4.547   6.542
11446TIP3    H134281   4.986   4.600   6.621
11446TIP3    H234282   5.017   4.466   6.554
11447TIP3   OH234283   4.836   3.953   5.837
11447TIP3    H134284   4.824   4.032   5.893
11447TIP3    H234285   4.898   3.987   5.769
11448TIP3   OH234286   4.249   5.241   5.391
11448TIP3    H134287   4.221   5.312   5.327
11448TIP3    H234288   4.234   5.286   5.477
11449TIP3   OH234289   4.348   3.956   5.629
11449TIP3    H134290   4.346   4.047   5.664
11449TIP3    H234291   4.444   3.939   5.635
11450TIP3   OH234292   5.602   4.448   6.524
11450TIP3    H134293   5.504   4.448   6.533
11450TIP3    H234294   5.611   4.405   6.438
11451TIP3   OH234295   5.254   4.642   5.912
11451TIP3    H134296   5.176   4.584   5.923
11451TIP3    H234297   5.323   4.593   5.961
11452TIP3   OH234298   3.967   4.869   5.381
11452TIP3    H134299   4.036   4.937   5.390
11452TIP3    H234300   4.011   4.812   5.314
11453TIP3   OH234301   3.908   4.147   5.522
11453TIP3    H134302   3.910   4.244   5.513
11453TIP3    H234303   3.840   4.121   5.458
11454TIP3   OH234304   5.223   5.600   5.860
11454TIP3    H134305   5.180   5.646   5.785
11454TIP3    H234306   5.317   5.618   5.839
11455TIP3   OH234307   4.300   3.870   6.385
11455TIP3    H134308   4.267   3.837   6.299
11455TIP3    H234309   4.289   3.791   6.443
11456TIP3   OH234310   3.833   5.082   5.766
11456TIP3    H134311   3.770   5.117   5.830
11456TIP3    H234312   3.804   5.127   5.684
11457TIP3   OH234313   4.467   5.612   6.864
11457TIP3    H134314   4.559   5.590   6.885
11457TIP3    H234315   4.444   5.540   6.803
11458TIP3   OH234316   4.456   5.168   5.011
11458TIP3    H134317   4.402   5.095   5.050
11458TIP3    H234318   4.531   5.117   4.975
11459TIP3   OH234319   5.112   5.501   6.620
11459TIP3    H134320   5.107   5.430   6.688
11459TIP3    H234321   5.190   5.552   6.649
11460TIP3   OH234322   4.892   5.207   4.925
11460TIP3    H134323   4.934   5.141   4.984
11460TIP3    H234324   4.949   5.204   4.846
11461TIP3   OH234325   4.124   5.038   7.042
11461TIP3    H134326   4.142   4.942   7.048
11461TIP3    H234327   4.037   5.038   6.996
11462TIP3   OH234328   4.102   4.681   5.236
11462TIP3    H134329   4.159   4.651   5.308
11462TIP3    H234330   4.168   4.687   5.163
11463TIP3   OH234331   4.730   5.121   6.815
11463TIP3    H134332   4.690   5.141   6.728
11463TIP3    H234333   4.762   5.029   6.804
11464TIP3   OH234334   4.619   4.883   5.045
11464TIP3    H134335   4.619   4.896   5.142
11464TIP3    H234336   4.619   4.785   5.040
11465TIP3   OH234337   5.225   5.132   6.422
11465TIP3    H134338   5.300   5.175   6.377
11465TIP3    H234339   5.155   5.199   6.407
11466TIP3   OH234340   4.244   4.777   7.024
11466TIP3    H134341   4.315   4.718   6.997
11466TIP3    H234342   4.273   4.804   7.113
11467TIP3   OH234343   4.306   4.590   5.452
11467TIP3    H134344   4.284   4.546   5.536
11467TIP3    H234345   4.346   4.517   5.401
11468TIP3   OH234346   4.581   4.655   6.686
11468TIP3    H134347   4.502   4.712   6.687
11468TIP3    H234348   4.629   4.688   6.607
11469TIP3   OH234349   4.413   4.386   5.297
11469TIP3    H134350   4.388   4.389   5.202
11469TIP3    H234351   4.511   4.388   5.290
11470TIP3   OH234352   5.097   5.055   6.818
11470TIP3    H134353   5.173   5.026   6.767
11470TIP3    H234354   5.092   4.989   6.889
11471TIP3   OH234355   5.234   4.711   4.958
11471TIP3    H134356   5.210   4.666   4.875
11471TIP3    H234357   5.201   4.801   4.937
11472TIP3   OH234358   4.705   4.444   6.809
11472TIP3    H134359   4.703   4.364   6.753
11472TIP3    H234360   4.660   4.510   6.752
11473TIP3   OH234361   4.706   4.229   6.618
11473TIP3    H134362   4.733   4.270   6.533
11473TIP3    H234363   4.613   4.206   6.600
11474TIP3   OH234364   4.730   4.764   6.491
11474TIP3    H134365   4.815   4.776   6.446
11474TIP3    H234366   4.674   4.830   6.445
11475TIP3   OH234367   5.313   4.730   6.870
11475TIP3    H134368   5.361   4.646   6.879
11475TIP3    H234369   5.382   4.788   6.833
11476TIP3   OH234370   5.354   4.984   6.608
11476TIP3    H134371   5.296   5.039   6.549
11476TIP3    H234372   5.442   5.005   6.568
11477TIP3   OH234373   4.583   4.549   7.044
11477TIP3    H134374   4.514   4.480   7.058
11477TIP3    H234375   4.615   4.525   6.955
11478TIP3   OH234376   4.837   3.991   6.687
11478TIP3    H134377   4.788   4.073   6.664
11478TIP3    H234378   4.767   3.923   6.676
11479TIP3   OH234379   4.963   4.494   6.902
11479TIP3    H134380   4.947   4.480   6.997
11479TIP3    H234381   4.874   4.471   6.867
11480TIP3   OH234382   5.203   4.446   6.757
11480TIP3    H134383   5.126   4.446   6.818
11480TIP3    H234384   5.275   4.415   6.814
11481TIP3   OH234385   5.434   4.388   6.907
11481TIP3    H134386   5.446   4.292   6.923
11481TIP3    H234387   5.428   4.424   6.998
11482TIP3   OH234388   4.421   4.331   7.098
11482TIP3    H134389   4.423   4.239   7.063
11482TIP3    H234390   4.459   4.316   7.187
11483TIP3   OH234391   4.933   4.002   6.944
11483TIP3    H134392   4.998   3.930   6.937
11483TIP3    H234393   4.891   3.997   6.855
11484TIP3   OH234394   4.998   4.216   7.103
11484TIP3    H134395   4.976   4.144   7.039
11484TIP3    H234396   4.919   4.274   7.096
11485TIP3   OH234397   4.220   5.441   5.202
11485TIP3    H134398   4.315   5.437   5.183
11485TIP3    H234399   4.190   5.494   5.126
11486TIP3   OH234400   3.700   4.823   5.416
11486TIP3    H134401   3.794   4.848   5.402
11486TIP3    H234402   3.697   4.735   5.374
11487TIP3   OH234403   3.612   5.435   5.835
11487TIP3    H134404   3.547   5.373   5.795
11487TIP3    H234405   3.658   5.376   5.899
11488TIP3   OH234406   3.750   5.282   6.018
11488TIP3    H134407   3.739   5.213   6.086
11488TIP3    H234408   3.802   5.347   6.068
11489TIP3   OH234409   5.480   5.684   5.820
11489TIP3    H134410   5.503   5.722   5.907
11489TIP3    H234411   5.536   5.735   5.760
11490TIP3   OH234412   5.504   5.710   6.103
11490TIP3    H134413   5.460   5.622   6.097
11490TIP3    H234414   5.580   5.687   6.158
11491TIP3   OH234415   5.553   5.386   6.675
11491TIP3    H134416   5.480   5.396   6.740
11491TIP3    H234417   5.594   5.475   6.679
11492TIP3   OH234418   5.370   4.898   5.292
11492TIP3    H134419   5.436   4.965   5.264
11492TIP3    H234420   5.414   4.860   5.372
11493TIP3   OH234421   5.498   4.764   5.496
11493TIP3    H134422   5.430   4.724   5.555
11493TIP3    H234423   5.560   4.804   5.561
11494TIP3   OH234424   5.554   5.161   5.931
11494TIP3    H134425   5.605   5.095   5.880
11494TIP3    H234426   5.547   5.236   5.867
11495TIP3   OH234427   5.380   5.459   6.125
11495TIP3    H134428   5.308   5.503   6.174
11495TIP3    H234429   5.330   5.413   6.053
11496TIP3   OH234430   5.434   4.675   5.142
11496TIP3    H134431   5.362   4.677   5.075
11496TIP3    H234432   5.406   4.751   5.197
11497TIP3   OH234433   5.308   4.342   5.096
11497TIP3    H134434   5.257   4.383   5.025
11497TIP3    H234435   5.284   4.248   5.083
11498TIP3   OH234436   5.310   4.625   5.642
11498TIP3    H134437   5.314   4.528   5.635
11498TIP3    H234438   5.294   4.638   5.738
11499TIP3   OH234439   3.934   4.699   6.390
11499TIP3    H134440   3.932   4.665   6.298
11499TIP3    H234441   4.031   4.699   6.406
11500TIP3   OH234442   5.599   5.049   6.502
11500TIP3    H134443   5.670   4.983   6.490
11500TIP3    H234444   5.623   5.118   6.438
11501TIP3   OH234445   5.783   4.851   6.510
11501TIP3    H134446   5.708   4.802   6.551
11501TIP3    H234447   5.855   4.787   6.527
11502TIP3   OH234448   5.255   4.072   5.071
11502TIP3    H134449   5.317   4.046   5.141
11502TIP3    H234450   5.172   4.027   5.098
11503TIP3   OH234451   5.308   4.342   5.537
11503TIP3    H134452   5.349   4.253   5.551
11503TIP3    H234453   5.364   4.374   5.465
11504TIP3   OH234454   5.467   4.510   6.034
11504TIP3    H134455   5.552   4.536   5.992
11504TIP3    H234456   5.480   4.549   6.122
11505TIP3   OH234457   5.537   4.658   6.263
11505TIP3    H134458   5.460   4.692   6.313
11505TIP3    H234459   5.569   4.740   6.219
11506TIP3   OH234460   4.155   4.388   7.079
11506TIP3    H134461   4.251   4.372   7.075
11506TIP3    H234462   4.123   4.306   7.120
11507TIP3   OH234463   5.989   4.252   6.820
11507TIP3    H134464   6.048   4.186   6.777
11507TIP3    H234465   5.958   4.305   6.743
11508TIP3   OH234466   5.417   4.090   5.574
11508TIP3    H134467   5.461   4.073   5.660
11508TIP3    H234468   5.354   4.015   5.571
11509TIP3   OH234469   4.115   4.077   6.392
11509TIP3    H134470   4.177   4.003   6.404
11509TIP3    H234471   4.177   4.152   6.387
11510TIP3   OH234472   3.914   4.349   6.465
11510TIP3    H134473   3.965   4.346   6.382
11510TIP3    H234474   3.947   4.431   6.504
11511TIP3   OH234475   5.857   4.387   6.624
11511TIP3    H134476   5.771   4.429   6.644
11511TIP3    H234477   5.826   4.314   6.567
11512TIP3   OH234478   5.497   4.021   5.214
11512TIP3    H134479   5.531   3.952   5.153
11512TIP3    H234480   5.561   4.094   5.202
11513TIP3   OH234481   3.902   3.851   5.971
11513TIP3    H134482   3.808   3.847   5.998
11513TIP3    H234483   3.898   3.909   5.892
11514TIP3   OH234484   5.061   5.555   5.476
11514TIP3    H134485   5.113   5.545   5.394
11514TIP3    H234486   5.109   5.626   5.522
11515TIP3   OH234487   4.118   3.924   6.787
11515TIP3    H134488   4.075   3.908   6.872
11515TIP3    H234489   4.046   3.968   6.737
11516TIP3   OH234490   4.153   5.375   6.860
11516TIP3    H134491   4.058   5.357   6.843
11516TIP3    H234492   4.168   5.327   6.941
11517TIP3   OH234493   4.341   5.397   6.409
11517TIP3    H134494   4.293   5.473   6.368
11517TIP3    H234495   4.427   5.409   6.363
11518TIP3   OH234496   4.779   5.639   6.546
11518TIP3    H134497   4.822   5.638   6.634
11518TIP3    H234498   4.845   5.689   6.494
11519TIP3   OH234499   4.960   5.790   6.408
11519TIP3    H134500   5.030   5.742   6.362
11519TIP3    H234501   5.013   5.848   6.467
11520TIP3   OH234502   5.758   4.150   6.504
11520TIP3    H134503   5.667   4.142   6.470
11520TIP3    H234504   5.790   4.057   6.493
11521TIP3   OH234505   4.012   5.647   6.424
11521TIP3    H134506   3.924   5.680   6.395
11521TIP3    H234507   4.018   5.690   6.510
11522TIP3   OH234508   4.252   5.629   6.289
11522TIP3    H134509   4.164   5.642   6.330
11522TIP3    H234510   4.234   5.662   6.198
11523TIP3   OH234511   4.676   5.655   6.090
11523TIP3    H134512   4.608   5.674   6.022
11523TIP3    H234513   4.689   5.744   6.129
11524TIP3   OH234514   4.946   5.596   6.142
11524TIP3    H134515   4.852   5.613   6.122
11524TIP3    H234516   4.989   5.669   6.095
11525TIP3   OH234517   5.152   5.787   6.053
11525TIP3    H134518   5.137   5.872   6.006
11525TIP3    H234519   5.177   5.728   5.978
11526TIP3   OH234520   3.923   5.441   6.176
11526TIP3    H134521   3.952   5.415   6.266
11526TIP3    H234522   3.997   5.401   6.124
11527TIP3   OH234523   4.121   5.317   6.036
11527TIP3    H134524   4.137   5.233   6.084
11527TIP3    H234525   4.211   5.354   6.031
11528TIP3   OH234526   4.386   5.408   6.040
11528TIP3    H134527   4.418   5.317   6.027
11528TIP3    H234528   4.435   5.431   6.122
11529TIP3   OH234529   4.966   4.067   6.128
11529TIP3    H134530   4.921   3.996   6.177
11529TIP3    H234531   5.036   4.020   6.081
11530TIP3   OH234532   5.483   3.948   6.029
11530TIP3    H134533   5.519   4.000   5.953
11530TIP3    H234534   5.388   3.966   6.023
11531TIP3   OH234535   5.580   4.045   5.793
11531TIP3    H134536   5.654   3.994   5.753
11531TIP3    H234537   5.611   4.137   5.779
11532TIP3   OH234538   4.209   3.777   6.138
11532TIP3    H134539   4.117   3.743   6.140
11532TIP3    H234540   4.259   3.694   6.133
11533TIP3   OH234541   4.007   3.643   5.792
11533TIP3    H134542   4.033   3.699   5.717
11533TIP3    H234543   3.975   3.710   5.856
11534TIP3   OH234544   4.659   3.805   6.023
11534TIP3    H134545   4.713   3.853   5.958
11534TIP3    H234546   4.684   3.848   6.105
11535TIP3   OH234547   5.201   3.954   6.004
11535TIP3    H134548   5.197   3.916   5.915
11535TIP3    H234549   5.189   3.874   6.060
11536TIP3   OH234550   5.232   3.879   5.567
11536TIP3    H134551   5.146   3.923   5.580
11536TIP3    H234552   5.216   3.793   5.612
11537TIP3   OH234553   3.712   5.220   5.569
11537TIP3    H134554   3.627   5.188   5.533
11537TIP3    H234555   3.706   5.314   5.542
11538TIP3   OH234556   4.116   3.801   5.553
11538TIP3    H134557   4.163   3.739   5.493
11538TIP3    H234558   4.191   3.855   5.586
11539TIP3   OH234559   4.624   3.980   5.651
11539TIP3    H134560   4.687   3.934   5.709
11539TIP3    H234561   4.646   4.073   5.674
11540TIP3   OH234562   4.488   5.400   5.151
11540TIP3    H134563   4.575   5.425   5.113
11540TIP3    H234564   4.465   5.326   5.090
11541TIP3   OH234565   5.208   5.524   5.243
11541TIP3    H134566   5.200   5.427   5.231
11541TIP3    H234567   5.161   5.557   5.164
11542TIP3   OH234568   4.416   4.065   7.031
11542TIP3    H134569   4.379   3.985   7.075
11542TIP3    H234570   4.509   4.057   7.060
11543TIP3   OH234571   4.667   4.055   7.155
11543TIP3    H134572   4.750   4.024   7.114
11543TIP3    H234573   4.649   3.983   7.219
11544TIP3   OH234574   3.788   5.233   5.205
11544TIP3    H134575   3.797   5.267   5.295
11544TIP3    H234576   3.877   5.193   5.189
11545TIP3   OH234577   5.494   4.117   6.937
11545TIP3    H134578   5.513   4.086   7.028
11545TIP3    H234579   5.583   4.111   6.896
11546TIP3   OH234580   5.430   5.666   6.430
11546TIP3    H134581   5.352   5.636   6.379
11546TIP3    H234582   5.411   5.762   6.434
11547TIP3   OH234583   6.698   5.042   5.191
11547TIP3    H134584   6.667   5.132   5.169
11547TIP3    H234585   6.622   4.989   5.164
11548TIP3   OH234586   6.690   5.045   5.582
11548TIP3    H134587   6.731   5.010   5.664
11548TIP3    H234588   6.666   4.963   5.536
11549TIP3   OH234589   5.997   4.931   5.942
11549TIP3    H134590   6.027   4.865   6.007
11549TIP3    H234591   6.073   4.990   5.939
11550TIP3   OH234592   6.942   5.344   5.260
11550TIP3    H134593   6.930   5.274   5.325
11550TIP3    H234594   6.973   5.418   5.315
11551TIP3   OH234595   5.971   5.345   5.665
11551TIP3    H134596   5.961   5.247   5.667
11551TIP3    H234597   6.068   5.352   5.658
11552TIP3   OH234598   5.678   4.550   5.449
11552TIP3    H134599   5.627   4.631   5.467
11552TIP3    H234600   5.608   4.495   5.408
11553TIP3   OH234601   5.733   4.836   5.628
11553TIP3    H134602   5.784   4.759   5.661
11553TIP3    H234603   5.793   4.874   5.563
11554TIP3   OH234604   6.594   5.805   5.277
11554TIP3    H134605   6.636   5.732   5.225
11554TIP3    H234606   6.583   5.763   5.363
11555TIP3   OH234607   6.496   5.264   5.626
11555TIP3    H134608   6.538   5.186   5.586
11555TIP3    H234609   6.577   5.313   5.650
11556TIP3   OH234610   7.539   4.583   5.618
11556TIP3    H134611   7.541   4.666   5.668
11556TIP3    H234612   7.520   4.618   5.529
11557TIP3   OH234613   6.256   4.414   5.603
11557TIP3    H134614   6.229   4.498   5.557
11557TIP3    H234615   6.183   4.355   5.572
11558TIP3   OH234616   6.944   4.512   5.244
11558TIP3    H134617   7.015   4.495   5.309
11558TIP3    H234618   6.995   4.555   5.173
11559TIP3   OH234619   5.881   4.627   5.730
11559TIP3    H134620   5.965   4.609   5.776
11559TIP3    H234621   5.891   4.568   5.652
11560TIP3   OH234622   6.323   4.826   5.523
11560TIP3    H134623   6.418   4.802   5.534
11560TIP3    H234624   6.286   4.742   5.490
11561TIP3   OH234625   7.594   4.792   5.802
11561TIP3    H134626   7.515   4.845   5.780
11561TIP3    H234627   7.614   4.828   5.890
11562TIP3   OH234628   6.241   4.408   6.056
11562TIP3    H134629   6.182   4.449   5.991
11562TIP3    H234630   6.191   4.425   6.139
11563TIP3   OH234631   6.585   5.260   5.063
11563TIP3    H134632   6.546   5.246   4.975
11563TIP3    H234633   6.541   5.343   5.090
11564TIP3   OH234634   6.348   5.186   5.848
11564TIP3    H134635   6.288   5.255   5.884
11564TIP3    H234636   6.393   5.234   5.775
11565TIP3   OH234637   7.149   4.499   5.421
11565TIP3    H134638   7.119   4.475   5.510
11565TIP3    H234639   7.192   4.583   5.444
11566TIP3   OH234640   6.121   4.522   5.833
11566TIP3    H134641   6.176   4.598   5.861
11566TIP3    H234642   6.178   4.482   5.765
11567TIP3   OH234643   6.180   5.382   5.949
11567TIP3    H134644   6.154   5.469   5.911
11567TIP3    H234645   6.100   5.365   6.004
11568TIP3   OH234646   5.572   5.070   5.185
11568TIP3    H134647   5.529   5.096   5.101
11568TIP3    H234648   5.600   5.157   5.220
11569TIP3   OH234649   7.010   5.587   5.425
11569TIP3    H134650   6.920   5.578   5.464
11569TIP3    H234651   7.002   5.673   5.380
11570TIP3   OH234652   6.587   4.114   5.774
11570TIP3    H134653   6.581   4.022   5.806
11570TIP3    H234654   6.515   4.156   5.826
11571TIP3   OH234655   6.709   5.631   5.095
11571TIP3    H134656   6.760   5.548   5.077
11571TIP3    H234657   6.771   5.697   5.056
11572TIP3   OH234658   6.854   5.416   5.008
11572TIP3    H134659   6.818   5.334   4.971
11572TIP3    H234660   6.892   5.383   5.093
11573TIP3   OH234661   7.236   5.497   5.770
11573TIP3    H134662   7.225   5.419   5.710
11573TIP3    H234663   7.220   5.571   5.708
11574TIP3   OH234664   6.525   4.889   5.026
11574TIP3    H134665   6.448   4.946   5.004
11574TIP3    H234666   6.575   4.890   4.943
11575TIP3   OH234667   6.487   4.676   4.745
11575TIP3    H134668   6.555   4.728   4.791
11575TIP3    H234669   6.545   4.614   4.695
11576TIP3   OH234670   7.434   5.136   5.608
11576TIP3    H134671   7.349   5.185   5.616
11576TIP3    H234672   7.461   5.162   5.518
11577TIP3   OH234673   6.878   4.973   4.998
11577TIP3    H134674   6.822   4.998   5.076
11577TIP3    H234675   6.961   4.948   5.045
11578TIP3   OH234676   7.089   5.010   5.928
11578TIP3    H134677   7.101   5.096   5.970
11578TIP3    H234678   7.022   5.029   5.861
11579TIP3   OH234679   6.108   4.968   5.417
11579TIP3    H134680   6.069   4.910   5.348
11579TIP3    H234681   6.187   4.918   5.445
11580TIP3   OH234682   6.239   5.382   5.562
11580TIP3    H134683   6.220   5.347   5.474
11580TIP3    H234684   6.328   5.346   5.580
11581TIP3   OH234685   6.245   4.943   5.768
11581TIP3    H134686   6.281   4.922   5.680
11581TIP3    H234687   6.288   5.029   5.788
11582TIP3   OH234688   6.769   5.582   5.547
11582TIP3    H134689   6.756   5.661   5.602
11582TIP3    H234690   6.755   5.508   5.609
11583TIP3   OH234691   6.383   5.499   6.095
11583TIP3    H134692   6.322   5.561   6.140
11583TIP3    H234693   6.319   5.446   6.044
11584TIP3   OH234694   6.715   4.833   4.826
11584TIP3    H134695   6.775   4.891   4.877
11584TIP3    H234696   6.742   4.855   4.734
11585TIP3   OH234697   6.137   5.052   6.198
11585TIP3    H134698   6.142   5.141   6.238
11585TIP3    H234699   6.042   5.033   6.210
11586TIP3   OH234700   6.461   5.509   5.100
11586TIP3    H134701   6.543   5.561   5.110
11586TIP3    H234702   6.401   5.572   5.059
11587TIP3   OH234703   6.177   5.665   6.181
11587TIP3    H134704   6.143   5.667   6.090
11587TIP3    H234705   6.096   5.644   6.233
11588TIP3   OH234706   7.233   4.071   4.874
11588TIP3    H134707   7.152   4.093   4.924
11588TIP3    H234708   7.247   4.154   4.823
11589TIP3   OH234709   5.976   4.808   5.216
11589TIP3    H134710   5.913   4.862   5.163
11589TIP3    H234711   5.923   4.730   5.233
11590TIP3   OH234712   7.032   5.439   4.422
11590TIP3    H134713   7.040   5.536   4.408
11590TIP3    H234714   7.125   5.410   4.409
11591TIP3   OH234715   5.756   5.199   6.128
11591TIP3    H134716   5.688   5.179   6.060
11591TIP3    H234717   5.792   5.110   6.148
11592TIP3   OH234718   5.610   5.390   5.762
11592TIP3    H134719   5.706   5.390   5.753
11592TIP3    H234720   5.595   5.471   5.813
11593TIP3   OH234721   7.473   5.845   5.816
11593TIP3    H134722   7.476   5.748   5.830
11593TIP3    H234723   7.389   5.867   5.863
11594TIP3   OH234724   6.581   5.627   5.952
11594TIP3    H134725   6.577   5.720   5.983
11594TIP3    H234726   6.509   5.587   6.006
11595TIP3   OH234727   6.344   5.756   4.903
11595TIP3    H134728   6.295   5.738   4.821
11595TIP3    H234729   6.309   5.843   4.929
11596TIP3   OH234730   5.780   5.605   5.287
11596TIP3    H134731   5.826   5.596   5.373
11596TIP3    H234732   5.723   5.526   5.288
11597TIP3   OH234733   6.543   5.659   4.541
11597TIP3    H134734   6.601   5.588   4.505
11597TIP3    H234735   6.577   5.669   4.632
11598TIP3   OH234736   6.595   5.707   4.810
11598TIP3    H134737   6.506   5.717   4.852
11598TIP3    H234738   6.646   5.668   4.883
11599TIP3   OH234739   7.360   4.969   6.095
11599TIP3    H134740   7.300   4.981   6.019
11599TIP3    H234741   7.372   4.873   6.093
11600TIP3   OH234742   5.961   5.381   6.113
11600TIP3    H134743   6.010   5.365   6.196
11600TIP3    H234744   5.886   5.318   6.120
11601TIP3   OH234745   6.356   4.209   5.898
11601TIP3    H134746   6.266   4.175   5.878
11601TIP3    H234747   6.331   4.286   5.954
11602TIP3   OH234748   6.898   4.314   6.087
11602TIP3    H134749   6.967   4.294   6.153
11602TIP3    H234750   6.815   4.302   6.137
11603TIP3   OH234751   7.145   4.754   6.027
11603TIP3    H134752   7.082   4.750   6.102
11603TIP3    H234753   7.115   4.835   5.980
11604TIP3   OH234754   6.794   4.876   4.571
11604TIP3    H134755   6.759   4.853   4.483
11604TIP3    H234756   6.877   4.921   4.547
11605TIP3   OH234757   6.505   4.250   4.872
11605TIP3    H134758   6.467   4.241   4.961
11605TIP3    H234759   6.467   4.170   4.831
11606TIP3   OH234760   6.287   4.720   5.916
11606TIP3    H134761   6.241   4.742   6.000
11606TIP3    H234762   6.274   4.803   5.865
11607TIP3   OH234763   6.177   4.603   5.430
11607TIP3    H134764   6.083   4.582   5.445
11607TIP3    H234765   6.189   4.573   5.338
11608TIP3   OH234766   6.665   4.693   5.161
11608TIP3    H134767   6.612   4.762   5.117
11608TIP3    H234768   6.717   4.657   5.086
11609TIP3   OH234769   6.839   4.972   6.252
11609TIP3    H134770   6.819   4.895   6.310
11609TIP3    H234771   6.936   4.975   6.261
11610TIP3   OH234772   6.803   4.724   5.397
11610TIP3    H134773   6.749   4.733   5.316
11610TIP3    H234774   6.855   4.645   5.372
11611TIP3   OH234775   6.111   4.748   6.128
11611TIP3    H134776   6.140   4.813   6.194
11611TIP3    H234777   6.099   4.668   6.183
11612TIP3   OH234778   6.164   4.228   4.840
11612TIP3    H134779   6.146   4.223   4.936
11612TIP3    H234780   6.086   4.278   4.809
11613TIP3   OH234781   5.701   4.271   5.710
11613TIP3    H134782   5.779   4.300   5.761
11613TIP3    H234783   5.738   4.236   5.627
11614TIP3   OH234784   5.675   4.254   5.229
11614TIP3    H134785   5.715   4.292   5.148
11614TIP3    H234786   5.610   4.324   5.250
11615TIP3   OH234787   6.823   4.941   5.799
11615TIP3    H134788   6.891   4.878   5.769
11615TIP3    H234789   6.798   4.901   5.885
11616TIP3   OH234790   5.935   4.480   5.497
11616TIP3    H134791   5.841   4.503   5.475
11616TIP3    H234792   5.938   4.387   5.472
11617TIP3   OH234793   6.228   4.495   5.177
11617TIP3    H134794   6.297   4.549   5.134
11617TIP3    H234795   6.156   4.502   5.110
11618TIP3   OH234796   6.054   4.506   4.974
11618TIP3    H134797   5.981   4.463   4.925
11618TIP3    H234798   6.104   4.545   4.899
11619TIP3   OH234799   7.165   6.193   5.914
11619TIP3    H134800   7.159   6.213   5.819
11619TIP3    H234801   7.245   6.243   5.939
11620TIP3   OH234802   6.122   5.301   6.335
11620TIP3    H134803   6.201   5.333   6.383
11620TIP3    H234804   6.057   5.302   6.408
11621TIP3   OH234805   6.586   4.742   5.581
11621TIP3    H134806   6.669   4.730   5.531
11621TIP3    H234807   6.609   4.706   5.668
11622TIP3   OH234808   6.124   4.224   5.461
11622TIP3    H134809   6.081   4.154   5.515
11622TIP3    H234810   6.119   4.186   5.372
11623TIP3   OH234811   6.559   4.650   5.889
11623TIP3    H134812   6.473   4.694   5.898
11623TIP3    H234813   6.621   4.712   5.933
11624TIP3   OH234814   6.298   5.045   4.974
11624TIP3    H134815   6.225   4.980   4.963
11624TIP3    H234816   6.279   5.078   5.066
11625TIP3   OH234817   7.197   5.282   5.603
11625TIP3    H134818   7.223   5.330   5.521
11625TIP3    H234819   7.115   5.237   5.575
11626TIP3   OH234820   6.759   4.352   4.844
11626TIP3    H134821   6.661   4.336   4.849
11626TIP3    H234822   6.768   4.447   4.863
11627TIP3   OH234823   6.695   5.361   5.974
11627TIP3    H134824   6.726   5.345   6.063
11627TIP3    H234825   6.659   5.451   5.979
11628TIP3   OH234826   6.824   4.602   4.941
11628TIP3    H134827   6.920   4.609   4.960
11628TIP3    H234828   6.806   4.684   4.892
11629TIP3   OH234829   5.990   5.065   5.651
11629TIP3    H134830   6.030   5.038   5.566
11629TIP3    H234831   6.037   5.007   5.714
11630TIP3   OH234832   6.445   5.194   4.799
11630TIP3    H134833   6.396   5.280   4.803
11630TIP3    H234834   6.390   5.139   4.859
11631TIP3   OH234835   5.874   4.984   6.264
11631TIP3    H134836   5.890   4.970   6.360
11631TIP3    H234837   5.803   4.920   6.247
11632TIP3   OH234838   6.599   5.103   6.285
11632TIP3    H134839   6.541   5.045   6.234
11632TIP3    H234840   6.687   5.067   6.260
11633TIP3   OH234841   6.857   5.623   5.872
11633TIP3    H134842   6.761   5.621   5.883
11633TIP3    H234843   6.885   5.675   5.950
11634TIP3   OH234844   7.266   4.695   4.777
11634TIP3    H134845   7.204   4.651   4.715
11634TIP3    H234846   7.263   4.785   4.738
11635TIP3   OH234847   7.486   5.557   5.855
11635TIP3    H134848   7.389   5.547   5.848
11635TIP3    H234849   7.513   5.525   5.766
11636TIP3   OH234850   6.970   5.514   4.687
11636TIP3    H134851   6.943   5.445   4.749
11636TIP3    H234852   6.982   5.466   4.604
11637TIP3   OH234853   6.966   5.140   5.518
11637TIP3    H134854   6.872   5.116   5.529
11637TIP3    H234855   7.002   5.056   5.483
11638TIP3   OH234856   6.094   5.371   5.277
11638TIP3    H134857   6.092   5.453   5.223
11638TIP3    H234858   5.999   5.356   5.289
11639TIP3   OH234859   5.658   4.674   4.981
11639TIP3    H134860   5.701   4.759   5.002
11639TIP3    H234861   5.579   4.679   5.040
11640TIP3   OH234862   6.224   5.134   5.219
11640TIP3    H134863   6.193   5.225   5.237
11640TIP3    H234864   6.189   5.086   5.297
11641TIP3   OH234865   6.363   5.713   5.745
11641TIP3    H134866   6.404   5.786   5.694
11641TIP3    H234867   6.440   5.677   5.792
11642TIP3   OH234868   6.012   5.608   5.129
11642TIP3    H134869   5.926   5.617   5.175
11642TIP3    H234870   6.044   5.701   5.132
11643TIP3   OH234871   6.748   5.351   5.705
11643TIP3    H134872   6.738   5.347   5.803
11643TIP3    H234873   6.827   5.297   5.691
11644TIP3   OH234874   6.727   5.243   4.588
11644TIP3    H134875   6.780   5.218   4.667
11644TIP3    H234876   6.639   5.214   4.616
11645TIP3   OH234877   6.997   5.881   5.756
11645TIP3    H134878   6.918   5.825   5.749
11645TIP3    H234879   6.982   5.944   5.683
11646TIP3   OH234880   7.063   5.715   4.406
11646TIP3    H134881   7.102   5.790   4.358
11646TIP3    H234882   6.983   5.759   4.441
11647TIP3   OH234883   6.082   4.490   6.271
11647TIP3    H134884   5.986   4.495   6.283
11647TIP3    H234885   6.109   4.434   6.345
11648TIP3   OH234886   6.887   5.174   4.803
11648TIP3    H134887   6.877   5.108   4.875
11648TIP3    H234888   6.984   5.171   4.791
11649TIP3   OH234889   5.802   5.576   5.903
11649TIP3    H134890   5.855   5.504   5.941
11649TIP3    H234891   5.827   5.651   5.958
11650TIP3   OH234892   6.090   5.221   4.587
11650TIP3    H134893   6.103   5.128   4.560
11650TIP3    H234894   6.070   5.211   4.683
11651TIP3   OH234895   6.035   5.226   4.859
11651TIP3    H134896   6.108   5.201   4.917
11651TIP3    H234897   6.037   5.325   4.867
11652TIP3   OH234898   5.771   4.920   5.065
11652TIP3    H134899   5.703   4.964   5.121
11652TIP3    H234900   5.783   4.988   4.996
11653TIP3   OH234901   6.902   4.583   5.988
11653TIP3    H134902   6.987   4.599   5.944
11653TIP3    H234903   6.908   4.489   6.014
11654TIP3   OH234904   6.801   4.309   5.119
11654TIP3    H134905   6.793   4.331   5.025
11654TIP3    H234906   6.846   4.389   5.156
11655TIP3   OH234907   6.301   5.423   4.808
11655TIP3    H134908   6.214   5.449   4.844
11655TIP3    H234909   6.317   5.498   4.748
11656TIP3   OH234910   6.754   4.806   6.028
11656TIP3    H134911   6.787   4.850   6.108
11656TIP3    H234912   6.810   4.724   6.026
11657TIP3   OH234913   6.631   4.233   5.316
11657TIP3    H134914   6.677   4.264   5.398
11657TIP3    H234915   6.692   4.268   5.248
11658TIP3   OH234916   6.046   5.499   4.877
11658TIP3    H134917   6.016   5.569   4.815
11658TIP3    H234918   6.030   5.542   4.964
11659TIP3   OH234919   6.143   4.210   5.122
11659TIP3    H134920   6.146   4.304   5.144
11659TIP3    H234921   6.239   4.189   5.125
11660TIP3   OH234922   7.403   4.693   6.008
11660TIP3    H134923   7.305   4.699   6.018
11660TIP3    H234924   7.409   4.700   5.912
11661TIP3   OH234925   7.047   4.883   5.415
11661TIP3    H134926   6.963   4.833   5.421
11661TIP3    H234927   7.096   4.839   5.489
11662TIP3   OH234928   5.764   5.124   4.869
11662TIP3    H134929   5.831   5.194   4.877
11662TIP3    H234930   5.807   5.068   4.801
11663TIP3   OH234931   5.707   4.404   5.004
11663TIP3    H134932   5.704   4.502   5.000
11663TIP3    H234933   5.629   4.380   4.953
11664TIP3   OH234934   7.019   5.858   5.347
11664TIP3    H134935   6.976   5.905   5.271
11664TIP3    H234936   7.113   5.877   5.327
11665TIP3   OH234937   6.097   4.121   5.872
11665TIP3    H134938   6.061   4.087   5.787
11665TIP3    H234939   6.085   4.045   5.932
11666TIP3   OH234940   5.629   5.340   5.253
11666TIP3    H134941   5.566   5.372   5.318
11666TIP3    H234942   5.597   5.384   5.171
11667TIP3   OH234943   5.793   5.889   6.327
11667TIP3    H134944   5.879   5.889   6.374
11667TIP3    H234945   5.772   5.794   6.325
11668TIP3   OH234946   6.270   5.844   6.374
11668TIP3    H134947   6.366   5.829   6.376
11668TIP3    H234948   6.244   5.785   6.301
11669TIP3   OH234949   6.252   5.424   4.497
11669TIP3    H134950   6.198   5.352   4.537
11669TIP3    H234951   6.328   5.373   4.464
11670TIP3   OH234952   6.909   5.758   6.108
11670TIP3    H134953   6.904   5.686   6.175
11670TIP3    H234954   6.988   5.807   6.136
11671TIP3   OH234955   6.689   5.463   4.413
11671TIP3    H134956   6.729   5.397   4.473
11671TIP3    H234957   6.748   5.460   4.335
11672TIP3   OH234958   5.921   5.292   6.527
11672TIP3    H134959   5.937   5.196   6.532
11672TIP3    H234960   5.833   5.295   6.483
11673TIP3   OH234961   5.899   4.939   4.721
11673TIP3    H134962   5.957   4.910   4.795
11673TIP3    H234963   5.966   4.944   4.649
11674TIP3   OH234964   6.528   5.378   6.301
11674TIP3    H134965   6.487   5.397   6.214
11674TIP3    H234966   6.559   5.286   6.290
11675TIP3   OH234967   6.414   5.140   4.530
11675TIP3    H134968   6.414   5.153   4.627
11675TIP3    H234969   6.413   5.042   4.525
11676TIP3   OH234970   7.020   5.389   5.908
11676TIP3    H134971   7.097   5.429   5.863
11676TIP3    H234972   6.952   5.457   5.892
11677TIP3   OH234973   6.040   5.028   6.512
11677TIP3    H134974   6.117   4.977   6.484
11677TIP3    H234975   6.068   5.060   6.600
11678TIP3   OH234976   6.105   4.847   4.941
11678TIP3    H134977   6.075   4.806   5.024
11678TIP3    H234978   6.141   4.771   4.891
11679TIP3   OH234979   6.373   4.907   6.170
11679TIP3    H134980   6.297   4.969   6.173
11679TIP3    H234981   6.425   4.943   6.094
11680TIP3   OH234982   6.209   4.638   4.787
11680TIP3    H134983   6.180   4.644   4.693
11680TIP3    H234984   6.306   4.644   4.776
11681TIP3   OH234985   6.897   5.313   6.304
11681TIP3    H134986   6.970   5.281   6.248
11681TIP3    H234987   6.890   5.242   6.370
11682TIP3   OH234988   7.027   4.969   4.449
11682TIP3    H134989   7.006   4.924   4.365
11682TIP3    H234990   6.995   5.060   4.426
11683TIP3   OH234991   6.496   4.698   6.297
11683TIP3    H134992   6.500   4.620   6.239
11683TIP3    H234993   6.454   4.766   6.239
11684TIP3   OH234994   6.501   4.483   6.107
11684TIP3    H134995   6.531   4.529   6.026
11684TIP3    H234996   6.407   4.464   6.086
11685TIP3   OH234997   6.523   5.021   5.980
11685TIP3    H134998   6.608   5.025   5.934
11685TIP3    H234999   6.470   5.088   5.931
11686TIP3   OH235000   7.118   4.991   6.364
11686TIP3    H135001   7.145   4.899   6.350
11686TIP3    H235002   7.184   5.038   6.310
11687TIP3   OH235003   7.147   5.250   6.103
11687TIP3    H135004   7.092   5.301   6.039
11687TIP3    H235005   7.236   5.262   6.062
11688TIP3   OH235006   6.378   4.806   6.531
11688TIP3    H135007   6.309   4.739   6.545
11688TIP3    H235008   6.411   4.782   6.442
11689TIP3   OH235009   6.634   4.248   6.173
11689TIP3    H135010   6.586   4.331   6.152
11689TIP3    H235011   6.564   4.181   6.164
11690TIP3   OH235012   6.755   4.751   6.390
11690TIP3    H135013   6.739   4.737   6.485
11690TIP3    H235014   6.666   4.728   6.355
11691TIP3   OH235015   7.006   4.729   6.262
11691TIP3    H135016   6.926   4.709   6.313
11691TIP3    H235017   7.077   4.681   6.309
11692TIP3   OH235018   7.235   4.643   6.400
11692TIP3    H135019   7.244   4.547   6.415
11692TIP3    H235020   7.228   4.679   6.490
11693TIP3   OH235021   6.216   4.587   6.584
11693TIP3    H135022   6.222   4.496   6.549
11693TIP3    H235023   6.253   4.575   6.673
11694TIP3   OH235024   6.726   4.257   6.432
11694TIP3    H135025   6.794   4.186   6.425
11694TIP3    H235026   6.688   4.253   6.342
11695TIP3   OH235027   6.792   4.471   6.591
11695TIP3    H135028   6.771   4.401   6.526
11695TIP3    H235029   6.715   4.531   6.583
11696TIP3   OH235030   6.017   5.701   4.689
11696TIP3    H135031   6.112   5.695   4.669
11696TIP3    H235032   5.987   5.753   4.612
11697TIP3   OH235033   5.495   5.084   4.904
11697TIP3    H135034   5.590   5.105   4.891
11697TIP3    H235035   5.488   4.996   4.862
11698TIP3   OH235036   5.413   5.694   5.319
11698TIP3    H135037   5.344   5.635   5.281
11698TIP3    H235038   5.455   5.634   5.384
11699TIP3   OH235039   5.547   5.541   5.504
11699TIP3    H135040   5.531   5.472   5.571
11699TIP3    H235041   5.598   5.605   5.558
11700TIP3   OH235042   7.273   5.947   5.306
11700TIP3    H135043   7.300   5.978   5.395
11700TIP3    H235044   7.339   5.988   5.249
11701TIP3   OH235045   7.301   5.966   5.589
11701TIP3    H135046   7.257   5.879   5.585
11701TIP3    H235047   7.377   5.943   5.645
11702TIP3   OH235048   7.351   5.649   6.164
11702TIP3    H135049   7.278   5.656   6.228
11702TIP3    H235050   7.391   5.738   6.169
11703TIP3   OH235051   7.166   5.155   4.780
11703TIP3    H135052   7.234   5.220   4.752
11703TIP3    H235053   7.208   5.117   4.860
11704TIP3   OH235054   7.290   5.022   4.986
11704TIP3    H135055   7.225   4.982   5.049
11704TIP3    H235056   7.357   5.059   5.047
11705TIP3   OH235057   7.346   5.417   5.414
11705TIP3    H135058   7.403   5.350   5.369
11705TIP3    H235059   7.342   5.488   5.347
11706TIP3   OH235060   7.176   5.717   5.609
11706TIP3    H135061   7.104   5.756   5.661
11706TIP3    H235062   7.128   5.669   5.539
11707TIP3   OH235063   7.230   4.932   4.630
11707TIP3    H135064   7.157   4.935   4.563
11707TIP3    H235065   7.203   5.008   4.686
11708TIP3   OH235066   7.100   4.604   4.582
11708TIP3    H135067   7.054   4.641   4.506
11708TIP3    H235068   7.078   4.509   4.573
11709TIP3   OH235069   7.103   4.882   5.140
11709TIP3    H135070   7.114   4.786   5.130
11709TIP3    H235071   7.093   4.890   5.238
11710TIP3   OH235072   5.731   4.951   5.880
11710TIP3    H135073   5.728   4.921   5.787
11710TIP3    H235074   5.829   4.954   5.894
11711TIP3   OH235075   7.393   5.307   5.991
11711TIP3    H135076   7.462   5.237   5.982
11711TIP3    H235077   7.419   5.370   5.922
11712TIP3   OH235078   7.575   5.110   6.010
11712TIP3    H135079   7.500   5.055   6.041
11712TIP3    H235080   7.649   5.047   6.021
11713TIP3   OH235081   7.044   4.338   4.566
11713TIP3    H135082   7.118   4.307   4.623
11713TIP3    H235083   6.971   4.279   4.591
11714TIP3   OH235084   7.101   4.598   5.022
11714TIP3    H135085   7.143   4.510   5.038
11714TIP3    H235086   7.160   4.632   4.952
11715TIP3   OH235087   7.361   4.934   5.793
11715TIP3    H135088   7.274   4.896   5.771
11715TIP3    H235089   7.374   5.000   5.721
11716TIP3   OH235090   5.949   4.639   6.551
11716TIP3    H135091   6.047   4.633   6.555
11716TIP3    H235092   5.925   4.553   6.591
11717TIP3   OH235093   7.786   4.508   6.308
11717TIP3    H135094   7.844   4.443   6.263
11717TIP3    H235095   7.752   4.561   6.232
11718TIP3   OH235096   7.212   4.348   5.062
11718TIP3    H135097   7.260   4.334   5.146
11718TIP3    H235098   7.152   4.271   5.061
11719TIP3   OH235099   5.914   4.332   5.874
11719TIP3    H135100   5.975   4.257   5.890
11719TIP3    H235101   5.976   4.407   5.871
11720TIP3   OH235102   5.713   4.604   5.956
11720TIP3    H135103   5.762   4.603   5.871
11720TIP3    H235104   5.736   4.692   5.990
11721TIP3   OH235105   7.652   4.643   6.115
11721TIP3    H135106   7.564   4.684   6.123
11721TIP3    H235107   7.628   4.571   6.053
11722TIP3   OH235108   7.288   4.280   4.695
11722TIP3    H135109   7.330   4.210   4.641
11722TIP3    H235110   7.355   4.351   4.693
11723TIP3   OH235111   5.699   4.116   5.460
11723TIP3    H135112   5.606   4.105   5.485
11723TIP3    H235113   5.692   4.170   5.379
11724TIP3   OH235114   6.855   5.814   4.962
11724TIP3    H135115   6.909   5.802   4.881
11724TIP3    H235116   6.908   5.879   5.011
11725TIP3   OH235117   5.917   4.188   6.269
11725TIP3    H135118   5.867   4.183   6.352
11725TIP3    H235119   5.850   4.228   6.210
11726TIP3   OH235120   5.957   5.616   6.346
11726TIP3    H135121   5.864   5.593   6.329
11726TIP3    H235122   5.965   5.601   6.441
11727TIP3   OH235123   6.138   5.653   5.896
11727TIP3    H135124   6.088   5.728   5.857
11727TIP3    H235125   6.223   5.667   5.849
11728TIP3   OH235126   6.577   5.894   6.032
11728TIP3    H135127   6.620   5.894   6.121
11728TIP3    H235128   6.643   5.945   5.980
11729TIP3   OH235129   6.756   6.047   5.893
11729TIP3    H135130   6.827   5.997   5.850
11729TIP3    H235131   6.809   6.105   5.952
11730TIP3   OH235132   7.560   4.403   5.997
11730TIP3    H135133   7.469   4.397   5.965
11730TIP3    H235134   7.593   4.312   5.981
11731TIP3   OH235135   5.812   5.905   5.921
11731TIP3    H135136   5.722   5.936   5.896
11731TIP3    H235137   5.823   5.953   6.004
11732TIP3   OH235138   6.047   5.886   5.778
11732TIP3    H135139   5.960   5.898   5.822
11732TIP3    H235140   6.028   5.919   5.688
11733TIP3   OH235141   6.473   5.913   5.575
11733TIP3    H135142   6.403   5.931   5.510
11733TIP3    H235143   6.485   6.001   5.617
11734TIP3   OH235144   6.742   5.853   5.629
11734TIP3    H135145   6.648   5.870   5.608
11734TIP3    H235146   6.785   5.926   5.582
11735TIP3   OH235147   6.949   6.044   5.540
11735TIP3    H135148   6.934   6.128   5.492
11735TIP3    H235149   6.975   5.984   5.467
11736TIP3   OH235150   5.722   5.700   5.661
11736TIP3    H135151   5.748   5.672   5.752
11736TIP3    H235152   5.796   5.657   5.611
11737TIP3   OH235153   5.918   5.573   5.521
11737TIP3    H135154   5.933   5.489   5.571
11737TIP3    H235155   6.009   5.609   5.518
11738TIP3   OH235156   6.185   5.666   5.526
11738TIP3    H135157   6.215   5.573   5.515
11738TIP3    H235158   6.231   5.688   5.609
11739TIP3   OH235159   6.724   4.292   5.566
11739TIP3    H135160   6.714   4.246   5.651
11739TIP3    H235161   6.821   4.294   5.556
11740TIP3   OH235162   7.278   4.199   5.512
11740TIP3    H135163   7.319   4.254   5.442
11740TIP3    H235164   7.187   4.233   5.513
11741TIP3   OH235165   7.378   4.299   5.278
11741TIP3    H135166   7.454   4.251   5.238
11741TIP3    H235167   7.409   4.392   5.266
11742TIP3   OH235168   6.007   4.031   5.622
11742TIP3    H135169   5.913   4.000   5.625
11742TIP3    H235170   6.053   3.945   5.621
11743TIP3   OH235171   5.803   3.903   5.280
11743TIP3    H135172   5.825   3.957   5.202
11743TIP3    H235173   5.767   3.969   5.342
11744TIP3   OH235174   6.462   4.144   5.528
11744TIP3    H135175   6.525   4.121   5.457
11744TIP3    H235176   6.507   4.105   5.607
11745TIP3   OH235177   6.991   4.213   5.497
11745TIP3    H135178   7.009   4.177   5.409
11745TIP3    H235179   6.977   4.131   5.550
11746TIP3   OH235180   7.028   4.134   5.053
11746TIP3    H135181   6.942   4.178   5.066
11746TIP3    H235182   7.013   4.049   5.100
11747TIP3   OH235183   5.511   5.475   5.052
11747TIP3    H135184   5.424   5.443   5.019
11747TIP3    H235185   5.502   5.570   5.029
11748TIP3   OH235186   5.911   4.057   5.039
11748TIP3    H135187   5.957   3.994   4.980
11748TIP3    H235188   5.986   4.109   5.074
11749TIP3   OH235189   6.419   4.241   5.138
11749TIP3    H135190   6.491   4.208   5.195
11749TIP3    H235191   6.430   4.336   5.149
11750TIP3   OH235192   6.284   5.658   4.637
11750TIP3    H135193   6.371   5.681   4.600
11750TIP3    H235194   6.261   5.583   4.577
11751TIP3   OH235195   7.004   5.781   4.730
11751TIP3    H135196   6.996   5.683   4.719
11751TIP3    H235197   6.957   5.812   4.650
11752TIP3   OH235198   6.214   4.311   6.517
11752TIP3    H135199   6.180   4.241   6.575
11752TIP3    H235200   6.308   4.312   6.545
11753TIP3   OH235201   6.464   4.310   6.636
11753TIP3    H135202   6.549   4.286   6.597
11753TIP3    H235203   6.452   4.239   6.703
11754TIP3   OH235204   5.586   5.496   4.691
11754TIP3    H135205   5.586   5.520   4.785
11754TIP3    H235206   5.675   5.454   4.679
11755TIP3   OH235207   7.291   4.371   6.424
11755TIP3    H135208   7.311   4.341   6.515
11755TIP3    H235209   7.379   4.368   6.382
11756TIP3   OH235210   7.225   5.923   5.918
11756TIP3    H135211   7.148   5.891   5.867
11756TIP3    H235212   7.205   6.018   5.920
11757TIP3   OH235213   8.495   5.299   4.678
11757TIP3    H135214   8.466   5.391   4.662
11757TIP3    H235215   8.415   5.250   4.653
11758TIP3   OH235216   8.493   5.291   5.066
11758TIP3    H135217   8.524   5.282   5.158
11758TIP3    H235218   8.448   5.206   5.053
11759TIP3   OH235219   7.790   5.190   5.428
11759TIP3    H135220   7.816   5.118   5.490
11759TIP3    H235221   7.868   5.247   5.434
11760TIP3   OH235222   8.741   5.593   4.748
11760TIP3    H135223   8.721   5.532   4.821
11760TIP3    H235224   8.766   5.673   4.797
11761TIP3   OH235225   7.765   5.601   5.151
11761TIP3    H135226   7.756   5.504   5.152
11761TIP3    H235227   7.862   5.609   5.150
11762TIP3   OH235228   7.472   4.804   4.933
11762TIP3    H135229   7.424   4.886   4.954
11762TIP3    H235230   7.400   4.750   4.895
11763TIP3   OH235231   7.528   5.090   5.111
11763TIP3    H135232   7.577   5.014   5.148
11763TIP3    H235233   7.592   5.126   5.048
11764TIP3   OH235234   8.387   6.059   4.760
11764TIP3    H135235   8.433   5.986   4.714
11764TIP3    H235236   8.383   6.026   4.851
11765TIP3   OH235237   8.292   5.523   5.110
11765TIP3    H135238   8.331   5.445   5.068
11765TIP3    H235239   8.375   5.568   5.138
11766TIP3   OH235240   8.710   5.045   5.137
11766TIP3    H135241   8.721   4.952   5.168
11766TIP3    H235242   8.657   5.029   5.057
11767TIP3   OH235243   8.044   4.682   5.109
11767TIP3    H135244   8.024   4.755   5.047
11767TIP3    H235245   7.994   4.609   5.067
11768TIP3   OH235246   8.779   4.763   4.716
11768TIP3    H135247   8.785   4.744   4.811
11768TIP3    H235248   8.759   4.858   4.716
11769TIP3   OH235249   7.678   4.888   5.214
11769TIP3    H135250   7.757   4.867   5.267
11769TIP3    H235251   7.692   4.829   5.137
11770TIP3   OH235252   8.119   5.082   5.007
11770TIP3    H135253   8.211   5.056   5.024
11770TIP3    H235254   8.078   4.998   4.978
11771TIP3   OH235255   8.038   4.666   5.544
11771TIP3    H135256   7.979   4.705   5.476
11771TIP3    H235257   7.985   4.685   5.625
11772TIP3   OH235258   8.397   5.528   4.540
11772TIP3    H135259   8.345   5.500   4.463
11772TIP3    H235260   8.343   5.604   4.571
11773TIP3   OH235261   8.145   5.442   5.336
11773TIP3    H135262   8.083   5.509   5.374
11773TIP3    H235263   8.189   5.493   5.265
11774TIP3   OH235264   7.911   4.783   5.328
11774TIP3    H135265   7.972   4.857   5.351
11774TIP3    H235266   7.961   4.742   5.254
11775TIP3   OH235267   7.973   5.637   5.434
11775TIP3    H135268   7.946   5.725   5.399
11775TIP3    H235269   7.895   5.618   5.491
11776TIP3   OH235270   7.367   5.327   4.672
11776TIP3    H135271   7.325   5.355   4.588
11776TIP3    H235272   7.398   5.413   4.708
11777TIP3   OH235273   8.808   5.841   4.905
11777TIP3    H135274   8.722   5.828   4.953
11777TIP3    H235275   8.794   5.931   4.870
11778TIP3   OH235276   8.384   4.379   5.260
11778TIP3    H135277   8.366   4.284   5.278
11778TIP3    H235278   8.307   4.420   5.306
11779TIP3   OH235279   8.511   5.883   4.584
11779TIP3    H135280   8.563   5.804   4.562
11779TIP3    H235281   8.569   5.952   4.544
11780TIP3   OH235282   8.646   5.650   4.491
11780TIP3    H135283   8.563   5.599   4.502
11780TIP3    H235284   8.692   5.629   4.575
11781TIP3   OH235285   9.035   5.750   5.265
11781TIP3    H135286   9.038   5.673   5.205
11781TIP3    H235287   9.033   5.824   5.201
11782TIP3   OH235288   8.323   5.146   4.516
11782TIP3    H135289   8.240   5.195   4.499
11782TIP3    H235290   8.363   5.146   4.428
11783TIP3   OH235291   8.282   4.933   4.229
11783TIP3    H135292   8.349   4.987   4.274
11783TIP3    H235293   8.340   4.871   4.180
11784TIP3   OH235294   8.668   5.227   4.482
11784TIP3    H135295   8.612   5.257   4.558
11784TIP3    H235296   8.740   5.181   4.530
11785TIP3   OH235297   8.892   5.255   5.387
11785TIP3    H135298   8.896   5.328   5.452
11785TIP3    H235299   8.803   5.268   5.352
11786TIP3   OH235300   7.907   5.227   4.901
11786TIP3    H135301   7.866   5.168   4.834
11786TIP3    H235302   7.983   5.173   4.931
11787TIP3   OH235303   8.037   5.643   5.048
11787TIP3    H135304   8.016   5.600   4.964
11787TIP3    H235305   8.126   5.607   5.068
11788TIP3   OH235306   8.041   5.200   5.254
11788TIP3    H135307   8.076   5.179   5.165
11788TIP3    H235308   8.085   5.285   5.276
11789TIP3   OH235309   8.573   5.834   5.035
11789TIP3    H135310   8.553   5.918   5.081
11789TIP3    H235311   8.550   5.766   5.101
11790TIP3   OH235312   8.174   5.770   5.569
11790TIP3    H135313   8.109   5.823   5.620
11790TIP3    H235314   8.114   5.708   5.524
11791TIP3   OH235315   8.511   5.082   4.309
11791TIP3    H135316   8.567   5.146   4.359
11791TIP3    H235317   8.538   5.104   4.216
11792TIP3   OH235318   7.930   5.312   5.679
11792TIP3    H135319   7.936   5.399   5.724
11792TIP3    H235320   7.837   5.290   5.696
11793TIP3   OH235321   8.260   5.763   4.587
11793TIP3    H135322   8.338   5.820   4.600
11793TIP3    H235323   8.197   5.823   4.546
11794TIP3   OH235324   7.969   5.927   5.667
11794TIP3    H135325   7.935   5.923   5.575
11794TIP3    H235326   7.890   5.896   5.718
11795TIP3   OH235327   7.774   5.070   4.702
11795TIP3    H135328   7.703   5.114   4.649
11795TIP3    H235329   7.734   4.985   4.722
11796TIP3   OH235330   8.823   5.700   3.910
11796TIP3    H135331   8.816   5.794   3.888
11796TIP3    H235332   8.908   5.677   3.870
11797TIP3   OH235333   7.551   5.455   5.613
11797TIP3    H135334   7.485   5.430   5.546
11797TIP3    H235335   7.589   5.368   5.640
11798TIP3   OH235336   7.407   5.649   5.242
11798TIP3    H135337   7.503   5.639   5.236
11798TIP3    H235338   7.399   5.725   5.302
11799TIP3   OH235339   8.369   5.901   5.433
11799TIP3    H135340   8.410   5.947   5.508
11799TIP3    H235341   8.298   5.849   5.478
11800TIP3   OH235342   8.139   6.012   4.390
11800TIP3    H135343   8.093   5.992   4.306
11800TIP3    H235344   8.105   6.100   4.414
11801TIP3   OH235345   7.576   5.861   4.774
11801TIP3    H135346   7.622   5.853   4.860
11801TIP3    H235347   7.524   5.779   4.773
11802TIP3   OH235348   8.338   5.918   4.029
11802TIP3    H135349   8.396   5.848   3.991
11802TIP3    H235350   8.374   5.926   4.120
11803TIP3   OH235351   8.390   5.964   4.299
11803TIP3    H135352   8.301   5.972   4.341
11803TIP3    H235353   8.441   5.924   4.371
11804TIP3   OH235354   7.755   5.639   5.598
11804TIP3    H135355   7.804   5.623   5.682
11804TIP3    H235356   7.682   5.574   5.606
11805TIP3   OH235357   8.156   4.462   5.391
11805TIP3    H135358   8.067   4.431   5.363
11805TIP3    H235359   8.129   4.544   5.437
11806TIP3   OH235360   8.658   4.591   5.569
11806TIP3    H135361   8.722   4.553   5.633
11806TIP3    H235362   8.572   4.572   5.613
11807TIP3   OH235363   8.968   5.008   5.508
11807TIP3    H135364   8.908   5.009   5.586
11807TIP3    H235365   8.941   5.091   5.463
11808TIP3   OH235366   8.591   5.133   4.056
11808TIP3    H135367   8.562   5.106   3.966
11808TIP3    H235368   8.646   5.209   4.035
11809TIP3   OH235369   8.316   4.504   4.360
11809TIP3    H135370   8.277   4.505   4.450
11809TIP3    H235371   8.269   4.426   4.324
11810TIP3   OH235372   8.088   4.978   5.404
11810TIP3    H135373   8.041   4.999   5.487
11810TIP3    H235374   8.072   5.060   5.352
11811TIP3   OH235375   7.972   4.864   4.919
11811TIP3    H135376   7.879   4.837   4.939
11811TIP3    H235377   7.983   4.821   4.832
11812TIP3   OH235378   8.466   4.949   4.646
11812TIP3    H135379   8.409   5.020   4.610
11812TIP3    H235380   8.513   4.920   4.566
11813TIP3   OH235381   8.630   5.218   5.713
11813TIP3    H135382   8.619   5.166   5.794
11813TIP3    H235383   8.723   5.249   5.721
11814TIP3   OH235384   8.620   4.976   4.877
11814TIP3    H135385   8.558   5.005   4.806
11814TIP3    H235386   8.599   4.882   4.879
11815TIP3   OH235387   7.904   5.005   5.611
11815TIP3    H135388   7.945   5.066   5.675
11815TIP3    H235389   7.890   4.925   5.665
11816TIP3   OH235390   7.960   4.486   4.324
11816TIP3    H135391   7.949   4.483   4.421
11816TIP3    H235392   7.881   4.536   4.298
11817TIP3   OH235393   7.497   4.524   5.188
11817TIP3    H135394   7.569   4.558   5.246
11817TIP3    H235395   7.547   4.493   5.111
11818TIP3   OH235396   7.466   4.507   4.713
11818TIP3    H135397   7.512   4.546   4.636
11818TIP3    H235398   7.406   4.581   4.735
11819TIP3   OH235399   8.611   5.230   5.308
11819TIP3    H135400   8.654   5.163   5.251
11819TIP3    H235401   8.589   5.174   5.386
11820TIP3   OH235402   8.296   4.710   4.981
11820TIP3    H135403   8.218   4.695   5.038
11820TIP3    H235404   8.367   4.664   5.029
11821TIP3   OH235405   7.735   4.743   4.985
11821TIP3    H135406   7.640   4.750   4.960
11821TIP3    H235407   7.756   4.650   4.967
11822TIP3   OH235408   7.998   4.734   4.679
11822TIP3    H135409   8.092   4.751   4.658
11822TIP3    H235410   7.951   4.758   4.596
11823TIP3   OH235411   8.714   4.777   5.170
11823TIP3    H135412   8.704   4.785   5.267
11823TIP3    H235413   8.795   4.722   5.164
11824TIP3   OH235414   7.847   4.771   4.455
11824TIP3    H135415   7.775   4.725   4.407
11824TIP3    H235416   7.898   4.808   4.380
11825TIP3   OH235417   7.916   5.557   5.819
11825TIP3    H135418   8.000   5.561   5.867
11825TIP3    H235419   7.853   5.558   5.894
11826TIP3   OH235420   8.385   5.017   5.088
11826TIP3    H135421   8.438   4.951   5.043
11826TIP3    H235422   8.378   4.979   5.178
11827TIP3   OH235423   7.901   4.499   4.961
11827TIP3    H135424   7.865   4.422   5.010
11827TIP3    H235425   7.949   4.456   4.889
11828TIP3   OH235426   8.357   4.916   5.364
11828TIP3    H135427   8.267   4.951   5.383
11828TIP3    H235428   8.415   4.975   5.417
11829TIP3   OH235429   8.096   5.298   4.464
11829TIP3    H135430   8.022   5.234   4.451
11829TIP3    H235431   8.074   5.333   4.554
11830TIP3   OH235432   8.994   5.552   5.079
11830TIP3    H135433   8.998   5.554   4.984
11830TIP3    H235434   8.910   5.505   5.093
11831TIP3   OH235435   8.564   4.608   4.324
11831TIP3    H135436   8.469   4.581   4.333
11831TIP3    H235437   8.559   4.705   4.335
11832TIP3   OH235438   8.488   5.606   5.467
11832TIP3    H135439   8.527   5.571   5.549
11832TIP3    H235440   8.466   5.697   5.491
11833TIP3   OH235441   8.645   4.867   4.410
11833TIP3    H135442   8.728   4.912   4.432
11833TIP3    H235443   8.597   4.937   4.362
11834TIP3   OH235444   7.788   5.324   5.137
11834TIP3    H135445   7.829   5.293   5.054
11834TIP3    H235446   7.829   5.266   5.203
11835TIP3   OH235447   8.244   5.450   4.290
11835TIP3    H135448   8.194   5.535   4.292
11835TIP3    H235449   8.186   5.394   4.347
11836TIP3   OH235450   7.665   5.245   5.753
11836TIP3    H135451   7.691   5.228   5.846
11836TIP3    H235452   7.600   5.175   5.737
11837TIP3   OH235453   8.398   5.366   5.721
11837TIP3    H135454   8.354   5.291   5.681
11837TIP3    H235455   8.491   5.334   5.723
11838TIP3   OH235456   8.657   5.866   5.385
11838TIP3    H135457   8.565   5.886   5.363
11838TIP3    H235458   8.667   5.910   5.471
11839TIP3   OH235459   8.758   5.779   4.175
11839TIP3    H135460   8.744   5.717   4.247
11839TIP3    H235461   8.779   5.722   4.099
11840TIP3   OH235462   8.754   5.405   5.002
11840TIP3    H135463   8.661   5.384   5.023
11840TIP3    H235464   8.788   5.317   4.978
11841TIP3   OH235465   7.889   5.627   4.761
11841TIP3    H135466   7.886   5.708   4.708
11841TIP3    H235467   7.795   5.610   4.777
11842TIP3   OH235468   7.453   4.931   4.469
11842TIP3    H135469   7.499   5.015   4.491
11842TIP3    H235470   7.376   4.935   4.530
11843TIP3   OH235471   8.025   5.392   4.707
11843TIP3    H135472   7.989   5.481   4.725
11843TIP3    H235473   7.989   5.341   4.782
11844TIP3   OH235474   8.161   5.969   5.233
11844TIP3    H135475   8.203   6.037   5.176
11844TIP3    H235476   8.238   5.937   5.283
11845TIP3   OH235477   7.807   5.866   4.616
11845TIP3    H135478   7.721   5.874   4.662
11845TIP3    H235479   7.839   5.959   4.619
11846TIP3   OH235480   8.542   5.604   5.198
11846TIP3    H135481   8.525   5.601   5.295
11846TIP3    H235482   8.634   5.573   5.197
11847TIP3   OH235483   8.505   5.500   4.085
11847TIP3    H135484   8.561   5.470   4.160
11847TIP3    H235485   8.416   5.476   4.117
11848TIP3   OH235486   7.875   4.748   5.756
11848TIP3    H135487   7.777   4.753   5.764
11848TIP3    H235488   7.898   4.692   5.832
11849TIP3   OH235489   8.685   5.419   4.283
11849TIP3    H135490   8.671   5.352   4.353
11849TIP3    H235491   8.729   5.489   4.334
11850TIP3   OH235492   7.596   5.831   5.391
11850TIP3    H135493   7.648   5.758   5.428
11850TIP3    H235494   7.623   5.904   5.449
11851TIP3   OH235495   7.886   5.477   4.075
11851TIP3    H135496   7.898   5.385   4.046
11851TIP3    H235497   7.865   5.466   4.169
11852TIP3   OH235498   7.829   5.483   4.347
11852TIP3    H135499   7.901   5.457   4.406
11852TIP3    H235500   7.833   5.581   4.354
11853TIP3   OH235501   7.564   5.175   4.551
11853TIP3    H135502   7.498   5.220   4.608
11853TIP3    H235503   7.578   5.244   4.483
11854TIP3   OH235504   8.725   4.823   5.440
11854TIP3    H135505   8.795   4.859   5.497
11854TIP3    H235506   8.697   4.743   5.490
11855TIP3   OH235507   8.578   4.581   4.617
11855TIP3    H135508   8.573   4.585   4.520
11855TIP3    H235509   8.647   4.646   4.638
11856TIP3   OH235510   8.099   5.678   4.296
11856TIP3    H135511   8.012   5.705   4.331
11856TIP3    H235512   8.114   5.747   4.230
11857TIP3   OH235513   8.280   4.746   4.708
11857TIP3    H135514   8.347   4.816   4.694
11857TIP3    H235515   8.284   4.736   4.806
11858TIP3   OH235516   8.552   5.055   5.510
11858TIP3    H135517   8.574   5.111   5.587
11858TIP3    H235518   8.613   4.980   5.522
11859TIP3   OH235519   8.422   4.457   4.808
11859TIP3    H135520   8.451   4.506   4.888
11859TIP3    H235521   8.477   4.503   4.739
11860TIP3   OH235522   7.843   5.756   4.364
11860TIP3    H135523   7.814   5.826   4.301
11860TIP3    H235524   7.827   5.799   4.450
11861TIP3   OH235525   7.942   4.469   4.600
11861TIP3    H135526   7.937   4.558   4.639
11861TIP3    H235527   8.038   4.452   4.608
11862TIP3   OH235528   8.843   5.149   4.922
11862TIP3    H135529   8.763   5.103   4.891
11862TIP3    H235530   8.846   5.115   5.013
11863TIP3   OH235531   7.560   5.382   4.355
11863TIP3    H135532   7.630   5.450   4.363
11863TIP3    H235533   7.603   5.325   4.288
11864TIP3   OH235534   7.503   4.660   4.487
11864TIP3    H135535   7.503   4.758   4.486
11864TIP3    H235536   7.419   4.640   4.446
11865TIP3   OH235537   8.824   6.116   4.835
11865TIP3    H135538   8.775   6.165   4.765
11865TIP3    H235539   8.913   6.120   4.801
11866TIP3   OH235540   7.897   4.377   5.360
11866TIP3    H135541   7.861   4.347   5.274
11866TIP3    H235542   7.881   4.299   5.417
11867TIP3   OH235543   7.428   5.600   4.740
11867TIP3    H135544   7.363   5.629   4.806
11867TIP3    H235545   7.394   5.643   4.658
11868TIP3   OH235546   7.568   6.129   5.799
11868TIP3    H135547   7.651   6.128   5.853
11868TIP3    H235548   7.548   6.034   5.797
11869TIP3   OH235549   8.031   6.131   5.840
11869TIP3    H135550   8.121   6.161   5.819
11869TIP3    H235551   8.020   6.054   5.780
11870TIP3   OH235552   8.049   5.683   3.988
11870TIP3    H135553   7.997   5.607   4.022
11870TIP3    H235554   8.123   5.638   3.943
11871TIP3   OH235555   8.480   5.725   3.897
11871TIP3    H135556   8.523   5.660   3.955
11871TIP3    H235557   8.532   5.720   3.814
11872TIP3   OH235558   7.716   5.543   6.010
11872TIP3    H135559   7.734   5.447   6.018
11872TIP3    H235560   7.629   5.544   5.965
11873TIP3   OH235561   7.694   5.195   4.208
11873TIP3    H135562   7.751   5.165   4.281
11873TIP3    H235563   7.761   5.200   4.136
11874TIP3   OH235564   8.319   5.620   5.765
11874TIP3    H135565   8.284   5.604   5.677
11874TIP3    H235566   8.360   5.531   5.780
11875TIP3   OH235567   8.209   5.396   4.018
11875TIP3    H135568   8.207   5.407   4.115
11875TIP3    H235569   8.209   5.298   4.011
11876TIP3   OH235570   8.797   5.637   5.341
11876TIP3    H135571   8.881   5.681   5.321
11876TIP3    H235572   8.739   5.714   5.359
11877TIP3   OH235573   7.841   5.276   5.986
11877TIP3    H135574   7.930   5.251   5.958
11877TIP3    H235575   7.859   5.302   6.079
11878TIP3   OH235576   7.901   5.104   4.429
11878TIP3    H135577   7.873   5.064   4.513
11878TIP3    H235578   7.937   5.026   4.381
11879TIP3   OH235579   8.164   5.153   5.649
11879TIP3    H135580   8.099   5.225   5.662
11879TIP3    H235581   8.215   5.187   5.571
11880TIP3   OH235582   8.004   4.897   4.269
11880TIP3    H135583   7.977   4.903   4.175
11880TIP3    H235584   8.101   4.902   4.260
11881TIP3   OH235585   8.658   5.536   5.762
11881TIP3    H135586   8.743   5.582   5.747
11881TIP3    H235587   8.671   5.500   5.850
11882TIP3   OH235588   8.298   4.954   5.781
11882TIP3    H135589   8.297   4.876   5.723
11882TIP3    H235590   8.252   5.022   5.726
11883TIP3   OH235591   8.298   4.740   5.587
11883TIP3    H135592   8.324   4.785   5.504
11883TIP3    H235593   8.203   4.721   5.570
11884TIP3   OH235594   8.317   5.260   5.450
11884TIP3    H135595   8.406   5.283   5.423
11884TIP3    H235596   8.264   5.334   5.413
11885TIP3   OH235597   8.910   5.253   5.755
11885TIP3    H135598   8.935   5.175   5.807
11885TIP3    H235599   8.940   5.324   5.813
11886TIP3   OH235600   8.896   5.484   5.542
11886TIP3    H135601   8.843   5.545   5.485
11886TIP3    H235602   8.986   5.507   5.517
11887TIP3   OH235603   8.176   5.052   6.023
11887TIP3    H135604   8.104   4.986   6.027
11887TIP3    H235605   8.207   5.042   5.931
11888TIP3   OH235606   8.418   4.503   5.663
11888TIP3    H135607   8.368   4.585   5.639
11888TIP3    H235608   8.349   4.435   5.651
11889TIP3   OH235609   8.563   4.997   5.871
11889TIP3    H135610   8.539   5.033   5.958
11889TIP3    H235611   8.473   4.974   5.839
11890TIP3   OH235612   8.794   4.942   5.717
11890TIP3    H135613   8.716   4.956   5.775
11890TIP3    H235614   8.862   4.917   5.784
11891TIP3   OH235615   8.994   4.880   5.895
11891TIP3    H135616   9.039   4.813   5.947
11891TIP3    H235617   8.972   4.947   5.963
11892TIP3   OH235618   8.006   4.838   6.069
11892TIP3    H135619   8.016   4.747   6.035
11892TIP3    H235620   8.044   4.830   6.158
11893TIP3   OH235621   8.521   4.511   5.916
11893TIP3    H135622   8.580   4.433   5.912
11893TIP3    H235623   8.480   4.509   5.827
11894TIP3   OH235624   8.580   4.723   6.081
11894TIP3    H135625   8.558   4.658   6.011
11894TIP3    H235626   8.509   4.790   6.070
11895TIP3   OH235627   7.813   5.959   4.177
11895TIP3    H135628   7.908   5.951   4.157
11895TIP3    H235629   7.784   6.009   4.098
11896TIP3   OH235630   7.291   5.341   4.389
11896TIP3    H135631   7.386   5.362   4.376
11896TIP3    H235632   7.285   5.252   4.348
11897TIP3   OH235633   7.207   5.952   4.808
11897TIP3    H135634   7.140   5.890   4.770
11897TIP3    H235635   7.251   5.892   4.872
11898TIP3   OH235636   7.341   5.799   4.994
11898TIP3    H135637   7.330   5.728   5.059
11898TIP3    H235638   7.393   5.862   5.046
11899TIP3   OH235639   8.996   5.960   5.084
11899TIP3    H135640   8.936   6.003   5.147
11899TIP3    H235641   8.933   5.916   5.023
11900TIP3   OH235642   8.870   5.087   4.614
11900TIP3    H135643   8.958   5.047   4.605
11900TIP3    H235644   8.887   5.146   4.690
11901TIP3   OH235645   7.527   5.218   5.358
11901TIP3    H135646   7.525   5.181   5.268
11901TIP3    H235647   7.624   5.215   5.377
11902TIP3   OH235648   7.741   4.896   6.042
11902TIP3    H135649   7.839   4.891   6.041
11902TIP3    H235650   7.719   4.810   6.082
11903TIP3   OH235651   7.712   4.585   5.343
11903TIP3    H135652   7.774   4.514   5.369
11903TIP3    H235653   7.766   4.664   5.357
11904TIP3   OH235654   7.530   4.849   5.453
11904TIP3    H135655   7.564   4.858   5.362
11904TIP3    H235656   7.528   4.940   5.484
11905TIP3   OH235657   7.493   4.357   4.937
11905TIP3    H135658   7.403   4.361   4.972
11905TIP3    H235659   7.488   4.421   4.862
11906TIP3   OH235660   8.652   6.070   4.452
11906TIP3    H135661   8.700   6.060   4.367
11906TIP3    H235662   8.705   6.138   4.497
11907TIP3   OH235663   7.717   4.434   5.757
11907TIP3    H135664   7.665   4.443   5.838
11907TIP3    H235665   7.660   4.483   5.693
11908TIP3   OH235666   7.754   5.867   5.829
11908TIP3    H135667   7.661   5.843   5.815
11908TIP3    H235668   7.761   5.865   5.925
11909TIP3   OH235669   7.933   5.910   5.383
11909TIP3    H135670   7.886   5.985   5.343
11909TIP3    H235671   8.019   5.921   5.337
11910TIP3   OH235672   7.608   6.165   5.405
11910TIP3    H135673   7.517   6.195   5.383
11910TIP3    H235674   7.621   6.211   5.489
11911TIP3   OH235675   7.846   6.145   5.266
11911TIP3    H135676   7.758   6.155   5.309
11911TIP3    H235677   7.826   6.176   5.175
11912TIP3   OH235678   8.260   6.166   5.055
11912TIP3    H135679   8.191   6.186   4.989
11912TIP3    H235680   8.277   6.254   5.093
11913TIP3   OH235681   8.521   6.092   5.113
11913TIP3    H135682   8.431   6.121   5.088
11913TIP3    H235683   8.574   6.168   5.080
11914TIP3   OH235684   8.661   6.298   5.001
11914TIP3    H135685   8.700   6.387   5.012
11914TIP3    H235686   8.733   6.247   4.963
11915TIP3   OH235687   7.519   5.957   5.150
11915TIP3    H135688   7.545   5.928   5.240
11915TIP3    H235689   7.591   5.914   5.098
11916TIP3   OH235690   7.714   5.830   5.008
11916TIP3    H135691   7.728   5.745   5.057
11916TIP3    H235692   7.806   5.865   5.006
11917TIP3   OH235693   7.982   5.922   5.013
11917TIP3    H135694   8.011   5.829   5.004
11917TIP3    H235695   8.029   5.945   5.096
11918TIP3   OH235696   8.509   4.547   5.055
11918TIP3    H135697   8.492   4.496   5.136
11918TIP3    H235698   8.606   4.538   5.046
11919TIP3   OH235699   7.803   4.287   5.111
11919TIP3    H135700   7.711   4.253   5.114
11919TIP3    H235701   7.853   4.202   5.108
11920TIP3   OH235702   7.591   4.158   4.762
11920TIP3    H135703   7.620   4.216   4.690
11920TIP3    H235704   7.561   4.222   4.830
11921TIP3   OH235705   8.249   4.317   4.994
11921TIP3    H135706   8.303   4.367   4.930
11921TIP3    H235707   8.273   4.360   5.077
11922TIP3   OH235708   8.759   4.449   4.969
11922TIP3    H135709   8.775   4.416   4.880
11922TIP3    H235710   8.761   4.365   5.020
11923TIP3   OH235711   7.307   5.731   4.538
11923TIP3    H135712   7.221   5.699   4.505
11923TIP3    H235713   7.297   5.826   4.517
11924TIP3   OH235714   7.709   4.317   4.524
11924TIP3    H135715   7.757   4.254   4.467
11924TIP3    H235716   7.782   4.371   4.560
11925TIP3   OH235717   8.219   4.495   4.620
11925TIP3    H135718   8.278   4.450   4.684
11925TIP3    H235719   8.237   4.588   4.646
11926TIP3   OH235720   8.079   5.916   4.124
11926TIP3    H135721   8.167   5.939   4.087
11926TIP3    H235722   8.057   5.841   4.065
11927TIP3   OH235723   8.788   6.044   4.219
11927TIP3    H135724   8.787   5.947   4.206
11927TIP3    H235725   8.760   6.074   4.131
11928TIP3   OH235726   8.010   4.561   6.002
11928TIP3    H135727   7.976   4.493   6.062
11928TIP3    H235728   8.104   4.565   6.031
11929TIP3   OH235729   8.258   4.566   6.123
11929TIP3    H135730   8.346   4.548   6.086
11929TIP3    H235731   8.249   4.493   6.188
11930TIP3   OH235732   7.383   5.752   4.178
11930TIP3    H135733   7.386   5.772   4.273
11930TIP3    H235734   7.470   5.710   4.163
11931TIP3   OH235735   0.954   6.084   6.364
11931TIP3    H135736   0.936   6.178   6.374
11931TIP3    H235737   0.873   6.052   6.320
11932TIP3   OH235738   0.961   6.070   6.745
11932TIP3    H135739   0.990   6.048   6.836
11932TIP3    H235740   0.912   5.989   6.721
11933TIP3   OH235741   1.174   6.403   6.442
11933TIP3    H135742   1.176   6.327   6.503
11933TIP3    H235743   1.216   6.472   6.496
11934TIP3   OH235744   0.895   6.837   6.421
11934TIP3    H135745   0.959   6.785   6.471
11934TIP3    H235746   0.821   6.840   6.486
11935TIP3   OH235747   0.775   6.282   6.800
11935TIP3    H135748   0.815   6.204   6.757
11935TIP3    H235749   0.855   6.333   6.823
11936TIP3   OH235750   1.759   5.630   6.800
11936TIP3    H135751   1.789   5.713   6.843
11936TIP3    H235752   1.782   5.648   6.707
11937TIP3   OH235753   1.157   5.811   6.834
11937TIP3    H135754   1.199   5.725   6.854
11937TIP3    H235755   1.126   5.795   6.743
11938TIP3   OH235756   1.191   5.564   6.420
11938TIP3    H135757   1.262   5.548   6.486
11938TIP3    H235758   1.244   5.597   6.345
11939TIP3   OH235759   1.833   5.839   6.968
11939TIP3    H135760   1.747   5.884   6.951
11939TIP3    H235761   1.848   5.864   7.060
11940TIP3   OH235762   0.862   6.337   6.199
11940TIP3    H135763   0.812   6.279   6.138
11940TIP3    H235764   0.792   6.360   6.262
11941TIP3   OH235765   1.396   5.568   6.596
11941TIP3    H135766   1.385   5.518   6.677
11941TIP3    H235767   1.449   5.644   6.626
11942TIP3   OH235768   1.258   6.628   6.597
11942TIP3    H135769   1.169   6.622   6.639
11942TIP3    H235770   1.255   6.719   6.560
11943TIP3   OH235771   1.553   5.531   6.966
11943TIP3    H135772   1.465   5.557   6.934
11943TIP3    H235773   1.612   5.562   6.895
11944TIP3   OH235774   0.853   5.161   6.936
11944TIP3    H135775   0.847   5.065   6.956
11944TIP3    H235776   0.806   5.198   7.011
11945TIP3   OH235777   1.011   6.598   6.193
11945TIP3    H135778   1.026   6.584   6.287
11945TIP3    H235779   1.031   6.694   6.184
11946TIP3   OH235780   1.485   6.540   6.948
11946TIP3    H135781   1.473   6.463   6.888
11946TIP3    H235782   1.469   6.615   6.886
11947TIP3   OH235783   0.766   5.974   6.195
11947TIP3    H135784   0.694   5.914   6.224
11947TIP3    H235785   0.800   5.932   6.115
11948TIP3   OH235786   0.753   5.727   5.918
11948TIP3    H135787   0.827   5.776   5.957
11948TIP3    H235788   0.801   5.658   5.868
11949TIP3   OH235789   1.681   6.181   6.792
11949TIP3    H135790   1.597   6.232   6.797
11949TIP3    H235791   1.710   6.204   6.701
11950TIP3   OH235792   1.129   6.023   6.168
11950TIP3    H135793   1.074   6.041   6.248
11950TIP3    H235794   1.212   5.993   6.211
11951TIP3   OH235795   1.360   6.055   7.090
11951TIP3    H135796   1.360   6.137   7.145
11951TIP3    H235797   1.275   6.064   7.044
11952TIP3   OH235798   1.014   6.625   6.709
11952TIP3    H135799   0.990   6.709   6.753
11952TIP3    H235800   1.002   6.559   6.780
11953TIP3   OH235801   0.965   5.878   6.003
11953TIP3    H135802   1.023   5.937   6.056
11953TIP3    H235803   0.992   5.902   5.912
11954TIP3   OH235804   1.480   5.116   6.050
11954TIP3    H135805   1.399   5.135   6.101
11954TIP3    H235806   1.492   5.199   6.001
11955TIP3   OH235807   1.281   6.490   5.628
11955TIP3    H135808   1.288   6.583   5.597
11955TIP3    H235809   1.370   6.457   5.605
11956TIP3   OH235810   1.729   6.886   6.993
11956TIP3    H135811   1.726   6.790   7.010
11956TIP3    H235812   1.645   6.913   7.038
11957TIP3   OH235813   0.794   6.699   5.716
11957TIP3    H135814   0.848   6.627   5.675
11957TIP3    H235815   0.854   6.737   5.780
11958TIP3   OH235816   1.614   6.018   7.269
11958TIP3    H135817   1.530   6.029   7.221
11958TIP3    H235818   1.629   5.922   7.258
11959TIP3   OH235819   1.151   5.365   7.270
11959TIP3    H135820   1.221   5.337   7.334
11959TIP3    H235821   1.069   5.345   7.319
11960TIP3   OH235822   1.379   5.793   7.189
11960TIP3    H135823   1.332   5.788   7.275
11960TIP3    H235824   1.356   5.882   7.156
11961TIP3   OH235825   1.041   5.929   5.749
11961TIP3    H135826   1.003   5.902   5.663
11961TIP3    H235827   1.128   5.963   5.720
11962TIP3   OH235828   0.743   5.307   6.022
11962TIP3    H135829   0.731   5.306   6.120
11962TIP3    H235830   0.715   5.215   6.003
11963TIP3   OH235831   0.921   5.745   6.342
11963TIP3    H135832   0.861   5.811   6.303
11963TIP3    H235833   0.969   5.710   6.264
11964TIP3   OH235834   1.112   6.002   7.409
11964TIP3    H135835   1.085   5.933   7.474
11964TIP3    H235836   1.205   6.015   7.434
11965TIP3   OH235837   1.071   5.762   6.577
11965TIP3    H135838   1.011   5.790   6.505
11965TIP3    H235839   1.108   5.682   6.534
11966TIP3   OH235840   1.077   6.010   6.998
11966TIP3    H135841   1.115   5.940   6.939
11966TIP3    H235842   1.052   5.953   7.074
11967TIP3   OH235843   0.763   5.469   6.659
11967TIP3    H135844   0.672   5.490   6.686
11967TIP3    H235845   0.813   5.475   6.742
11968TIP3   OH235846   1.242   5.548   6.876
11968TIP3    H135847   1.209   5.561   6.967
11968TIP3    H235848   1.176   5.485   6.842
11969TIP3   OH235849   1.420   7.228   7.053
11969TIP3    H135850   1.403   7.248   6.960
11969TIP3    H235851   1.441   7.317   7.087
11970TIP3   OH235852   0.847   5.794   6.768
11970TIP3    H135853   0.917   5.756   6.713
11970TIP3    H235854   0.863   5.752   6.855
11971TIP3   OH235855   0.836   5.683   7.056
11971TIP3    H135856   0.770   5.756   7.051
11971TIP3    H235857   0.908   5.729   7.104
11972TIP3   OH235858   1.447   6.325   6.780
11972TIP3    H135859   1.472   6.376   6.699
11972TIP3    H235860   1.363   6.283   6.752
11973TIP3   OH235861   1.001   5.402   6.014
11973TIP3    H135862   0.904   5.385   6.021
11973TIP3    H235863   1.010   5.494   6.045
11974TIP3   OH235864   0.937   6.411   7.147
11974TIP3    H135865   0.969   6.408   7.238
11974TIP3    H235866   0.883   6.494   7.149
11975TIP3   OH235867   1.073   5.648   6.122
11975TIP3    H135868   1.169   5.650   6.138
11975TIP3    H235869   1.059   5.728   6.067
11976TIP3   OH235870   0.677   6.249   5.997
11976TIP3    H135871   0.595   6.302   5.995
11976TIP3    H235872   0.644   6.165   6.033
11977TIP3   OH235873   0.894   6.118   7.532
11977TIP3    H135874   0.831   6.073   7.472
11977TIP3    H235875   0.979   6.100   7.487
11978TIP3   OH235876   1.105   6.665   7.040
11978TIP3    H135877   1.009   6.666   7.055
11978TIP3    H235878   1.136   6.717   7.118
11979TIP3   OH235879   1.515   5.740   5.954
11979TIP3    H135880   1.452   5.696   5.892
11979TIP3    H235881   1.512   5.829   5.913
11980TIP3   OH235882   1.736   6.597   7.035
11980TIP3    H135883   1.638   6.592   7.028
11980TIP3    H235884   1.761   6.568   6.945
11981TIP3   OH235885   1.158   6.509   5.909
11981TIP3    H135886   1.234   6.448   5.915
11981TIP3    H235887   1.157   6.521   5.812
11982TIP3   OH235888   1.217   6.187   6.691
11982TIP3    H135889   1.124   6.161   6.708
11982TIP3    H235890   1.251   6.106   6.650
11983TIP3   OH235891   1.012   6.391   6.883
11983TIP3    H135892   0.995   6.401   6.980
11983TIP3    H235893   1.098   6.348   6.883
11984TIP3   OH235894   0.972   6.292   5.761
11984TIP3    H135895   1.015   6.258   5.841
11984TIP3    H235896   0.884   6.251   5.765
11985TIP3   OH235897   1.265   6.902   6.918
11985TIP3    H135898   1.180   6.857   6.933
11985TIP3    H235899   1.234   6.984   6.873
11986TIP3   OH235900   1.311   6.761   5.583
11986TIP3    H135901   1.350   6.829   5.525
11986TIP3    H235902   1.232   6.811   5.612
11987TIP3   OH235903   1.133   6.244   6.000
11987TIP3    H135904   1.120   6.168   6.061
11987TIP3    H235905   1.226   6.224   5.973
11988TIP3   OH235906   1.168   5.604   7.136
11988TIP3    H135907   1.251   5.640   7.170
11988TIP3    H235908   1.159   5.521   7.187
11989TIP3   OH235909   1.058   5.346   6.300
11989TIP3    H135910   1.035   5.370   6.209
11989TIP3    H235911   1.094   5.430   6.337
11990TIP3   OH235912   0.734   5.547   6.397
11990TIP3    H135913   0.807   5.612   6.389
11990TIP3    H235914   0.735   5.528   6.493
11991TIP3   OH235915   1.018   5.842   7.202
11991TIP3    H135916   1.044   5.898   7.279
11991TIP3    H235917   1.074   5.763   7.214
11992TIP3   OH235918   0.892   5.255   6.517
11992TIP3    H135919   0.866   5.339   6.561
11992TIP3    H235920   0.942   5.288   6.440
11993TIP3   OH235921   1.646   5.750   7.186
11993TIP3    H135922   1.548   5.750   7.194
11993TIP3    H235923   1.655   5.701   7.103
11994TIP3   OH235924   1.299   5.943   6.573
11994TIP3    H135925   1.222   5.885   6.587
11994TIP3    H235926   1.369   5.896   6.623
11995TIP3   OH235927   1.270   6.892   6.521
11995TIP3    H135928   1.230   6.943   6.446
11995TIP3    H235929   1.364   6.915   6.506
11996TIP3   OH235930   1.166   6.798   7.269
11996TIP3    H135931   1.153   6.736   7.344
11996TIP3    H235932   1.241   6.852   7.299
11997TIP3   OH235933   0.948   6.516   5.592
11997TIP3    H135934   0.977   6.436   5.640
11997TIP3    H235935   0.994   6.507   5.505
11998TIP3   OH235936   0.692   6.189   5.710
11998TIP3    H135937   0.653   6.205   5.797
11998TIP3    H235938   0.681   6.092   5.701
11999TIP3   OH235939   1.265   6.433   7.080
11999TIP3    H135940   1.342   6.477   7.040
11999TIP3    H235941   1.197   6.503   7.068
12000TIP3   OH235942   0.490   5.704   6.007
12000TIP3    H135943   0.467   5.698   5.913
12000TIP3    H235944   0.588   5.703   6.001
12001TIP3   OH235945   1.133   6.358   7.482
12001TIP3    H135946   1.215   6.337   7.435
12001TIP3    H235947   1.132   6.287   7.550
12002TIP3   OH235948   1.274   6.014   5.627
12002TIP3    H135949   1.256   5.968   5.543
12002TIP3    H235950   1.244   6.105   5.603
12003TIP3   OH235951   0.710   5.480   7.200
12003TIP3    H135952   0.763   5.545   7.148
12003TIP3    H235953   0.674   5.535   7.270
12004TIP3   OH235954   0.829   6.126   7.105
12004TIP3    H135955   0.920   6.106   7.078
12004TIP3    H235956   0.817   6.213   7.065
12005TIP3   OH235957   1.373   6.021   7.522
12005TIP3    H135958   1.424   5.941   7.543
12005TIP3    H235959   1.442   6.082   7.492
12006TIP3   OH235960   1.399   6.280   7.257
12006TIP3    H135961   1.340   6.338   7.203
12006TIP3    H235962   1.487   6.304   7.221
12007TIP3   OH235963   0.891   5.294   7.336
12007TIP3    H135964   0.830   5.365   7.307
12007TIP3    H235965   0.834   5.216   7.326
12008TIP3   OH235966   1.018   5.800   7.571
12008TIP3    H135967   1.049   5.796   7.663
12008TIP3    H235968   0.933   5.754   7.578
12009TIP3   OH235969   1.250   5.737   7.419
12009TIP3    H135970   1.176   5.739   7.482
12009TIP3    H235971   1.326   5.711   7.476
12010TIP3   OH235972   1.480   5.689   7.570
12010TIP3    H135973   1.491   5.593   7.587
12010TIP3    H235974   1.472   5.725   7.661
12011TIP3   OH235975   0.986   5.310   7.595
12011TIP3    H135976   1.046   5.233   7.597
12011TIP3    H235977   0.944   5.299   7.507
12012TIP3   OH235978   1.058   5.523   7.745
12012TIP3    H135979   1.039   5.444   7.690
12012TIP3    H235980   0.969   5.563   7.750
12013TIP3   OH235981   1.523   6.986   6.483
12013TIP3    H135982   1.544   7.016   6.573
12013TIP3    H235983   1.584   7.040   6.429
12014TIP3   OH235984   1.555   7.005   6.760
12014TIP3    H135985   1.511   6.918   6.760
12014TIP3    H235986   1.627   6.989   6.824
12015TIP3   OH235987   1.601   6.683   7.330
12015TIP3    H135988   1.524   6.702   7.387
12015TIP3    H235989   1.646   6.771   7.327
12016TIP3   OH235990   1.411   6.208   5.958
12016TIP3    H135991   1.483   6.265   5.925
12016TIP3    H235992   1.454   6.165   6.035
12017TIP3   OH235993   1.538   6.071   6.160
12017TIP3    H135994   1.475   6.026   6.219
12017TIP3    H235995   1.606   6.105   6.222
12018TIP3   OH235996   1.595   6.461   6.591
12018TIP3    H135997   1.651   6.396   6.544
12018TIP3    H235998   1.592   6.535   6.527
12019TIP3   OH235999   1.436   6.751   6.778
12019TIP3    H136000   1.368   6.800   6.829
12019TIP3    H236001   1.381   6.707   6.710
12020TIP3   OH236002   1.478   5.979   5.808
12020TIP3    H136003   1.406   5.979   5.741
12020TIP3    H236004   1.450   6.054   5.863
12021TIP3   OH236005   1.345   5.650   5.761
12021TIP3    H136006   1.306   5.682   5.678
12021TIP3    H236007   1.325   5.554   5.755
12022TIP3   OH236008   1.352   5.925   6.304
12022TIP3    H136009   1.361   5.828   6.298
12022TIP3    H236010   1.339   5.939   6.400
12023TIP3   OH236011   1.645   6.350   7.163
12023TIP3    H136012   1.716   6.284   7.153
12023TIP3    H236013   1.672   6.421   7.103
12024TIP3   OH236014   1.828   6.152   7.173
12024TIP3    H136015   1.753   6.104   7.214
12024TIP3    H236016   1.901   6.089   7.190
12025TIP3   OH236017   1.292   5.384   5.745
12025TIP3    H136018   1.367   5.351   5.800
12025TIP3    H236019   1.219   5.324   5.768
12026TIP3   OH236020   1.350   5.641   6.197
12026TIP3    H136021   1.391   5.553   6.214
12026TIP3    H236022   1.409   5.673   6.127
12027TIP3   OH236023   1.510   5.813   6.696
12027TIP3    H136024   1.596   5.838   6.655
12027TIP3    H236025   1.525   5.850   6.786
12028TIP3   OH236026   1.582   5.959   6.926
12028TIP3    H136027   1.505   5.993   6.977
12028TIP3    H236028   1.614   6.041   6.883
12029TIP3   OH236029   2.033   5.553   7.483
12029TIP3    H136030   2.093   5.487   7.441
12029TIP3    H236031   2.004   5.606   7.406
12030TIP3   OH236032   1.459   5.392   6.238
12030TIP3    H136033   1.506   5.375   6.322
12030TIP3    H236034   1.398   5.315   6.236
12031TIP3   OH236035   1.902   5.689   7.287
12031TIP3    H136036   1.815   5.730   7.308
12031TIP3    H236037   1.871   5.615   7.230
12032TIP3   OH236038   1.537   5.325   5.872
12032TIP3    H136039   1.577   5.253   5.819
12032TIP3    H236040   1.606   5.395   5.868
12033TIP3   OH236041   1.099   6.848   6.135
12033TIP3    H136042   1.160   6.854   6.059
12033TIP3    H236043   1.134   6.917   6.195
12034TIP3   OH236044   1.051   7.074   6.995
12034TIP3    H136045   1.081   7.022   7.070
12034TIP3    H236046   1.029   7.158   7.039
12035TIP3   OH236047   1.802   5.450   7.168
12035TIP3    H136048   1.711   5.438   7.135
12035TIP3    H236049   1.837   5.358   7.158
12036TIP3   OH236050   0.963   6.896   6.781
12036TIP3    H136051   0.892   6.913   6.844
12036TIP3    H236052   1.012   6.980   6.789
12037TIP3   OH236053   1.216   7.094   6.714
12037TIP3    H136054   1.179   7.169   6.666
12037TIP3    H236055   1.222   7.024   6.646
12038TIP3   OH236056   1.020   5.368   6.801
12038TIP3    H136057   0.969   5.293   6.834
12038TIP3    H236058   1.082   5.325   6.739
12039TIP3   OH236059   1.528   5.250   6.691
12039TIP3    H136060   1.563   5.301   6.615
12039TIP3    H236061   1.432   5.266   6.683
12040TIP3   OH236062   1.624   5.348   6.454
12040TIP3    H136063   1.698   5.296   6.417
12040TIP3    H236064   1.659   5.439   6.440
12041TIP3   OH236065   0.718   5.103   6.689
12041TIP3    H136066   0.766   5.153   6.621
12041TIP3    H236067   0.760   5.133   6.770
12042TIP3   OH236068   1.246   5.254   6.666
12042TIP3    H136069   1.241   5.212   6.579
12042TIP3    H236070   1.234   5.177   6.725
12043TIP3   OH236071   1.277   5.179   6.231
12043TIP3    H136072   1.192   5.224   6.250
12043TIP3    H236073   1.262   5.093   6.275
12044TIP3   OH236074   0.719   5.292   6.288
12044TIP3    H136075   0.709   5.236   6.367
12044TIP3    H236076   0.705   5.381   6.325
12045TIP3   OH236077   1.252   6.822   5.902
12045TIP3    H136078   1.238   6.729   5.882
12045TIP3    H236079   1.211   6.866   5.825
12046TIP3   OH236080   1.539   5.418   7.600
12046TIP3    H136081   1.559   5.387   7.692
12046TIP3    H236082   1.628   5.412   7.559
12047TIP3   OH236083   1.480   6.963   7.084
12047TIP3    H136084   1.404   6.926   7.034
12047TIP3    H236085   1.462   7.059   7.073
12048TIP3   OH236086   2.739   6.335   5.884
12048TIP3    H136087   2.714   6.425   5.854
12048TIP3    H236088   2.675   6.284   5.831
12049TIP3   OH236089   2.040   6.232   6.605
12049TIP3    H136090   2.069   6.164   6.668
12049TIP3    H236091   2.115   6.293   6.609
12050TIP3   OH236092   2.982   6.657   5.916
12050TIP3    H136093   2.975   6.587   5.982
12050TIP3    H236094   3.019   6.731   5.967
12051TIP3   OH236095   2.012   6.646   6.327
12051TIP3    H136096   2.004   6.548   6.330
12051TIP3    H236097   2.109   6.656   6.323
12052TIP3   OH236098   1.720   5.849   6.111
12052TIP3    H136099   1.671   5.931   6.128
12052TIP3    H236100   1.650   5.794   6.073
12053TIP3   OH236101   1.776   6.134   6.289
12053TIP3    H136102   1.826   6.057   6.325
12053TIP3    H236103   1.838   6.167   6.222
12054TIP3   OH236104   2.640   7.108   5.942
12054TIP3    H136105   2.680   7.036   5.888
12054TIP3    H236106   2.631   7.064   6.027
12055TIP3   OH236107   2.534   6.575   6.290
12055TIP3    H136108   2.558   6.518   6.216
12055TIP3    H236109   2.622   6.607   6.318
12056TIP3   OH236110   3.557   5.886   6.284
12056TIP3    H136111   3.584   5.971   6.325
12056TIP3    H236112   3.582   5.903   6.191
12057TIP3   OH236113   2.295   5.727   6.284
12057TIP3    H136114   2.272   5.798   6.220
12057TIP3    H236115   2.246   5.652   6.243
12058TIP3   OH236116   2.985   5.812   5.900
12058TIP3    H136117   3.053   5.805   5.971
12058TIP3    H236118   3.038   5.856   5.832
12059TIP3   OH236119   1.925   5.930   6.393
12059TIP3    H136120   2.008   5.909   6.441
12059TIP3    H236121   1.938   5.873   6.314
12060TIP3   OH236122   2.359   6.126   6.184
12060TIP3    H136123   2.450   6.093   6.182
12060TIP3    H236124   2.310   6.045   6.155
12061TIP3   OH236125   3.631   6.091   6.463
12061TIP3    H136126   3.548   6.140   6.442
12061TIP3    H236127   3.659   6.135   6.545
12062TIP3   OH236128   2.289   5.711   6.721
12062TIP3    H136129   2.227   5.747   6.654
12062TIP3    H236130   2.236   5.727   6.802
12063TIP3   OH236131   2.626   6.549   5.741
12063TIP3    H136132   2.602   6.539   5.648
12063TIP3    H236133   2.587   6.636   5.761
12064TIP3   OH236134   2.391   6.487   6.513
12064TIP3    H136135   2.330   6.554   6.552
12064TIP3    H236136   2.435   6.539   6.443
12065TIP3   OH236137   3.188   5.826   6.084
12065TIP3    H136138   3.183   5.786   6.171
12065TIP3    H236139   3.243   5.904   6.101
12066TIP3   OH236140   2.160   5.825   6.503
12066TIP3    H136141   2.221   5.897   6.528
12066TIP3    H236142   2.210   5.784   6.429
12067TIP3   OH236143   2.223   6.682   6.611
12067TIP3    H136144   2.198   6.770   6.576
12067TIP3    H236145   2.144   6.665   6.668
12068TIP3   OH236146   1.612   6.372   5.848
12068TIP3    H136147   1.578   6.397   5.761
12068TIP3    H236148   1.646   6.457   5.883
12069TIP3   OH236149   3.051   6.882   6.087
12069TIP3    H136150   2.960   6.879   6.126
12069TIP3    H236151   3.049   6.969   6.042
12070TIP3   OH236152   3.350   5.780   6.449
12070TIP3    H136153   3.262   5.809   6.417
12070TIP3    H236154   3.410   5.817   6.381
12071TIP3   OH236155   2.639   5.425   6.435
12071TIP3    H136156   2.628   5.331   6.456
12071TIP3    H236157   2.562   5.463   6.483
12072TIP3   OH236158   2.752   6.934   5.759
12072TIP3    H136159   2.800   6.850   5.737
12072TIP3    H236160   2.815   6.999   5.720
12073TIP3   OH236161   2.887   6.716   5.665
12073TIP3    H136162   2.888   6.636   5.611
12073TIP3    H236163   2.928   6.685   5.749
12074TIP3   OH236164   3.279   6.803   6.437
12074TIP3    H136165   3.282   6.726   6.375
12074TIP3    H236166   3.267   6.878   6.375
12075TIP3   OH236167   2.583   6.203   5.696
12075TIP3    H136168   2.501   6.252   5.672
12075TIP3    H236169   2.625   6.193   5.608
12076TIP3   OH236170   2.533   5.979   5.406
12076TIP3    H136171   2.602   6.031   5.450
12076TIP3    H236172   2.589   5.915   5.356
12077TIP3   OH236173   3.479   6.431   6.280
12077TIP3    H136174   3.398   6.487   6.280
12077TIP3    H236175   3.513   6.450   6.189
12078TIP3   OH236176   2.917   6.276   5.666
12078TIP3    H136177   2.867   6.303   5.745
12078TIP3    H236178   2.999   6.242   5.708
12079TIP3   OH236179   3.163   6.312   6.585
12079TIP3    H136180   3.162   6.394   6.639
12079TIP3    H236181   3.079   6.321   6.537
12080TIP3   OH236182   2.149   6.273   6.079
12080TIP3    H136183   2.107   6.216   6.011
12080TIP3    H236184   2.226   6.219   6.106
12081TIP3   OH236185   2.278   6.689   6.225
12081TIP3    H136186   2.260   6.650   6.138
12081TIP3    H236187   2.367   6.654   6.246
12082TIP3   OH236188   2.292   6.242   6.435
12082TIP3    H136189   2.320   6.224   6.343
12082TIP3    H236190   2.331   6.330   6.454
12083TIP3   OH236191   2.812   6.880   6.214
12083TIP3    H136192   2.800   6.964   6.261
12083TIP3    H236193   2.795   6.813   6.283
12084TIP3   OH236194   2.428   6.801   6.756
12084TIP3    H136195   2.368   6.863   6.804
12084TIP3    H236196   2.362   6.748   6.707
12085TIP3   OH236197   2.756   6.136   5.487
12085TIP3    H136198   2.819   6.193   5.537
12085TIP3    H236199   2.783   6.156   5.394
12086TIP3   OH236200   2.182   6.356   6.858
12086TIP3    H136201   2.187   6.443   6.902
12086TIP3    H236202   2.087   6.335   6.873
12087TIP3   OH236203   2.507   6.810   5.768
12087TIP3    H136204   2.589   6.862   5.773
12087TIP3    H236205   2.447   6.870   5.721
12088TIP3   OH236206   2.222   6.967   6.845
12088TIP3    H136207   2.186   6.968   6.754
12088TIP3    H236208   2.143   6.945   6.898
12089TIP3   OH236209   3.276   5.372   5.536
12089TIP3    H136210   3.197   5.399   5.587
12089TIP3    H236211   3.293   5.453   5.484
12090TIP3   OH236212   2.019   6.116   5.885
12090TIP3    H136213   1.951   6.159   5.829
12090TIP3    H236214   1.983   6.027   5.894
12091TIP3   OH236215   3.078   6.740   5.089
12091TIP3    H136216   3.086   6.836   5.071
12091TIP3    H236217   3.170   6.710   5.073
12092TIP3   OH236218   1.801   6.499   6.791
12092TIP3    H136219   1.733   6.477   6.724
12092TIP3    H236220   1.838   6.411   6.814
12093TIP3   OH236221   1.655   6.693   6.419
12093TIP3    H136222   1.752   6.690   6.416
12093TIP3    H236223   1.640   6.770   6.476
12094TIP3   OH236224   3.517   7.145   6.479
12094TIP3    H136225   3.519   7.048   6.496
12094TIP3    H236226   3.434   7.169   6.526
12095TIP3   OH236227   2.623   6.930   6.612
12095TIP3    H136228   2.621   7.022   6.646
12095TIP3    H236229   2.553   6.889   6.667
12096TIP3   OH236230   2.385   7.052   5.568
12096TIP3    H136231   2.343   7.033   5.483
12096TIP3    H236232   2.354   7.143   5.588
12097TIP3   OH236233   1.824   6.907   5.951
12097TIP3    H136234   1.873   6.899   6.037
12097TIP3    H236235   1.768   6.828   5.956
12098TIP3   OH236236   2.586   6.957   5.205
12098TIP3    H136237   2.644   6.888   5.167
12098TIP3    H236238   2.624   6.967   5.295
12099TIP3   OH236239   2.638   7.007   5.476
12099TIP3    H136240   2.550   7.014   5.520
12099TIP3    H236241   2.691   6.966   5.546
12100TIP3   OH236242   3.408   6.269   6.758
12100TIP3    H136243   3.330   6.279   6.702
12100TIP3    H236244   3.428   6.173   6.748
12101TIP3   OH236245   2.006   6.681   6.775
12101TIP3    H136246   2.054   6.667   6.859
12101TIP3    H236247   1.931   6.619   6.784
12102TIP3   OH236248   2.403   5.507   6.565
12102TIP3    H136249   2.315   5.475   6.537
12102TIP3    H236250   2.376   5.586   6.616
12103TIP3   OH236251   2.939   5.622   6.757
12103TIP3    H136252   3.009   5.596   6.819
12103TIP3    H236253   2.857   5.601   6.806
12104TIP3   OH236254   3.172   6.046   6.673
12104TIP3    H136255   3.128   6.044   6.761
12104TIP3    H236256   3.160   6.139   6.646
12105TIP3   OH236257   2.835   6.180   5.233
12105TIP3    H136258   2.802   6.155   5.144
12105TIP3    H236259   2.922   6.218   5.209
12106TIP3   OH236260   2.548   5.554   5.535
12106TIP3    H136261   2.515   5.550   5.627
12106TIP3    H236262   2.510   5.471   5.500
12107TIP3   OH236263   2.338   6.019   6.584
12107TIP3    H136264   2.288   6.038   6.665
12107TIP3    H236265   2.322   6.101   6.532
12108TIP3   OH236266   2.218   5.910   6.096
12108TIP3    H136267   2.126   5.881   6.115
12108TIP3    H236268   2.231   5.868   6.007
12109TIP3   OH236269   2.704   5.990   5.825
12109TIP3    H136270   2.658   6.061   5.776
12109TIP3    H236271   2.767   5.957   5.758
12110TIP3   OH236272   2.886   6.269   6.907
12110TIP3    H136273   2.864   6.197   6.970
12110TIP3    H236274   2.979   6.286   6.931
12111TIP3   OH236275   2.156   6.048   6.791
12111TIP3    H136276   2.183   6.111   6.859
12111TIP3    H236277   2.143   5.966   6.842
12112TIP3   OH236278   2.206   5.527   5.501
12112TIP3    H136279   2.195   5.526   5.599
12112TIP3    H236280   2.127   5.579   5.475
12113TIP3   OH236281   1.749   5.573   6.370
12113TIP3    H136282   1.824   5.603   6.425
12113TIP3    H236283   1.791   5.537   6.291
12114TIP3   OH236284   1.715   5.551   5.891
12114TIP3    H136285   1.761   5.589   5.813
12114TIP3    H236286   1.655   5.624   5.911
12115TIP3   OH236287   2.900   6.247   6.476
12115TIP3    H136288   2.918   6.153   6.469
12115TIP3    H236289   2.855   6.247   6.562
12116TIP3   OH236290   2.559   5.769   6.174
12116TIP3    H136291   2.476   5.742   6.219
12116TIP3    H236292   2.626   5.715   6.220
12117TIP3   OH236293   1.983   5.786   6.164
12117TIP3    H136294   1.888   5.793   6.137
12117TIP3    H236295   2.006   5.694   6.143
12118TIP3   OH236296   2.247   5.782   5.856
12118TIP3    H136297   2.341   5.794   5.835
12118TIP3    H236298   2.201   5.804   5.771
12119TIP3   OH236299   3.057   5.801   6.363
12119TIP3    H136300   3.015   5.824   6.448
12119TIP3    H236301   2.989   5.744   6.323
12120TIP3   OH236302   2.095   5.817   5.630
12120TIP3    H136303   2.026   5.770   5.581
12120TIP3    H236304   2.148   5.854   5.557
12121TIP3   OH236305   3.212   7.495   6.580
12121TIP3    H136306   3.212   7.519   6.486
12121TIP3    H236307   3.292   7.541   6.613
12122TIP3   OH236308   2.168   6.603   6.999
12122TIP3    H136309   2.247   6.633   7.048
12122TIP3    H236310   2.102   6.603   7.071
12123TIP3   OH236311   2.714   6.038   6.239
12123TIP3    H136312   2.673   5.953   6.214
12123TIP3    H236313   2.692   6.037   6.335
12124TIP3   OH236314   2.150   5.543   6.138
12124TIP3    H136315   2.114   5.466   6.187
12124TIP3    H236316   2.197   5.501   6.065
12125TIP3   OH236317   2.611   5.982   6.520
12125TIP3    H136318   2.519   5.997   6.550
12125TIP3    H236319   2.664   6.024   6.591
12126TIP3   OH236320   2.343   6.345   5.640
12126TIP3    H136321   2.270   6.280   5.628
12126TIP3    H236322   2.325   6.378   5.731
12127TIP3   OH236323   3.254   6.592   6.263
12127TIP3    H136324   3.294   6.637   6.185
12127TIP3    H236325   3.162   6.587   6.238
12128TIP3   OH236326   2.803   5.654   5.510
12128TIP3    H136327   2.705   5.640   5.514
12128TIP3    H236328   2.813   5.749   5.528
12129TIP3   OH236329   2.733   6.661   6.639
12129TIP3    H136330   2.773   6.644   6.726
12129TIP3    H236331   2.702   6.753   6.648
12130TIP3   OH236332   2.873   5.907   5.609
12130TIP3    H136333   2.970   5.909   5.620
12130TIP3    H236334   2.856   5.983   5.551
12131TIP3   OH236335   2.036   6.369   6.316
12131TIP3    H136336   2.074   6.339   6.231
12131TIP3    H236337   2.074   6.306   6.379
12132TIP3   OH236338   2.490   6.494   5.462
12132TIP3    H136339   2.443   6.580   5.468
12132TIP3    H236340   2.436   6.439   5.523
12133TIP3   OH236341   1.919   6.286   6.928
12133TIP3    H136342   1.937   6.273   7.023
12133TIP3    H236343   1.849   6.220   6.913
12134TIP3   OH236344   2.645   6.404   6.949
12134TIP3    H136345   2.585   6.341   6.905
12134TIP3    H236346   2.732   6.369   6.921
12135TIP3   OH236347   2.899   6.916   6.538
12135TIP3    H136348   2.803   6.923   6.551
12135TIP3    H236349   2.931   6.971   6.612
12136TIP3   OH236350   3.301   5.987   5.443
12136TIP3    H136351   3.239   5.955   5.373
12136TIP3    H236352   3.314   6.079   5.411
12137TIP3   OH236353   3.531   6.854   6.523
12137TIP3    H136354   3.433   6.849   6.516
12137TIP3    H236355   3.556   6.824   6.433
12138TIP3   OH236356   3.010   6.815   5.349
12138TIP3    H136357   2.994   6.739   5.406
12138TIP3    H236358   3.029   6.773   5.262
12139TIP3   OH236359   2.140   6.672   5.941
12139TIP3    H136360   2.139   6.752   5.886
12139TIP3    H236361   2.045   6.656   5.953
12140TIP3   OH236362   1.702   5.975   5.646
12140TIP3    H136363   1.748   6.059   5.667
12140TIP3    H236364   1.625   5.980   5.707
12141TIP3   OH236365   2.274   6.435   5.887
12141TIP3    H136366   2.240   6.526   5.902
12141TIP3    H236367   2.232   6.386   5.960
12142TIP3   OH236368   2.409   7.013   6.408
12142TIP3    H136369   2.451   7.086   6.359
12142TIP3    H236370   2.484   6.980   6.459
12143TIP3   OH236371   2.055   6.910   5.793
12143TIP3    H136372   1.969   6.918   5.839
12143TIP3    H236373   2.086   7.003   5.795
12144TIP3   OH236374   2.794   6.636   6.377
12144TIP3    H136375   2.767   6.643   6.471
12144TIP3    H236376   2.889   6.621   6.389
12145TIP3   OH236377   2.772   6.544   5.255
12145TIP3    H136378   2.827   6.521   5.334
12145TIP3    H236379   2.685   6.514   5.284
12146TIP3   OH236380   3.040   7.182   6.418
12146TIP3    H136381   2.960   7.127   6.408
12146TIP3    H236382   3.027   7.247   6.345
12147TIP3   OH236383   3.104   7.013   5.070
12147TIP3    H136384   3.125   7.072   4.996
12147TIP3    H236385   3.028   7.062   5.107
12148TIP3   OH236386   2.127   5.793   6.934
12148TIP3    H136387   2.030   5.796   6.947
12148TIP3    H236388   2.155   5.736   7.007
12149TIP3   OH236389   2.932   6.486   5.478
12149TIP3    H136390   2.924   6.411   5.540
12149TIP3    H236391   3.028   6.479   5.457
12150TIP3   OH236392   1.846   6.876   6.565
12150TIP3    H136393   1.900   6.807   6.607
12150TIP3    H236394   1.863   6.952   6.623
12151TIP3   OH236395   2.132   6.523   5.252
12151TIP3    H136396   2.149   6.431   5.224
12151TIP3    H236397   2.112   6.511   5.347
12152TIP3   OH236398   2.077   6.527   5.525
12152TIP3    H136399   2.155   6.501   5.576
12152TIP3    H236400   2.081   6.625   5.532
12153TIP3   OH236401   1.813   6.219   5.728
12153TIP3    H136402   1.747   6.265   5.784
12153TIP3    H236403   1.828   6.287   5.660
12154TIP3   OH236404   2.960   5.863   6.617
12154TIP3    H136405   3.044   5.900   6.651
12154TIP3    H236406   2.951   5.781   6.671
12155TIP3   OH236407   2.846   5.602   5.786
12155TIP3    H136408   2.835   5.627   5.692
12155TIP3    H236409   2.890   5.683   5.822
12156TIP3   OH236410   2.346   6.724   5.473
12156TIP3    H136411   2.259   6.751   5.507
12156TIP3    H236412   2.364   6.795   5.410
12157TIP3   OH236413   2.528   5.788   5.890
12157TIP3    H136414   2.594   5.856   5.864
12157TIP3    H236415   2.541   5.785   5.987
12158TIP3   OH236416   2.805   6.106   6.693
12158TIP3    H136417   2.829   6.158   6.773
12158TIP3    H236418   2.859   6.026   6.704
12159TIP3   OH236419   2.679   5.512   5.986
12159TIP3    H136420   2.700   5.579   6.053
12159TIP3    H236421   2.738   5.544   5.913
12160TIP3   OH236422   2.090   6.800   5.540
12160TIP3    H136423   2.062   6.870   5.478
12160TIP3    H236424   2.074   6.844   5.627
12161TIP3   OH236425   2.190   5.514   5.778
12161TIP3    H136426   2.187   5.604   5.816
12161TIP3    H236427   2.286   5.497   5.785
12162TIP3   OH236428   3.444   6.004   6.681
12162TIP3    H136429   3.346   5.996   6.678
12162TIP3    H236430   3.467   5.976   6.591
12163TIP3   OH236431   1.808   6.427   5.532
12163TIP3    H136432   1.879   6.493   5.540
12163TIP3    H236433   1.850   6.369   5.465
12164TIP3   OH236434   1.750   5.704   5.667
12164TIP3    H136435   1.751   5.802   5.663
12164TIP3    H236436   1.671   5.683   5.617
12165TIP3   OH236437   3.064   7.155   6.010
12165TIP3    H136438   3.021   7.205   5.937
12165TIP3    H236439   3.158   7.178   5.991
12166TIP3   OH236440   2.140   5.425   6.537
12166TIP3    H136441   2.109   5.390   6.451
12166TIP3    H236442   2.130   5.347   6.596
12167TIP3   OH236443   1.674   6.638   5.916
12167TIP3    H136444   1.618   6.677   5.984
12167TIP3    H236445   1.643   6.685   5.835
12168TIP3   OH236446   1.837   7.171   6.984
12168TIP3    H136447   1.924   7.173   7.029
12168TIP3    H236448   1.816   7.076   6.987
12169TIP3   OH236449   2.323   7.147   7.032
12169TIP3    H136450   2.416   7.118   7.041
12169TIP3    H236451   2.293   7.088   6.960
12170TIP3   OH236452   2.297   6.726   5.162
12170TIP3    H136453   2.244   6.652   5.200
12170TIP3    H236454   2.373   6.676   5.127
12171TIP3   OH236455   2.956   7.055   6.767
12171TIP3    H136456   2.948   6.986   6.837
12171TIP3    H236457   3.034   7.106   6.797
12172TIP3   OH236458   2.732   6.764   5.074
12172TIP3    H136459   2.778   6.701   5.134
12172TIP3    H236460   2.789   6.763   4.995
12173TIP3   OH236461   1.967   6.595   7.191
12173TIP3    H136462   1.982   6.499   7.198
12173TIP3    H236463   1.879   6.598   7.147
12174TIP3   OH236464   1.943   6.240   5.387
12174TIP3    H136465   2.000   6.209   5.459
12174TIP3    H236466   2.009   6.245   5.314
12175TIP3   OH236467   2.573   6.679   6.965
12175TIP3    H136468   2.532   6.697   6.878
12175TIP3    H236469   2.605   6.587   6.956
12176TIP3   OH236470   2.453   6.440   5.193
12176TIP3    H136471   2.458   6.453   5.290
12176TIP3    H236472   2.457   6.342   5.188
12177TIP3   OH236473   3.058   6.685   6.552
12177TIP3    H136474   3.139   6.729   6.520
12177TIP3    H236475   2.996   6.761   6.553
12178TIP3   OH236476   2.086   6.328   7.173
12178TIP3    H136477   2.163   6.274   7.149
12178TIP3    H236478   2.113   6.361   7.261
12179TIP3   OH236479   2.148   6.147   5.604
12179TIP3    H136480   2.124   6.103   5.687
12179TIP3    H236481   2.187   6.074   5.552
12180TIP3   OH236482   2.419   6.211   6.835
12180TIP3    H136483   2.342   6.271   6.837
12180TIP3    H236484   2.469   6.245   6.757
12181TIP3   OH236485   2.254   5.944   5.446
12181TIP3    H136486   2.229   5.947   5.352
12181TIP3    H236487   2.352   5.947   5.438
12182TIP3   OH236488   2.937   6.611   6.965
12182TIP3    H136489   3.026   6.594   6.933
12182TIP3    H236490   2.931   6.549   7.040
12183TIP3   OH236491   3.067   6.271   5.114
12183TIP3    H136492   3.052   6.225   5.029
12183TIP3    H236493   3.036   6.361   5.089
12184TIP3   OH236494   2.543   6.001   6.961
12184TIP3    H136495   2.544   5.922   6.903
12184TIP3    H236496   2.499   6.067   6.904
12185TIP3   OH236497   2.546   5.790   6.764
12185TIP3    H136498   2.573   5.821   6.677
12185TIP3    H236499   2.452   5.765   6.749
12186TIP3   OH236500   2.566   6.320   6.639
12186TIP3    H136501   2.647   6.332   6.589
12186TIP3    H236502   2.508   6.388   6.599
12187TIP3   OH236503   3.152   6.289   7.019
12187TIP3    H136504   3.200   6.206   7.038
12187TIP3    H236505   3.225   6.348   6.994
12188TIP3   OH236506   3.194   6.543   6.746
12188TIP3    H136507   3.137   6.597   6.687
12188TIP3    H236508   3.283   6.565   6.709
12189TIP3   OH236509   2.421   6.109   7.192
12189TIP3    H136510   2.353   6.039   7.208
12189TIP3    H236511   2.456   6.082   7.105
12190TIP3   OH236512   2.678   5.551   6.836
12190TIP3    H136513   2.628   5.632   6.815
12190TIP3    H236514   2.609   5.482   6.826
12191TIP3   OH236515   2.804   6.054   7.052
12191TIP3    H136516   2.796   6.040   7.148
12191TIP3    H236517   2.714   6.028   7.023
12192TIP3   OH236518   3.042   6.002   6.905
12192TIP3    H136519   2.968   6.003   6.969
12192TIP3    H236520   3.116   5.973   6.962
12193TIP3   OH236521   3.268   5.944   7.058
12193TIP3    H136522   3.282   5.849   7.075
12193TIP3    H236523   3.262   5.982   7.149
12194TIP3   OH236524   2.261   5.888   7.247
12194TIP3    H136525   2.266   5.797   7.214
12194TIP3    H236526   2.299   5.876   7.337
12195TIP3   OH236527   2.771   5.559   7.095
12195TIP3    H136528   2.838   5.489   7.090
12195TIP3    H236529   2.732   5.553   7.005
12196TIP3   OH236530   2.838   5.774   7.253
12196TIP3    H136531   2.817   5.702   7.189
12196TIP3    H236532   2.760   5.832   7.246
12197TIP3   OH236533   2.062   7.002   5.353
12197TIP3    H136534   2.157   6.995   5.333
12197TIP3    H236535   2.033   7.054   5.276
12198TIP3   OH236536   1.538   6.385   5.570
12198TIP3    H136537   1.632   6.407   5.553
12198TIP3    H236538   1.532   6.297   5.526
12199TIP3   OH236539   1.457   6.993   5.985
12199TIP3    H136540   1.391   6.932   5.945
12199TIP3    H236541   1.500   6.935   6.051
12200TIP3   OH236542   1.592   6.839   6.170
12200TIP3    H136543   1.583   6.772   6.240
12200TIP3    H236544   1.640   6.908   6.219
12201TIP3   OH236545   3.313   7.259   5.969
12201TIP3    H136546   3.350   7.282   6.056
12201TIP3    H236547   3.386   7.280   5.909
12202TIP3   OH236548   3.347   7.269   6.254
12202TIP3    H136549   3.304   7.181   6.249
12202TIP3    H236550   3.425   7.245   6.308
12203TIP3   OH236551   3.387   6.948   6.820
12203TIP3    H136552   3.319   6.956   6.890
12203TIP3    H236553   3.433   7.034   6.828
12204TIP3   OH236554   3.205   6.465   5.440
12204TIP3    H136555   3.277   6.524   5.409
12204TIP3    H236556   3.247   6.428   5.522
12205TIP3   OH236557   3.323   6.343   5.647
12205TIP3    H136558   3.283   6.267   5.690
12205TIP3    H236559   3.411   6.340   5.690
12206TIP3   OH236560   3.391   6.714   6.068
12206TIP3    H136561   3.447   6.646   6.024
12206TIP3    H236562   3.395   6.789   6.005
12207TIP3   OH236563   3.220   7.018   6.273
12207TIP3    H136564   3.149   7.060   6.325
12207TIP3    H236565   3.171   6.972   6.203
12208TIP3   OH236566   3.274   6.235   5.294
12208TIP3    H136567   3.201   6.238   5.228
12208TIP3    H236568   3.249   6.311   5.350
12209TIP3   OH236569   3.130   5.911   5.246
12209TIP3    H136570   3.103   5.941   5.158
12209TIP3    H236571   3.112   5.815   5.239
12210TIP3   OH236572   3.130   6.161   5.813
12210TIP3    H136573   3.148   6.072   5.778
12210TIP3    H236574   3.206   6.176   5.871
12211TIP3   OH236575   1.776   6.256   6.540
12211TIP3    H136576   1.773   6.222   6.448
12211TIP3    H236577   1.873   6.257   6.557
12212TIP3   OH236578   3.440   6.606   6.645
12212TIP3    H136579   3.511   6.538   6.638
12212TIP3    H236580   3.475   6.677   6.588
12213TIP3   OH236581   3.620   6.406   6.659
12213TIP3    H136582   3.548   6.356   6.703
12213TIP3    H236583   3.695   6.346   6.678
12214TIP3   OH236584   3.088   5.643   5.236
12214TIP3    H136585   3.167   5.611   5.286
12214TIP3    H236586   3.021   5.577   5.256
12215TIP3   OH236587   3.153   5.904   5.679
12215TIP3    H136588   3.192   5.816   5.698
12215TIP3    H236589   3.211   5.933   5.606
12216TIP3   OH236590   3.303   6.077   6.178
12216TIP3    H136591   3.389   6.098   6.136
12216TIP3    H236592   3.320   6.114   6.266
12217TIP3   OH236593   3.381   6.215   6.416
12217TIP3    H136594   3.307   6.254   6.466
12217TIP3    H236595   3.417   6.293   6.368
12218TIP3   OH236596   1.995   5.941   7.216
12218TIP3    H136597   2.092   5.935   7.220
12218TIP3    H236598   1.970   5.855   7.255
12219TIP3   OH236599   3.253   5.651   5.728
12219TIP3    H136600   3.304   5.634   5.810
12219TIP3    H236601   3.194   5.573   5.725
12220TIP3   OH236602   1.955   5.634   6.544
12220TIP3    H136603   2.017   5.558   6.555
12220TIP3    H236604   2.018   5.708   6.538
12221TIP3   OH236605   1.756   5.907   6.617
12221TIP3    H136606   1.806   5.903   6.533
12221TIP3    H236607   1.787   5.990   6.654
12222TIP3   OH236608   3.706   5.938   6.807
12222TIP3    H136609   3.624   5.983   6.837
12222TIP3    H236610   3.670   5.877   6.740
12223TIP3   OH236611   3.333   5.580   5.360
12223TIP3    H136612   3.377   5.513   5.304
12223TIP3    H236613   3.398   5.654   5.358
12224TIP3   OH236614   1.742   5.410   6.120
12224TIP3    H136615   1.649   5.405   6.148
12224TIP3    H236616   1.737   5.468   6.041
12225TIP3   OH236617   2.899   7.120   5.628
12225TIP3    H136618   2.944   7.100   5.543
12225TIP3    H236619   2.963   7.179   5.669
12226TIP3   OH236620   1.962   5.493   6.935
12226TIP3    H136621   1.911   5.485   7.016
12226TIP3    H236622   1.895   5.529   6.874
12227TIP3   OH236623   2.005   6.913   7.008
12227TIP3    H136624   1.911   6.892   6.992
12227TIP3    H236625   2.011   6.899   7.104
12228TIP3   OH236626   2.182   6.952   6.558
12228TIP3    H136627   2.132   7.028   6.521
12228TIP3    H236628   2.267   6.968   6.512
12229TIP3   OH236629   2.624   7.194   6.693
12229TIP3    H136630   2.665   7.193   6.783
12229TIP3    H236631   2.691   7.247   6.644
12230TIP3   OH236632   2.804   7.349   6.555
12230TIP3    H136633   2.877   7.297   6.516
12230TIP3    H236634   2.854   7.406   6.617
12231TIP3   OH236635   3.596   5.705   6.655
12231TIP3    H136636   3.507   5.701   6.614
12231TIP3    H236637   3.628   5.613   6.640
12232TIP3   OH236638   1.858   7.208   6.585
12232TIP3    H136639   1.768   7.239   6.560
12232TIP3    H236640   1.872   7.259   6.666
12233TIP3   OH236641   2.092   7.187   6.441
12233TIP3    H136642   2.006   7.199   6.487
12233TIP3    H236643   2.070   7.220   6.352
12234TIP3   OH236644   2.519   7.215   6.237
12234TIP3    H136645   2.447   7.236   6.175
12234TIP3    H236646   2.529   7.300   6.285
12235TIP3   OH236647   2.788   7.149   6.288
12235TIP3    H136648   2.694   7.171   6.269
12235TIP3    H236649   2.834   7.224   6.246
12236TIP3   OH236650   2.988   7.342   6.201
12236TIP3    H136651   2.979   7.428   6.153
12236TIP3    H236652   3.019   7.283   6.129
12237TIP3   OH236653   1.768   7.002   6.323
12237TIP3    H136654   1.792   6.974   6.414
12237TIP3    H236655   1.841   6.958   6.274
12238TIP3   OH236656   1.963   6.874   6.184
12238TIP3    H136657   1.977   6.790   6.234
12238TIP3    H236658   2.054   6.910   6.182
12239TIP3   OH236659   2.231   6.970   6.188
12239TIP3    H136660   2.258   6.876   6.179
12239TIP3    H236661   2.276   6.991   6.272
12240TIP3   OH236662   2.780   5.614   6.256
12240TIP3    H136663   2.755   5.547   6.322
12240TIP3    H236664   2.868   5.581   6.226
12241TIP3   OH236665   3.321   5.502   6.178
12241TIP3    H136666   3.361   5.554   6.105
12241TIP3    H236667   3.228   5.532   6.174
12242TIP3   OH236668   3.419   5.599   5.944
12242TIP3    H136669   3.492   5.547   5.904
12242TIP3    H236670   3.455   5.690   5.929
12243TIP3   OH236671   2.051   5.331   6.289
12243TIP3    H136672   1.959   5.297   6.293
12243TIP3    H236673   2.101   5.246   6.286
12244TIP3   OH236674   1.837   5.204   5.939
12244TIP3    H136675   1.868   5.261   5.866
12244TIP3    H236676   1.811   5.269   6.006
12245TIP3   OH236677   2.497   5.367   6.172
12245TIP3    H136678   2.556   5.412   6.110
12245TIP3    H236679   2.529   5.398   6.257
12246TIP3   OH236680   3.028   5.515   6.160
12246TIP3    H136681   3.044   5.480   6.072
12246TIP3    H236682   3.022   5.433   6.214
12247TIP3   OH236683   3.071   5.437   5.717
12247TIP3    H136684   2.987   5.483   5.734
12247TIP3    H236685   3.057   5.353   5.765
12248TIP3   OH236686   1.552   6.779   5.720
12248TIP3    H136687   1.468   6.750   5.680
12248TIP3    H236688   1.549   6.873   5.695
12249TIP3   OH236689   1.958   5.363   5.700
12249TIP3    H136690   2.005   5.299   5.644
12249TIP3    H236691   2.032   5.415   5.736
12250TIP3   OH236692   2.467   5.538   5.801
12250TIP3    H136693   2.528   5.492   5.861
12250TIP3    H236694   2.487   5.631   5.825
12251TIP3   OH236695   2.329   6.959   5.302
12251TIP3    H136696   2.417   6.981   5.265
12251TIP3    H236697   2.306   6.885   5.242
12252TIP3   OH236698   3.043   7.081   5.396
12252TIP3    H136699   3.036   6.983   5.381
12252TIP3    H236700   3.003   7.115   5.314
12253TIP3   OH236701   2.259   5.614   7.182
12253TIP3    H136702   2.225   5.543   7.239
12253TIP3    H236703   2.353   5.614   7.209
12254TIP3   OH236704   2.509   5.611   7.300
12254TIP3    H136705   2.594   5.585   7.261
12254TIP3    H236706   2.496   5.540   7.367
12255TIP3   OH236707   1.630   6.794   5.355
12255TIP3    H136708   1.638   6.826   5.446
12255TIP3    H236709   1.718   6.752   5.340
12256TIP3   OH236710   3.335   5.673   7.088
12256TIP3    H136711   3.352   5.643   7.180
12256TIP3    H236712   3.424   5.663   7.048
12257TIP3   OH236713   3.270   7.225   6.580
12257TIP3    H136714   3.191   7.194   6.531
12257TIP3    H236715   3.252   7.320   6.586
12258TIP3   OH236716   4.544   6.602   5.352
12258TIP3    H136717   4.516   6.692   5.329
12258TIP3    H236718   4.481   6.548   5.300
12259TIP3   OH236719   4.533   6.605   5.733
12259TIP3    H136720   4.570   6.569   5.815
12259TIP3    H236721   4.500   6.525   5.689
12260TIP3   OH236722   3.836   6.501   6.099
12260TIP3    H136723   3.867   6.429   6.156
12260TIP3    H236724   3.920   6.534   6.062
12261TIP3   OH236725   4.777   6.912   5.402
12261TIP3    H136726   4.768   6.834   5.459
12261TIP3    H236727   4.811   6.979   5.464
12262TIP3   OH236728   3.810   6.906   5.818
12262TIP3    H136729   3.804   6.807   5.817
12262TIP3    H236730   3.906   6.915   5.810
12263TIP3   OH236731   4.434   7.362   5.425
12263TIP3    H136732   4.479   7.287   5.380
12263TIP3    H236733   4.427   7.330   5.515
12264TIP3   OH236734   4.335   6.824   5.777
12264TIP3    H136735   4.376   6.746   5.736
12264TIP3    H236736   4.418   6.871   5.801
12265TIP3   OH236737   5.354   6.143   5.775
12265TIP3    H136738   5.382   6.228   5.816
12265TIP3    H236739   5.367   6.164   5.681
12266TIP3   OH236740   4.741   6.319   5.811
12266TIP3    H136741   4.789   6.235   5.825
12266TIP3    H236742   4.720   6.312   5.716
12267TIP3   OH236743   4.090   5.987   5.768
12267TIP3    H136744   4.067   6.060   5.707
12267TIP3    H236745   4.041   5.913   5.725
12268TIP3   OH236746   4.782   6.073   5.395
12268TIP3    H136747   4.858   6.062   5.457
12268TIP3    H236748   4.828   6.112   5.318
12269TIP3   OH236749   4.158   6.385   5.681
12269TIP3    H136750   4.253   6.360   5.690
12269TIP3    H236751   4.120   6.302   5.644
12270TIP3   OH236752   5.427   6.351   5.947
12270TIP3    H136753   5.344   6.398   5.922
12270TIP3    H236754   5.443   6.387   6.036
12271TIP3   OH236755   4.087   5.964   6.215
12271TIP3    H136756   4.033   5.998   6.140
12271TIP3    H236757   4.029   5.989   6.290
12272TIP3   OH236758   4.450   6.835   5.199
12272TIP3    H136759   4.390   6.788   5.138
12272TIP3    H236760   4.391   6.909   5.227
12273TIP3   OH236761   4.192   6.744   6.001
12273TIP3    H136762   4.130   6.812   6.035
12273TIP3    H236763   4.235   6.791   5.927
12274TIP3   OH236764   4.992   6.079   5.570
12274TIP3    H136765   4.971   6.042   5.657
12274TIP3    H236766   5.041   6.160   5.594
12275TIP3   OH236767   3.961   6.067   5.999
12275TIP3    H136768   4.006   6.152   6.011
12275TIP3    H236769   4.003   6.037   5.916
12276TIP3   OH236770   4.020   6.938   6.101
12276TIP3    H136771   3.997   7.025   6.064
12276TIP3    H236772   3.939   6.922   6.155
12277TIP3   OH236773   3.408   6.629   5.334
12277TIP3    H136774   3.372   6.658   5.247
12277TIP3    H236775   3.444   6.713   5.370
12278TIP3   OH236776   4.853   7.145   5.574
12278TIP3    H136777   4.764   7.134   5.615
12278TIP3    H236778   4.843   7.233   5.532
12279TIP3   OH236779   5.146   6.040   5.939
12279TIP3    H136780   5.058   6.068   5.907
12279TIP3    H236781   5.205   6.074   5.868
12280TIP3   OH236782   4.441   5.685   5.925
12280TIP3    H136783   4.423   5.590   5.938
12280TIP3    H236784   4.362   5.724   5.969
12281TIP3   OH236785   4.556   7.184   5.245
12281TIP3    H136786   4.613   7.106   5.240
12281TIP3    H236787   4.614   7.252   5.204
12282TIP3   OH236788   4.700   6.930   5.139
12282TIP3    H136789   4.610   6.899   5.160
12282TIP3    H236790   4.741   6.925   5.228
12283TIP3   OH236791   5.079   7.054   5.919
12283TIP3    H136792   5.066   6.977   5.860
12283TIP3    H236793   5.060   7.129   5.858
12284TIP3   OH236794   4.377   6.464   5.177
12284TIP3    H136795   4.292   6.508   5.158
12284TIP3    H236796   4.390   6.414   5.093
12285TIP3   OH236797   5.274   6.696   5.769
12285TIP3    H136798   5.188   6.745   5.771
12285TIP3    H236799   5.302   6.716   5.677
12286TIP3   OH236800   4.952   6.569   6.063
12286TIP3    H136801   4.947   6.654   6.110
12286TIP3    H236802   4.866   6.570   6.016
12287TIP3   OH236803   3.952   6.532   5.562
12287TIP3    H136804   3.910   6.471   5.497
12287TIP3    H236805   4.025   6.477   5.597
12288TIP3   OH236806   4.079   6.942   5.713
12288TIP3    H136807   4.059   6.899   5.629
12288TIP3    H236808   4.168   6.907   5.733
12289TIP3   OH236809   4.083   6.500   5.929
12289TIP3    H136810   4.111   6.475   5.838
12289TIP3    H236811   4.126   6.587   5.941
12290TIP3   OH236812   4.613   7.137   5.694
12290TIP3    H136813   4.595   7.219   5.743
12290TIP3    H236814   4.596   7.067   5.759
12291TIP3   OH236815   4.223   7.055   6.248
12291TIP3    H136816   4.162   7.119   6.291
12291TIP3    H236817   4.159   7.002   6.196
12292TIP3   OH236818   3.985   6.609   6.358
12292TIP3    H136819   3.986   6.699   6.396
12292TIP3    H236820   3.889   6.593   6.350
12293TIP3   OH236821   4.304   7.065   5.249
12293TIP3    H136822   4.382   7.121   5.264
12293TIP3    H236823   4.240   7.126   5.211
12294TIP3   OH236824   4.017   7.225   6.331
12294TIP3    H136825   3.987   7.225   6.238
12294TIP3    H236826   3.935   7.203   6.380
12295TIP3   OH236827   5.073   5.628   5.025
12295TIP3    H136828   4.991   5.650   5.074
12295TIP3    H236829   5.088   5.711   4.975
12296TIP3   OH236830   3.824   6.371   5.361
12296TIP3    H136831   3.748   6.409   5.312
12296TIP3    H236832   3.785   6.293   5.402
12297TIP3   OH236833   4.872   6.998   4.575
12297TIP3    H136834   4.881   7.094   4.558
12297TIP3    H236835   4.963   6.967   4.556
12298TIP3   OH236836   3.595   6.756   6.279
12298TIP3    H136837   3.543   6.728   6.201
12298TIP3    H236838   3.638   6.672   6.306
12299TIP3   OH236839   3.455   6.947   5.915
12299TIP3    H136840   3.548   6.930   5.893
12299TIP3    H236841   3.463   7.024   5.972
12300TIP3   OH236842   5.315   7.403   5.966
12300TIP3    H136843   5.315   7.307   5.979
12300TIP3    H236844   5.232   7.427   6.012
12301TIP3   OH236845   4.424   7.174   6.100
12301TIP3    H136846   4.427   7.268   6.129
12301TIP3    H236847   4.351   7.140   6.155
12302TIP3   OH236848   4.184   7.315   5.051
12302TIP3    H136849   4.135   7.296   4.970
12302TIP3    H236850   4.149   7.403   5.077
12303TIP3   OH236851   3.621   7.162   5.438
12303TIP3    H136852   3.669   7.153   5.524
12303TIP3    H236853   3.573   7.078   5.435
12304TIP3   OH236854   4.383   7.217   4.692
12304TIP3    H136855   4.441   7.146   4.656
12304TIP3    H236856   4.417   7.226   4.783
12305TIP3   OH236857   4.435   7.265   4.962
12305TIP3    H136858   4.346   7.275   5.002
12305TIP3    H236859   4.484   7.226   5.036
12306TIP3   OH236860   5.204   6.531   6.241
12306TIP3    H136861   5.123   6.543   6.190
12306TIP3    H236862   5.219   6.435   6.231
12307TIP3   OH236863   3.800   6.941   6.267
12307TIP3    H136864   3.853   6.920   6.347
12307TIP3    H236865   3.727   6.876   6.273
12308TIP3   OH236866   4.202   5.761   6.051
12308TIP3    H136867   4.112   5.732   6.024
12308TIP3    H236868   4.178   5.844   6.096
12309TIP3   OH236869   4.736   5.876   6.246
12309TIP3    H136870   4.804   5.849   6.310
12309TIP3    H236871   4.652   5.857   6.292
12310TIP3   OH236872   4.973   6.306   6.164
12310TIP3    H136873   4.922   6.304   6.248
12310TIP3    H236874   4.950   6.393   6.126
12311TIP3   OH236875   4.651   6.488   4.692
12311TIP3    H136876   4.613   6.421   4.634
12311TIP3    H236877   4.744   6.488   4.667
12312TIP3   OH236878   4.345   5.805   5.022
12312TIP3    H136879   4.312   5.805   5.114
12312TIP3    H236880   4.305   5.722   4.990
12313TIP3   OH236881   4.136   6.277   6.071
12313TIP3    H136882   4.080   6.295   6.150
12313TIP3    H236883   4.119   6.357   6.018
12314TIP3   OH236884   4.022   6.168   5.577
12314TIP3    H136885   3.928   6.143   5.591
12314TIP3    H236886   4.036   6.124   5.490
12315TIP3   OH236887   4.500   6.252   5.313
12315TIP3    H136888   4.455   6.327   5.270
12315TIP3    H236889   4.554   6.218   5.238
12316TIP3   OH236890   4.682   6.526   6.397
12316TIP3    H136891   4.659   6.453   6.458
12316TIP3    H236892   4.776   6.539   6.418
12317TIP3   OH236893   4.661   6.276   5.549
12317TIP3    H136894   4.603   6.310   5.477
12317TIP3    H236895   4.693   6.195   5.504
12318TIP3   OH236896   3.952   6.309   6.277
12318TIP3    H136897   3.986   6.371   6.343
12318TIP3    H236898   3.941   6.227   6.327
12319TIP3   OH236899   4.001   5.783   4.988
12319TIP3    H136900   3.992   5.784   5.086
12319TIP3    H236901   3.924   5.838   4.962
12320TIP3   OH236902   3.544   5.822   5.864
12320TIP3    H136903   3.614   5.862   5.919
12320TIP3    H236904   3.590   5.804   5.780
12321TIP3   OH236905   3.508   5.806   5.378
12321TIP3    H136906   3.554   5.848   5.301
12321TIP3    H236907   3.449   5.880   5.403
12322TIP3   OH236908   4.677   6.522   5.973
12322TIP3    H136909   4.706   6.450   5.913
12322TIP3    H236910   4.644   6.469   6.048
12323TIP3   OH236911   4.347   5.977   5.643
12323TIP3    H136912   4.263   5.982   5.693
12323TIP3    H236913   4.413   5.987   5.714
12324TIP3   OH236914   3.783   6.050   5.615
12324TIP3    H136915   3.711   6.072   5.677
12324TIP3    H236916   3.799   5.955   5.627
12325TIP3   OH236917   4.048   6.034   5.339
12325TIP3    H136918   4.140   6.053   5.316
12325TIP3    H236919   3.998   6.059   5.258
12326TIP3   OH236920   4.838   6.059   5.848
12326TIP3    H136921   4.803   6.074   5.938
12326TIP3    H236922   4.769   6.001   5.812
12327TIP3   OH236923   3.894   6.069   5.116
12327TIP3    H136924   3.822   6.026   5.067
12327TIP3    H236925   3.945   6.109   5.043
12328TIP3   OH236926   5.008   7.749   6.066
12328TIP3    H136927   5.004   7.773   5.972
12328TIP3    H236928   5.089   7.796   6.095
12329TIP3   OH236929   3.961   6.862   6.486
12329TIP3    H136930   4.042   6.891   6.532
12329TIP3    H236931   3.898   6.860   6.560
12330TIP3   OH236932   4.426   6.311   5.738
12330TIP3    H136933   4.503   6.280   5.688
12330TIP3    H236934   4.440   6.269   5.825
12331TIP3   OH236935   3.952   5.798   5.628
12331TIP3    H136936   3.917   5.717   5.672
12331TIP3    H236937   3.989   5.763   5.546
12332TIP3   OH236938   4.403   6.208   6.037
12332TIP3    H136939   4.313   6.245   6.046
12332TIP3    H236940   4.459   6.274   6.083
12333TIP3   OH236941   4.133   6.608   5.122
12333TIP3    H136942   4.064   6.538   5.112
12333TIP3    H236943   4.115   6.638   5.215
12334TIP3   OH236944   5.039   6.838   5.754
12334TIP3    H136945   5.063   6.885   5.672
12334TIP3    H236946   4.954   6.795   5.729
12335TIP3   OH236947   4.589   5.920   4.984
12335TIP3    H136948   4.494   5.899   4.994
12335TIP3    H236949   4.594   6.013   5.014
12336TIP3   OH236950   4.539   6.917   6.124
12336TIP3    H136951   4.565   6.906   6.216
12336TIP3    H236952   4.501   7.007   6.123
12337TIP3   OH236953   4.661   6.162   5.104
12337TIP3    H136954   4.755   6.183   5.090
12337TIP3    H236955   4.614   6.217   5.037
12338TIP3   OH236956   3.836   6.634   5.797
12338TIP3    H136957   3.867   6.601   5.711
12338TIP3    H236958   3.849   6.556   5.852
12339TIP3   OH236959   4.285   6.752   4.946
12339TIP3    H136960   4.237   6.837   4.954
12339TIP3    H236961   4.231   6.694   5.004
12340TIP3   OH236962   3.712   6.550   6.418
12340TIP3    H136963   3.737   6.535   6.511
12340TIP3    H236964   3.649   6.477   6.402
12341TIP3   OH236965   4.440   6.659   6.436
12341TIP3    H136966   4.379   6.603   6.385
12341TIP3    H236967   4.527   6.625   6.406
12342TIP3   OH236968   4.701   7.181   6.022
12342TIP3    H136969   4.604   7.178   6.032
12342TIP3    H236970   4.725   7.234   6.101
12343TIP3   OH236971   5.100   6.233   4.937
12343TIP3    H136972   5.039   6.202   4.866
12343TIP3    H236973   5.133   6.315   4.898
12344TIP3   OH236974   5.329   7.114   6.006
12344TIP3    H136975   5.231   7.106   5.998
12344TIP3    H236976   5.355   7.081   5.917
12345TIP3   OH236977   4.813   7.078   4.838
12345TIP3    H136978   4.771   7.014   4.897
12345TIP3    H236979   4.822   7.029   4.754
12346TIP3   OH236980   4.803   6.707   5.676
12346TIP3    H136981   4.710   6.681   5.685
12346TIP3    H236982   4.839   6.625   5.635
12347TIP3   OH236983   3.934   6.929   5.427
12347TIP3    H136984   3.931   7.010   5.374
12347TIP3    H236985   3.840   6.910   5.438
12348TIP3   OH236986   3.498   6.231   5.133
12348TIP3    H136987   3.545   6.313   5.156
12348TIP3    H236988   3.422   6.235   5.195
12349TIP3   OH236989   4.071   6.696   5.370
12349TIP3    H136990   4.034   6.784   5.392
12349TIP3    H236991   4.036   6.642   5.444
12350TIP3   OH236992   4.201   7.270   5.901
12350TIP3    H136993   4.236   7.354   5.865
12350TIP3    H236994   4.281   7.234   5.944
12351TIP3   OH236995   3.850   7.170   5.278
12351TIP3    H136996   3.766   7.176   5.326
12351TIP3    H236997   3.882   7.263   5.284
12352TIP3   OH236998   4.589   6.908   5.855
12352TIP3    H136999   4.580   6.903   5.953
12352TIP3    H237000   4.665   6.850   5.839
12353TIP3   OH237001   4.569   6.796   4.741
12353TIP3    H137002   4.609   6.716   4.778
12353TIP3    H237003   4.475   6.778   4.760
12354TIP3   OH237004   4.838   7.437   5.906
12354TIP3    H137005   4.759   7.380   5.900
12354TIP3    H237006   4.822   7.501   5.833
12355TIP3   OH237007   4.904   7.274   4.557
12355TIP3    H137008   4.942   7.348   4.508
12355TIP3    H237009   4.823   7.317   4.591
12356TIP3   OH237010   3.920   6.054   6.422
12356TIP3    H137011   3.823   6.055   6.431
12356TIP3    H237012   3.947   5.995   6.493
12357TIP3   OH237013   4.773   6.684   5.024
12357TIP3    H137014   4.678   6.676   5.027
12357TIP3    H237015   4.783   6.780   5.027
12358TIP3   OH237016   3.636   7.136   6.058
12358TIP3    H137017   3.691   7.060   6.085
12358TIP3    H237018   3.680   7.208   6.105
12359TIP3   OH237019   3.929   6.779   4.739
12359TIP3    H137020   3.943   6.687   4.711
12359TIP3    H237021   3.909   6.767   4.834
12360TIP3   OH237022   3.873   6.784   5.011
12360TIP3    H137023   3.949   6.752   5.062
12360TIP3    H237024   3.880   6.881   5.022
12361TIP3   OH237025   3.608   6.474   5.215
12361TIP3    H137026   3.542   6.519   5.273
12361TIP3    H237027   3.624   6.544   5.149
12362TIP3   OH237028   4.763   6.115   6.107
12362TIP3    H137029   4.845   6.153   6.143
12362TIP3    H237030   4.751   6.034   6.160
12363TIP3   OH237031   4.645   5.862   5.269
12363TIP3    H137032   4.626   5.889   5.177
12363TIP3    H237033   4.683   5.945   5.306
12364TIP3   OH237034   4.142   6.982   4.959
12364TIP3    H137035   4.055   7.007   4.995
12364TIP3    H237036   4.157   7.055   4.898
12365TIP3   OH237037   4.330   6.043   5.372
12365TIP3    H137038   4.391   6.117   5.352
12365TIP3    H237039   4.336   6.039   5.469
12366TIP3   OH237040   4.599   6.361   6.179
12366TIP3    H137041   4.625   6.413   6.258
12366TIP3    H237042   4.654   6.281   6.187
12367TIP3   OH237043   4.474   5.768   5.473
12367TIP3    H137044   4.457   5.847   5.528
12367TIP3    H237045   4.536   5.805   5.406
12368TIP3   OH237046   3.887   7.058   5.028
12368TIP3    H137047   3.856   7.129   4.966
12368TIP3    H237048   3.871   7.100   5.115
12369TIP3   OH237049   3.986   5.770   5.266
12369TIP3    H137050   3.982   5.861   5.301
12369TIP3    H237051   4.082   5.754   5.273
12370TIP3   OH237052   5.240   6.263   6.164
12370TIP3    H137053   5.142   6.261   6.169
12370TIP3    H237054   5.252   6.229   6.074
12371TIP3   OH237055   4.883   6.468   5.572
12371TIP3    H137056   4.818   6.401   5.549
12371TIP3    H237057   4.963   6.415   5.592
12372TIP3   OH237058   3.606   6.685   5.018
12372TIP3    H137059   3.680   6.747   5.028
12372TIP3    H237060   3.647   6.624   4.952
12373TIP3   OH237061   3.547   5.959   5.153
12373TIP3    H137062   3.550   6.057   5.151
12373TIP3    H237063   3.468   5.940   5.103
12374TIP3   OH237064   4.860   7.416   5.496
12374TIP3    H137065   4.817   7.463   5.421
12374TIP3    H237066   4.954   7.435   5.476
12375TIP3   OH237067   3.937   5.682   6.024
12375TIP3    H137068   3.905   5.651   5.936
12375TIP3    H237069   3.923   5.603   6.080
12376TIP3   OH237070   3.476   6.909   5.403
12376TIP3    H137071   3.404   6.933   5.463
12376TIP3    H237072   3.443   6.948   5.319
12377TIP3   OH237073   3.634   7.448   6.475
12377TIP3    H137074   3.720   7.447   6.522
12377TIP3    H237075   3.614   7.352   6.473
12378TIP3   OH237076   4.112   7.410   6.513
12378TIP3    H137077   4.205   7.387   6.525
12378TIP3    H237078   4.086   7.346   6.445
12379TIP3   OH237079   4.093   6.981   4.649
12379TIP3    H137080   4.037   6.910   4.689
12379TIP3    H237081   4.168   6.928   4.617
12380TIP3   OH237082   4.751   7.315   6.259
12380TIP3    H137083   4.744   7.244   6.327
12380TIP3    H237084   4.830   7.364   6.289
12381TIP3   OH237085   4.529   7.019   4.565
12381TIP3    H137086   4.570   6.954   4.625
12381TIP3    H237087   4.588   7.016   4.487
12382TIP3   OH237088   3.762   6.850   6.678
12382TIP3    H137089   3.779   6.755   6.686
12382TIP3    H237090   3.675   6.851   6.633
12383TIP3   OH237091   3.740   6.497   4.874
12383TIP3    H137092   3.796   6.464   4.947
12383TIP3    H237093   3.807   6.501   4.802
12384TIP3   OH237094   4.368   6.935   6.453
12384TIP3    H137095   4.327   6.956   6.366
12384TIP3    H237096   4.400   6.843   6.441
12385TIP3   OH237097   4.256   6.697   4.678
12385TIP3    H137098   4.256   6.708   4.776
12385TIP3    H237099   4.258   6.598   4.673
12386TIP3   OH237100   4.863   6.947   6.062
12386TIP3    H137101   4.937   6.990   6.014
12386TIP3    H237102   4.792   7.012   6.045
12387TIP3   OH237103   3.878   6.584   6.662
12387TIP3    H137104   3.956   6.537   6.630
12387TIP3    H237105   3.908   6.615   6.750
12388TIP3   OH237106   3.942   6.407   5.091
12388TIP3    H137107   3.917   6.370   5.178
12388TIP3    H237108   3.980   6.329   5.045
12389TIP3   OH237109   4.219   6.467   6.324
12389TIP3    H137110   4.141   6.526   6.327
12389TIP3    H237111   4.267   6.500   6.245
12390TIP3   OH237112   4.048   6.201   4.932
12390TIP3    H137113   4.023   6.206   4.837
12390TIP3    H237114   4.145   6.206   4.926
12391TIP3   OH237115   4.734   6.870   6.456
12391TIP3    H137116   4.809   6.840   6.403
12391TIP3    H237117   4.730   6.802   6.526
12392TIP3   OH237118   4.900   6.538   4.582
12392TIP3    H137119   4.869   6.487   4.505
12392TIP3    H237120   4.854   6.624   4.565
12393TIP3   OH237121   4.341   6.255   6.446
12393TIP3    H137122   4.342   6.178   6.386
12393TIP3    H237123   4.298   6.324   6.390
12394TIP3   OH237124   4.345   6.042   6.257
12394TIP3    H137125   4.371   6.086   6.173
12394TIP3    H237126   4.251   6.019   6.239
12395TIP3   OH237127   4.368   6.580   6.132
12395TIP3    H137128   4.451   6.590   6.084
12395TIP3    H237129   4.310   6.645   6.084
12396TIP3   OH237130   4.951   6.545   6.508
12396TIP3    H137131   4.999   6.461   6.513
12396TIP3    H237132   5.017   6.604   6.469
12397TIP3   OH237133   4.991   6.799   6.247
12397TIP3    H137134   4.934   6.854   6.188
12397TIP3    H237135   5.079   6.819   6.207
12398TIP3   OH237136   4.222   6.365   6.680
12398TIP3    H137137   4.148   6.302   6.692
12398TIP3    H237138   4.253   6.342   6.590
12399TIP3   OH237139   4.475   5.806   6.325
12399TIP3    H137140   4.427   5.888   6.299
12399TIP3    H237141   4.406   5.739   6.310
12400TIP3   OH237142   4.600   6.307   6.538
12400TIP3    H137143   4.585   6.296   6.634
12400TIP3    H237144   4.511   6.284   6.505
12401TIP3   OH237145   4.840   6.261   6.394
12401TIP3    H137146   4.764   6.261   6.455
12401TIP3    H237147   4.913   6.230   6.452
12402TIP3   OH237148   5.070   6.202   6.545
12402TIP3    H137149   5.082   6.106   6.561
12402TIP3    H237150   5.065   6.239   6.636
12403TIP3   OH237151   4.050   6.152   6.730
12403TIP3    H137152   4.059   6.062   6.692
12403TIP3    H237153   4.089   6.138   6.818
12404TIP3   OH237154   4.561   5.817   6.583
12404TIP3    H137155   4.629   5.746   6.579
12404TIP3    H237156   4.526   5.812   6.492
12405TIP3   OH237157   4.634   6.029   6.742
12405TIP3    H137158   4.613   5.960   6.676
12405TIP3    H237159   4.557   6.090   6.734
12406TIP3   OH237160   3.858   7.264   4.841
12406TIP3    H137161   3.953   7.253   4.822
12406TIP3    H237162   3.831   7.311   4.760
12407TIP3   OH237163   3.336   6.643   5.051
12407TIP3    H137164   3.431   6.663   5.039
12407TIP3    H237165   3.330   6.553   5.012
12408TIP3   OH237166   3.248   7.255   5.468
12408TIP3    H137167   3.185   7.192   5.429
12408TIP3    H237168   3.295   7.197   5.532
12409TIP3   OH237169   3.381   7.105   5.657
12409TIP3    H137170   3.375   7.030   5.718
12409TIP3    H237171   3.439   7.165   5.708
12410TIP3   OH237172   5.114   7.506   5.457
12410TIP3    H137173   5.140   7.536   5.546
12410TIP3    H237174   5.181   7.548   5.400
12411TIP3   OH237175   5.144   7.523   5.739
12411TIP3    H137176   5.097   7.438   5.734
12411TIP3    H237177   5.217   7.498   5.798
12412TIP3   OH237178   5.190   7.201   6.312
12412TIP3    H137179   5.117   7.210   6.377
12412TIP3    H237180   5.232   7.290   6.317
12413TIP3   OH237181   5.193   6.976   5.568
12413TIP3    H137182   5.239   6.903   5.521
12413TIP3    H237183   5.179   7.040   5.496
12414TIP3   OH237184   5.017   7.275   5.760
12414TIP3    H137185   4.945   7.315   5.812
12414TIP3    H237186   4.968   7.227   5.690
12415TIP3   OH237187   4.945   6.164   4.725
12415TIP3    H137188   4.885   6.199   4.658
12415TIP3    H237189   4.923   6.068   4.718
12416TIP3   OH237190   4.915   6.430   5.239
12416TIP3    H137191   4.929   6.335   5.252
12416TIP3    H237192   4.991   6.467   5.292
12417TIP3   OH237193   3.570   6.508   6.030
12417TIP3    H137194   3.565   6.442   5.957
12417TIP3    H237195   3.668   6.513   6.041
12418TIP3   OH237196   5.236   6.864   6.139
12418TIP3    H137197   5.307   6.797   6.127
12418TIP3    H237198   5.257   6.930   6.072
12419TIP3   OH237199   5.420   6.666   6.148
12419TIP3    H137200   5.345   6.618   6.188
12419TIP3    H237201   5.493   6.602   6.166
12420TIP3   OH237202   4.887   5.896   4.715
12420TIP3    H137203   4.954   5.863   4.778
12420TIP3    H237204   4.808   5.845   4.737
12421TIP3   OH237205   4.952   6.153   5.169
12421TIP3    H137206   4.988   6.063   5.188
12421TIP3    H237207   5.009   6.177   5.093
12422TIP3   OH237208   5.104   6.320   5.666
12422TIP3    H137209   5.188   6.347   5.622
12422TIP3    H237210   5.117   6.362   5.753
12423TIP3   OH237211   5.177   6.472   5.900
12423TIP3    H137212   5.098   6.505   5.946
12423TIP3    H237213   5.208   6.553   5.854
12424TIP3   OH237214   3.780   6.186   6.695
12424TIP3    H137215   3.877   6.191   6.700
12424TIP3    H237216   3.763   6.104   6.745
12425TIP3   OH237217   5.626   6.066   6.457
12425TIP3    H137218   5.685   6.001   6.413
12425TIP3    H237219   5.595   6.119   6.381
12426TIP3   OH237220   5.056   5.901   5.211
12426TIP3    H137221   5.100   5.886   5.297
12426TIP3    H237222   4.992   5.827   5.210
12427TIP3   OH237223   3.748   5.890   6.038
12427TIP3    H137224   3.817   5.821   6.042
12427TIP3    H237225   3.803   5.970   6.026
12428TIP3   OH237226   3.558   6.150   6.114
12428TIP3    H137227   3.561   6.160   6.016
12428TIP3    H237228   3.604   6.231   6.138
12429TIP3   OH237229   5.494   6.201   6.263
12429TIP3    H137230   5.407   6.244   6.280
12429TIP3    H237231   5.464   6.129   6.204
12430TIP3   OH237232   5.131   5.836   4.849
12430TIP3    H137233   5.170   5.767   4.791
12430TIP3    H237234   5.197   5.908   4.843
12431TIP3   OH237235   3.537   5.659   5.601
12431TIP3    H137236   3.445   5.665   5.633
12431TIP3    H237237   3.536   5.722   5.526
12432TIP3   OH237238   4.699   7.370   5.112
12432TIP3    H137239   4.752   7.363   5.030
12432TIP3    H237240   4.748   7.437   5.163
12433TIP3   OH237241   3.758   5.749   6.422
12433TIP3    H137242   3.703   5.747   6.502
12433TIP3    H237243   3.695   5.788   6.358
12434TIP3   OH237244   3.795   7.183   6.498
12434TIP3    H137245   3.704   7.151   6.481
12434TIP3    H237246   3.809   7.153   6.589
12435TIP3   OH237247   3.978   7.205   6.051
12435TIP3    H137248   3.926   7.272   6.001
12435TIP3    H237249   4.064   7.222   6.007
12436TIP3   OH237250   4.432   7.433   6.176
12436TIP3    H137251   4.469   7.457   6.263
12436TIP3    H237252   4.479   7.497   6.118
12437TIP3   OH237253   4.621   7.591   6.049
12437TIP3    H137254   4.697   7.542   6.016
12437TIP3    H237255   4.663   7.658   6.106
12438TIP3   OH237256   5.394   5.966   6.142
12438TIP3    H137257   5.304   5.961   6.104
12438TIP3    H237258   5.425   5.873   6.129
12439TIP3   OH237259   3.646   7.468   6.072
12439TIP3    H137260   3.558   7.505   6.051
12439TIP3    H237261   3.656   7.496   6.164
12440TIP3   OH237262   3.859   7.401   5.910
12440TIP3    H137263   3.784   7.440   5.959
12440TIP3    H237264   3.872   7.465   5.838
12441TIP3   OH237265   4.309   7.491   5.751
12441TIP3    H137266   4.247   7.513   5.680
12441TIP3    H237267   4.295   7.568   5.811
12442TIP3   OH237268   4.578   7.409   5.767
12442TIP3    H137269   4.484   7.435   5.768
12442TIP3    H237270   4.621   7.492   5.743
12443TIP3   OH237271   4.797   7.605   5.692
12443TIP3    H137272   4.778   7.687   5.643
12443TIP3    H237273   4.817   7.542   5.619
12444TIP3   OH237274   3.560   7.255   5.815
12444TIP3    H137275   3.592   7.232   5.904
12444TIP3    H237276   3.635   7.218   5.763
12445TIP3   OH237277   3.758   7.132   5.672
12445TIP3    H137278   3.774   7.048   5.721
12445TIP3    H237279   3.849   7.170   5.670
12446TIP3   OH237280   4.026   7.222   5.674
12446TIP3    H137281   4.056   7.130   5.668
12446TIP3    H237282   4.069   7.247   5.758
12447TIP3   OH237283   4.607   5.883   5.770
12447TIP3    H137284   4.559   5.811   5.815
12447TIP3    H237285   4.675   5.835   5.719
12448TIP3   OH237286   5.120   5.760   5.666
12448TIP3    H137287   5.157   5.813   5.591
12448TIP3    H237288   5.026   5.782   5.661
12449TIP3   OH237289   5.218   5.858   5.431
12449TIP3    H137290   5.292   5.808   5.390
12449TIP3    H237291   5.249   5.950   5.415
12450TIP3   OH237292   3.846   5.586   5.779
12450TIP3    H137293   3.754   5.554   5.779
12450TIP3    H237294   3.895   5.501   5.774
12451TIP3   OH237295   3.637   5.458   5.426
12451TIP3    H137296   3.667   5.515   5.352
12451TIP3    H237297   3.607   5.525   5.491
12452TIP3   OH237298   4.296   5.617   5.658
12452TIP3    H137299   4.350   5.668   5.595
12452TIP3    H237300   4.314   5.664   5.740
12453TIP3   OH237301   4.838   5.769   5.642
12453TIP3    H137302   4.834   5.733   5.552
12453TIP3    H237303   4.825   5.687   5.696
12454TIP3   OH237304   4.869   5.694   5.205
12454TIP3    H137305   4.784   5.740   5.219
12454TIP3    H237306   4.851   5.608   5.249
12455TIP3   OH237307   3.350   7.034   5.201
12455TIP3    H137308   3.263   7.003   5.168
12455TIP3    H237309   3.342   7.128   5.177
12456TIP3   OH237310   3.754   5.614   5.191
12456TIP3    H137311   3.803   5.555   5.131
12456TIP3    H237312   3.826   5.671   5.225
12457TIP3   OH237313   4.263   5.793   5.287
12457TIP3    H137314   4.326   5.750   5.347
12457TIP3    H237315   4.282   5.887   5.310
12458TIP3   OH237316   4.123   7.216   4.786
12458TIP3    H137317   4.211   7.238   4.750
12458TIP3    H237318   4.101   7.140   4.727
12459TIP3   OH237319   4.845   7.344   4.880
12459TIP3    H137320   4.840   7.246   4.868
12459TIP3    H237321   4.799   7.374   4.799
12460TIP3   OH237322   4.074   5.883   6.660
12460TIP3    H137323   4.036   5.805   6.703
12460TIP3    H237324   4.167   5.876   6.689
12461TIP3   OH237325   4.327   5.839   6.792
12461TIP3    H137326   4.394   5.854   6.723
12461TIP3    H237327   4.370   5.761   6.834
12462TIP3   OH237328   3.432   7.063   4.848
12462TIP3    H137329   3.437   7.063   4.944
12462TIP3    H237330   3.516   7.016   4.824
12463TIP3   OH237331   5.131   5.931   6.574
12463TIP3    H137332   5.150   5.900   6.665
12463TIP3    H237333   5.220   5.926   6.532
12464TIP3   OH237334   5.068   7.480   6.067
12464TIP3    H137335   4.989   7.448   6.018
12464TIP3    H237336   5.047   7.575   6.072
12465TIP3   OH237337   6.338   6.857   4.828
12465TIP3    H137338   6.307   6.948   4.808
12465TIP3    H237339   6.261   6.805   4.800
12466TIP3   OH237340   6.337   6.854   5.217
12466TIP3    H137341   6.370   6.829   5.305
12466TIP3    H237342   6.292   6.772   5.189
12467TIP3   OH237343   5.634   6.748   5.571
12467TIP3    H137344   5.660   6.678   5.633
12467TIP3    H237345   5.715   6.801   5.567
12468TIP3   OH237346   6.580   7.161   4.895
12468TIP3    H137347   6.562   7.089   4.958
12468TIP3    H237348   6.609   7.233   4.955
12469TIP3   OH237349   5.608   7.164   5.304
12469TIP3    H137350   5.599   7.066   5.304
12469TIP3    H237351   5.705   7.171   5.300
12470TIP3   OH237352   5.319   6.372   5.098
12470TIP3    H137353   5.296   6.448   5.157
12470TIP3    H237354   5.238   6.321   5.105
12471TIP3   OH237355   6.231   7.620   4.914
12471TIP3    H137356   6.274   7.545   4.868
12471TIP3    H237357   6.214   7.582   5.001
12472TIP3   OH237358   6.132   7.081   5.262
12472TIP3    H137359   6.170   7.003   5.218
12472TIP3    H237360   6.216   7.126   5.287
12473TIP3   OH237361   7.148   6.399   5.260
12473TIP3    H137362   7.177   6.482   5.304
12473TIP3    H237363   7.170   6.417   5.168
12474TIP3   OH237364   6.549   6.581   5.292
12474TIP3    H137365   6.589   6.495   5.313
12474TIP3    H237366   6.514   6.564   5.202
12475TIP3   OH237367   5.891   6.240   5.254
12475TIP3    H137368   5.865   6.313   5.194
12475TIP3    H237369   5.839   6.167   5.213
12476TIP3   OH237370   6.580   6.331   4.880
12476TIP3    H137371   6.651   6.317   4.946
12476TIP3    H237372   6.632   6.367   4.806
12477TIP3   OH237373   5.523   6.436   5.386
12477TIP3    H137374   5.611   6.409   5.415
12477TIP3    H237375   5.523   6.408   5.293
12478TIP3   OH237376   5.957   6.641   5.159
12478TIP3    H137377   6.050   6.615   5.174
12478TIP3    H237378   5.917   6.557   5.128
12479TIP3   OH237379   7.221   6.608   5.427
12479TIP3    H137380   7.135   6.653   5.413
12479TIP3    H237381   7.243   6.639   5.517
12480TIP3   OH237382   5.882   6.221   5.699
12480TIP3    H137383   5.825   6.256   5.628
12480TIP3    H237384   5.827   6.242   5.777
12481TIP3   OH237385   6.233   7.080   4.695
12481TIP3    H137386   6.182   7.054   4.618
12481TIP3    H237387   6.183   7.160   4.723
12482TIP3   OH237388   5.988   7.002   5.488
12482TIP3    H137389   5.925   7.068   5.524
12482TIP3    H237390   6.029   7.051   5.413
12483TIP3   OH237391   6.785   6.337   5.057
12483TIP3    H137392   6.769   6.292   5.141
12483TIP3    H237393   6.838   6.414   5.085
12484TIP3   OH237394   5.762   6.330   5.478
12484TIP3    H137395   5.820   6.406   5.500
12484TIP3    H237396   5.810   6.292   5.402
12485TIP3   OH237397   5.817   7.196   5.587
12485TIP3    H137398   5.789   7.283   5.550
12485TIP3    H237399   5.737   7.177   5.642
12486TIP3   OH237400   5.228   6.887   4.813
12486TIP3    H137401   5.162   6.916   4.749
12486TIP3    H237402   5.247   6.968   4.862
12487TIP3   OH237403   6.649   7.403   5.062
12487TIP3    H137404   6.559   7.392   5.103
12487TIP3    H237405   6.638   7.489   5.018
12488TIP3   OH237406   6.941   6.298   5.426
12488TIP3    H137407   6.854   6.326   5.395
12488TIP3    H237408   7.001   6.330   5.355
12489TIP3   OH237409   6.236   5.942   5.411
12489TIP3    H137410   6.219   5.847   5.427
12489TIP3    H237411   6.158   5.981   5.457
12490TIP3   OH237412   6.349   7.445   4.737
12490TIP3    H137413   6.399   7.362   4.720
12490TIP3    H237414   6.407   7.510   4.694
12491TIP3   OH237415   6.496   7.233   4.642
12491TIP3    H137416   6.443   7.156   4.616
12491TIP3    H237417   6.535   7.200   4.727
12492TIP3   OH237418   6.855   7.312   5.399
12492TIP3    H137419   6.848   7.234   5.341
12492TIP3    H237420   6.844   7.386   5.336
12493TIP3   OH237421   6.166   6.706   4.666
12493TIP3    H137422   6.084   6.755   4.645
12493TIP3    H237423   6.210   6.703   4.579
12494TIP3   OH237424   6.124   6.494   4.376
12494TIP3    H137425   6.191   6.543   4.426
12494TIP3    H237426   6.180   6.429   4.329
12495TIP3   OH237427   7.070   6.953   5.251
12495TIP3    H137428   6.985   7.002   5.258
12495TIP3    H237429   7.093   6.971   5.157
12496TIP3   OH237430   6.515   6.790   4.632
12496TIP3    H137431   6.459   6.814   4.710
12496TIP3    H237432   6.598   6.764   4.677
12497TIP3   OH237433   6.746   6.815   5.542
12497TIP3    H137434   6.747   6.894   5.599
12497TIP3    H237435   6.658   6.825   5.500
12498TIP3   OH237436   5.749   6.787   5.046
12498TIP3    H137437   5.706   6.727   4.982
12498TIP3    H237438   5.822   6.732   5.080
12499TIP3   OH237439   5.879   7.204   5.197
12499TIP3    H137440   5.854   7.157   5.116
12499TIP3    H237441   5.967   7.165   5.216
12500TIP3   OH237442   5.896   6.752   5.413
12500TIP3    H137443   5.915   6.735   5.318
12500TIP3    H237444   5.928   6.843   5.425
12501TIP3   OH237445   6.409   7.395   5.184
12501TIP3    H137446   6.394   7.473   5.239
12501TIP3    H237447   6.393   7.320   5.246
12502TIP3   OH237448   6.019   7.314   5.732
12502TIP3    H137449   5.958   7.376   5.777
12502TIP3    H237450   5.955   7.260   5.681
12503TIP3   OH237451   6.354   6.646   4.462
12503TIP3    H137452   6.413   6.706   4.513
12503TIP3    H237453   6.379   6.669   4.369
12504TIP3   OH237454   5.776   6.866   5.837
12504TIP3    H137455   5.779   6.955   5.878
12504TIP3    H237456   5.680   6.847   5.845
12505TIP3   OH237457   6.100   7.321   4.733
12505TIP3    H137458   6.177   7.378   4.751
12505TIP3    H237459   6.035   7.383   4.698
12506TIP3   OH237460   5.812   7.481   5.819
12506TIP3    H137461   5.778   7.481   5.728
12506TIP3    H237462   5.732   7.458   5.872
12507TIP3   OH237463   6.869   5.885   4.511
12507TIP3    H137464   6.788   5.906   4.561
12507TIP3    H237465   6.882   5.969   4.461
12508TIP3   OH237466   5.619   6.627   4.847
12508TIP3    H137467   5.546   6.669   4.796
12508TIP3    H237468   5.573   6.553   4.888
12509TIP3   OH237469   6.673   7.254   4.066
12509TIP3    H137470   6.686   7.349   4.047
12509TIP3    H237471   6.764   7.220   4.049
12510TIP3   OH237472   5.394   7.013   5.763
12510TIP3    H137473   5.326   6.994   5.695
12510TIP3    H237474   5.430   6.924   5.781
12511TIP3   OH237475   5.245   7.211   5.386
12511TIP3    H137476   5.341   7.195   5.385
12511TIP3    H237477   5.238   7.284   5.450
12512TIP3   OH237478   6.216   7.441   5.588
12512TIP3    H137479   6.214   7.534   5.620
12512TIP3    H237480   6.143   7.401   5.641
12513TIP3   OH237481   5.987   7.576   4.535
12513TIP3    H137482   5.931   7.553   4.458
12513TIP3    H237483   5.948   7.660   4.566
12514TIP3   OH237484   5.418   7.419   4.924
12514TIP3    H137485   5.462   7.410   5.011
12514TIP3    H237486   5.367   7.335   4.920
12515TIP3   OH237487   6.184   7.477   4.177
12515TIP3    H137488   6.238   7.402   4.144
12515TIP3    H237489   6.211   7.481   4.271
12516TIP3   OH237490   6.238   7.527   4.444
12516TIP3    H137491   6.146   7.540   4.479
12516TIP3    H237492   6.276   7.477   4.518
12517TIP3   OH237493   7.020   6.792   5.715
12517TIP3    H137494   6.932   6.805   5.677
12517TIP3    H237495   7.030   6.695   5.709
12518TIP3   OH237496   5.598   7.196   5.751
12518TIP3    H137497   5.647   7.178   5.833
12518TIP3    H237498   5.524   7.133   5.756
12519TIP3   OH237499   5.998   6.019   5.539
12519TIP3    H137500   5.910   5.988   5.511
12519TIP3    H237501   5.971   6.100   5.588
12520TIP3   OH237502   6.531   6.133   5.733
12520TIP3    H137503   6.600   6.105   5.797
12520TIP3    H237504   6.448   6.113   5.780
12521TIP3   OH237505   6.770   6.560   5.652
12521TIP3    H137506   6.719   6.561   5.736
12521TIP3    H237507   6.747   6.647   5.612
12522TIP3   OH237508   6.430   6.691   4.205
12522TIP3    H137509   6.396   6.667   4.117
12522TIP3    H237510   6.514   6.734   4.181
12523TIP3   OH237511   6.144   6.066   4.509
12523TIP3    H137512   6.109   6.064   4.601
12523TIP3    H237513   6.103   5.984   4.475
12524TIP3   OH237514   5.934   6.530   5.560
12524TIP3    H137515   5.878   6.550   5.638
12524TIP3    H237516   5.919   6.612   5.506
12525TIP3   OH237517   5.815   6.423   5.068
12525TIP3    H137518   5.722   6.398   5.089
12525TIP3    H237519   5.824   6.380   4.980
12526TIP3   OH237520   6.304   6.507   4.800
12526TIP3    H137521   6.251   6.578   4.757
12526TIP3    H237522   6.358   6.474   4.726
12527TIP3   OH237523   6.477   6.783   5.886
12527TIP3    H137524   6.455   6.709   5.947
12527TIP3    H237525   6.572   6.794   5.904
12528TIP3   OH237526   6.461   6.533   5.035
12528TIP3    H137527   6.397   6.560   4.966
12528TIP3    H237528   6.495   6.452   4.992
12529TIP3   OH237529   5.752   6.563   5.763
12529TIP3    H137530   5.766   6.628   5.833
12529TIP3    H237531   5.734   6.481   5.814
12530TIP3   OH237532   5.799   6.042   4.474
12530TIP3    H137533   5.789   6.040   4.572
12530TIP3    H237534   5.720   6.094   4.449
12531TIP3   OH237535   5.341   6.081   5.343
12531TIP3    H137536   5.413   6.117   5.399
12531TIP3    H237537   5.388   6.051   5.264
12532TIP3   OH237538   5.312   6.062   4.864
12532TIP3    H137539   5.352   6.106   4.786
12532TIP3    H237540   5.249   6.130   4.893
12533TIP3   OH237541   6.468   6.780   5.455
12533TIP3    H137542   6.503   6.708   5.398
12533TIP3    H237543   6.439   6.727   5.533
12534TIP3   OH237544   6.145   6.240   5.129
12534TIP3    H137545   6.061   6.240   5.180
12534TIP3    H237546   6.211   6.238   5.201
12535TIP3   OH237547   5.579   6.307   5.133
12535TIP3    H137548   5.484   6.320   5.111
12535TIP3    H237549   5.593   6.212   5.115
12536TIP3   OH237550   5.841   6.291   4.829
12536TIP3    H137551   5.934   6.310   4.806
12536TIP3    H237552   5.791   6.316   4.747
12537TIP3   OH237553   6.632   6.317   5.333
12537TIP3    H137554   6.600   6.331   5.425
12537TIP3    H237555   6.563   6.257   5.299
12538TIP3   OH237556   5.689   6.327   4.605
12538TIP3    H137557   5.617   6.283   4.557
12538TIP3    H237558   5.740   6.364   4.530
12539TIP3   OH237559   5.759   7.118   5.972
12539TIP3    H137560   5.837   7.150   6.021
12539TIP3    H237561   5.693   7.115   6.045
12540TIP3   OH237562   6.223   6.573   5.230
12540TIP3    H137563   6.295   6.529   5.183
12540TIP3    H237564   6.226   6.530   5.318
12541TIP3   OH237565   5.745   6.055   5.112
12541TIP3    H137566   5.707   5.979   5.160
12541TIP3    H237567   5.787   6.013   5.036
12542TIP3   OH237568   6.200   6.471   5.514
12542TIP3    H137569   6.109   6.503   5.531
12542TIP3    H237570   6.255   6.532   5.567
12543TIP3   OH237571   5.937   6.857   4.612
12543TIP3    H137572   5.864   6.792   4.601
12543TIP3    H237573   5.917   6.891   4.703
12544TIP3   OH237574   6.834   7.092   5.236
12544TIP3    H137575   6.857   7.141   5.154
12544TIP3    H237576   6.749   7.049   5.213
12545TIP3   OH237577   6.393   6.170   4.475
12545TIP3    H137578   6.297   6.150   4.487
12545TIP3    H237579   6.400   6.264   4.504
12546TIP3   OH237580   6.337   7.180   5.608
12546TIP3    H137581   6.359   7.155   5.699
12546TIP3    H237582   6.294   7.266   5.619
12547TIP3   OH237583   6.461   6.418   4.581
12547TIP3    H137584   6.558   6.424   4.597
12547TIP3    H237585   6.443   6.498   4.529
12548TIP3   OH237586   5.641   6.893   5.289
12548TIP3    H137587   5.667   6.853   5.204
12548TIP3    H237588   5.646   6.817   5.349
12549TIP3   OH237589   6.080   7.008   4.435
12549TIP3    H137590   6.032   7.094   4.441
12549TIP3    H237591   6.026   6.952   4.495
12550TIP3   OH237592   5.511   6.796   5.900
12550TIP3    H137593   5.521   6.779   5.996
12550TIP3    H237594   5.438   6.736   5.877
12551TIP3   OH237595   6.234   6.917   5.923
12551TIP3    H137596   6.171   6.857   5.878
12551TIP3    H237597   6.319   6.880   5.891
12552TIP3   OH237598   6.490   7.441   5.497
12552TIP3    H137599   6.394   7.434   5.512
12552TIP3    H237600   6.519   7.484   5.580
12553TIP3   OH237601   6.904   6.510   4.414
12553TIP3    H137602   6.842   6.465   4.352
12553TIP3    H237603   6.900   6.599   4.374
12554TIP3   OH237604   7.107   7.325   5.492
12554TIP3    H137605   7.012   7.339   5.469
12554TIP3    H237606   7.144   7.306   5.403
12555TIP3   OH237607   6.615   7.341   4.331
12555TIP3    H137608   6.585   7.274   4.395
12555TIP3    H237609   6.625   7.288   4.249
12556TIP3   OH237610   6.601   6.957   5.155
12556TIP3    H137611   6.508   6.932   5.171
12556TIP3    H237612   6.635   6.876   5.113
12557TIP3   OH237613   5.729   7.185   4.911
12557TIP3    H137614   5.722   7.267   4.859
12557TIP3    H237615   5.636   7.165   4.929
12558TIP3   OH237616   5.281   6.492   4.624
12558TIP3    H137617   5.340   6.568   4.646
12558TIP3    H237618   5.194   6.530   4.646
12559TIP3   OH237619   5.867   6.952   4.855
12559TIP3    H137620   5.830   7.040   4.876
12559TIP3    H237621   5.831   6.899   4.928
12560TIP3   OH237622   6.000   7.528   5.383
12560TIP3    H137623   6.042   7.600   5.332
12560TIP3    H237624   6.077   7.491   5.430
12561TIP3   OH237625   5.647   7.424   4.765
12561TIP3    H137626   5.562   7.431   4.813
12561TIP3    H237627   5.678   7.517   4.769
12562TIP3   OH237628   6.386   7.163   5.341
12562TIP3    H137629   6.375   7.163   5.439
12562TIP3    H237630   6.464   7.107   5.331
12563TIP3   OH237631   6.362   7.061   4.224
12563TIP3    H137632   6.416   7.034   4.302
12563TIP3    H237633   6.275   7.027   4.251
12564TIP3   OH237634   6.619   7.704   5.403
12564TIP3    H137635   6.548   7.638   5.389
12564TIP3    H237636   6.610   7.760   5.324
12565TIP3   OH237637   6.702   7.533   4.037
12565TIP3    H137638   6.748   7.609   3.998
12565TIP3    H237639   6.613   7.552   4.003
12566TIP3   OH237640   5.717   6.306   5.909
12566TIP3    H137641   5.619   6.310   5.918
12566TIP3    H237642   5.741   6.247   5.982
12567TIP3   OH237643   6.524   6.987   4.434
12567TIP3    H137644   6.512   6.924   4.508
12567TIP3    H237645   6.621   6.985   4.426
12568TIP3   OH237646   5.437   7.389   5.540
12568TIP3    H137647   5.490   7.315   5.574
12568TIP3    H237648   5.462   7.460   5.601
12569TIP3   OH237649   5.728   7.035   4.224
12569TIP3    H137650   5.739   6.942   4.198
12569TIP3    H237651   5.707   7.026   4.319
12570TIP3   OH237652   5.672   7.041   4.494
12570TIP3    H137653   5.738   7.011   4.558
12570TIP3    H237654   5.675   7.139   4.506
12571TIP3   OH237655   5.410   6.727   4.695
12571TIP3    H137656   5.347   6.774   4.754
12571TIP3    H237657   5.422   6.798   4.628
12572TIP3   OH237658   6.561   6.370   5.593
12572TIP3    H137659   6.641   6.408   5.632
12572TIP3    H237660   6.546   6.289   5.646
12573TIP3   OH237661   6.441   6.118   4.759
12573TIP3    H137662   6.426   6.142   4.666
12573TIP3    H237663   6.480   6.200   4.796
12574TIP3   OH237664   5.940   7.240   4.444
12574TIP3    H137665   5.853   7.261   4.482
12574TIP3    H237666   5.951   7.316   4.384
12575TIP3   OH237667   6.126   6.302   4.860
12575TIP3    H137668   6.190   6.375   4.844
12575TIP3    H237669   6.130   6.293   4.957
12576TIP3   OH237670   6.397   6.619   5.665
12576TIP3    H137671   6.418   6.671   5.745
12576TIP3    H237672   6.450   6.539   5.677
12577TIP3   OH237673   6.269   6.025   4.962
12577TIP3    H137674   6.258   6.103   5.018
12577TIP3    H237675   6.332   6.059   4.894
12578TIP3   OH237676   5.686   7.314   4.515
12578TIP3    H137677   5.654   7.383   4.453
12578TIP3    H237678   5.667   7.355   4.602
12579TIP3   OH237679   5.783   6.026   4.750
12579TIP3    H137680   5.779   6.116   4.788
12579TIP3    H237681   5.880   6.010   4.759
12580TIP3   OH237682   7.036   6.519   5.646
12580TIP3    H137683   6.938   6.519   5.655
12580TIP3    H237684   7.045   6.474   5.561
12581TIP3   OH237685   6.687   6.714   5.035
12581TIP3    H137686   6.610   6.655   5.048
12581TIP3    H237687   6.757   6.666   5.084
12582TIP3   OH237688   5.400   6.940   4.503
12582TIP3    H137689   5.468   7.008   4.514
12582TIP3    H237690   5.444   6.883   4.437
12583TIP3   OH237691   5.339   6.221   4.641
12583TIP3    H137692   5.333   6.318   4.641
12583TIP3    H237693   5.260   6.195   4.592
12584TIP3   OH237694   6.656   7.673   4.978
12584TIP3    H137695   6.616   7.718   4.901
12584TIP3    H237696   6.751   7.692   4.962
12585TIP3   OH237697   5.737   5.937   5.509
12585TIP3    H137698   5.702   5.905   5.423
12585TIP3    H237699   5.722   5.859   5.567
12586TIP3   OH237700   5.273   7.168   4.894
12586TIP3    H137701   5.206   7.192   4.959
12586TIP3    H237702   5.235   7.204   4.811
12587TIP3   OH237703   5.432   7.702   5.961
12587TIP3    H137704   5.517   7.698   6.009
12587TIP3    H237705   5.407   7.608   5.961
12588TIP3   OH237706   5.915   7.654   6.010
12588TIP3    H137707   6.009   7.632   6.001
12588TIP3    H237708   5.878   7.600   5.938
12589TIP3   OH237709   5.890   7.237   4.134
12589TIP3    H137710   5.832   7.168   4.175
12589TIP3    H237711   5.964   7.181   4.105
12590TIP3   OH237712   6.544   7.549   5.745
12590TIP3    H137713   6.523   7.481   5.813
12590TIP3    H237714   6.631   7.579   5.775
12591TIP3   OH237715   6.330   7.280   4.053
12591TIP3    H137716   6.363   7.207   4.110
12591TIP3    H237717   6.383   7.269   3.972
12592TIP3   OH237718   5.558   7.105   6.163
12592TIP3    H137719   5.574   7.009   6.167
12592TIP3    H237720   5.470   7.108   6.118
12593TIP3   OH237721   5.538   6.754   4.359
12593TIP3    H137722   5.592   6.722   4.434
12593TIP3    H237723   5.606   6.758   4.289
12594TIP3   OH237724   6.168   7.191   5.934
12594TIP3    H137725   6.121   7.206   5.849
12594TIP3    H237726   6.197   7.097   5.926
12595TIP3   OH237727   6.053   6.956   4.165
12595TIP3    H137728   6.051   6.968   4.263
12595TIP3    H237729   6.051   6.858   4.160
12596TIP3   OH237730   6.649   7.203   5.544
12596TIP3    H137731   6.724   7.248   5.499
12596TIP3    H237732   6.578   7.267   5.528
12597TIP3   OH237733   5.678   6.845   6.150
12597TIP3    H137734   5.752   6.789   6.123
12597TIP3    H237735   5.706   6.875   6.239
12598TIP3   OH237736   5.742   6.663   4.580
12598TIP3    H137737   5.712   6.627   4.665
12598TIP3    H237738   5.776   6.583   4.535
12599TIP3   OH237739   6.019   6.730   5.814
12599TIP3    H137740   5.936   6.783   5.813
12599TIP3    H237741   6.063   6.762   5.732
12600TIP3   OH237742   5.845   6.455   4.419
12600TIP3    H137743   5.819   6.461   4.325
12600TIP3    H237744   5.943   6.460   4.412
12601TIP3   OH237745   6.531   7.127   5.946
12601TIP3    H137746   6.615   7.107   5.903
12601TIP3    H237747   6.526   7.058   6.015
12602TIP3   OH237748   6.664   6.785   4.085
12602TIP3    H137749   6.644   6.738   4.002
12602TIP3    H237750   6.631   6.875   4.062
12603TIP3   OH237751   6.138   6.514   5.932
12603TIP3    H137752   6.136   6.436   5.874
12603TIP3    H237753   6.094   6.582   5.876
12604TIP3   OH237754   6.140   6.300   5.741
12604TIP3    H137755   6.166   6.341   5.656
12604TIP3    H237756   6.046   6.277   5.725
12605TIP3   OH237757   6.166   6.838   5.616
12605TIP3    H137758   6.247   6.846   5.566
12605TIP3    H237759   6.107   6.901   5.570
12606TIP3   OH237760   6.748   6.800   5.998
12606TIP3    H137761   6.793   6.715   5.990
12606TIP3    H237762   6.818   6.862   5.973
12607TIP3   OH237763   6.778   7.032   5.706
12607TIP3    H137764   6.722   7.094   5.654
12607TIP3    H237765   6.867   7.055   5.669
12608TIP3   OH237766   6.018   6.620   6.167
12608TIP3    H137767   5.948   6.553   6.182
12608TIP3    H237768   6.049   6.597   6.078
12609TIP3   OH237769   6.270   6.063   5.811
12609TIP3    H137770   6.222   6.145   5.787
12609TIP3    H237771   6.201   5.995   5.799
12610TIP3   OH237772   6.396   6.564   6.025
12610TIP3    H137773   6.378   6.549   6.120
12610TIP3    H237774   6.307   6.542   5.990
12611TIP3   OH237775   6.636   6.520   5.883
12611TIP3    H137776   6.559   6.517   5.943
12611TIP3    H237777   6.708   6.487   5.940
12612TIP3   OH237778   6.865   6.462   6.036
12612TIP3    H137779   6.877   6.366   6.051
12612TIP3    H237780   6.859   6.498   6.127
12613TIP3   OH237781   5.853   6.402   6.220
12613TIP3    H137782   5.857   6.310   6.185
12613TIP3    H237783   5.890   6.389   6.310
12614TIP3   OH237784   6.364   6.072   6.070
12614TIP3    H137785   6.430   6.001   6.062
12614TIP3    H237786   6.323   6.068   5.980
12615TIP3   OH237787   6.432   6.287   6.226
12615TIP3    H137788   6.409   6.216   6.163
12615TIP3    H237789   6.354   6.346   6.221
12616TIP3   OH237790   5.654   7.518   4.327
12616TIP3    H137791   5.749   7.510   4.305
12616TIP3    H237792   5.623   7.567   4.250
12617TIP3   OH237793   5.127   6.902   4.527
12617TIP3    H137794   5.223   6.921   4.526
12617TIP3    H237795   5.125   6.811   4.492
12618TIP3   OH237796   5.050   7.510   4.959
12618TIP3    H137797   4.982   7.450   4.921
12618TIP3    H237798   5.093   7.451   5.024
12619TIP3   OH237799   5.181   7.357   5.146
12619TIP3    H137800   5.173   7.286   5.211
12619TIP3    H237801   5.232   7.421   5.198
12620TIP3   OH237802   6.910   7.761   4.939
12620TIP3    H137803   6.932   7.788   5.030
12620TIP3    H237804   6.973   7.814   4.887
12621TIP3   OH237805   6.945   7.772   5.217
12621TIP3    H137806   6.901   7.683   5.221
12621TIP3    H237807   6.967   7.787   5.309
12622TIP3   OH237808   6.803   6.971   4.417
12622TIP3    H137809   6.872   7.034   4.389
12622TIP3    H237810   6.845   6.931   4.497
12623TIP3   OH237811   6.929   6.839   4.621
12623TIP3    H137812   6.863   6.795   4.680
12623TIP3    H237813   6.995   6.873   4.685
12624TIP3   OH237814   6.978   7.229   5.044
12624TIP3    H137815   7.034   7.164   4.998
12624TIP3    H237816   6.975   7.303   4.980
12625TIP3   OH237817   6.809   7.538   5.248
12625TIP3    H137818   6.738   7.570   5.307
12625TIP3    H237819   6.758   7.490   5.178
12626TIP3   OH237820   6.866   6.747   4.267
12626TIP3    H137821   6.794   6.749   4.201
12626TIP3    H237822   6.839   6.822   4.323
12627TIP3   OH237823   6.738   6.418   4.219
12627TIP3    H137824   6.691   6.453   4.142
12627TIP3    H237825   6.716   6.323   4.212
12628TIP3   OH237826   6.742   6.696   4.766
12628TIP3    H137827   6.749   6.599   4.760
12628TIP3    H237828   6.727   6.709   4.862
12629TIP3   OH237829   5.357   6.757   5.516
12629TIP3    H137830   5.331   6.706   5.436
12629TIP3    H237831   5.455   6.755   5.512
12630TIP3   OH237832   7.019   7.097   5.610
12630TIP3    H137833   7.104   7.057   5.634
12630TIP3    H237834   7.049   7.180   5.568
12631TIP3   OH237835   7.242   6.938   5.659
12631TIP3    H137836   7.159   6.892   5.686
12631TIP3    H237837   7.301   6.860   5.660
12632TIP3   OH237838   6.682   6.152   4.203
12632TIP3    H137839   6.754   6.121   4.260
12632TIP3    H237840   6.607   6.095   4.227
12633TIP3   OH237841   6.739   6.412   4.659
12633TIP3    H137842   6.780   6.324   4.675
12633TIP3    H237843   6.798   6.445   4.589
12634TIP3   OH237844   6.899   6.582   5.156
12634TIP3    H137845   6.985   6.608   5.115
12634TIP3    H237846   6.913   6.620   5.246
12635TIP3   OH237847   6.971   6.729   5.386
12635TIP3    H137848   6.892   6.759   5.436
12635TIP3    H237849   7.001   6.812   5.344
12636TIP3   OH237850   5.586   6.454   6.191
12636TIP3    H137851   5.684   6.448   6.193
12636TIP3    H237852   5.562   6.368   6.229
12637TIP3   OH237853   7.425   6.311   5.944
12637TIP3    H137854   7.477   6.244   5.895
12637TIP3    H237855   7.392   6.366   5.870
12638TIP3   OH237856   6.848   6.162   4.699
12638TIP3    H137857   6.896   6.145   4.783
12638TIP3    H237858   6.787   6.086   4.697
12639TIP3   OH237859   5.547   6.142   5.517
12639TIP3    H137860   5.615   6.072   5.526
12639TIP3    H237861   5.602   6.222   5.512
12640TIP3   OH237862   5.354   6.412   5.602
12640TIP3    H137863   5.398   6.410   5.514
12640TIP3    H237864   5.361   6.506   5.621
12641TIP3   OH237865   7.291   6.451   5.757
12641TIP3    H137866   7.210   6.495   5.790
12641TIP3    H237867   7.252   6.386   5.694
12642TIP3   OH237868   6.926   6.094   4.333
12642TIP3    H137869   6.966   6.023   4.279
12642TIP3    H237870   6.994   6.165   4.329
12643TIP3   OH237871   5.335   5.916   5.091
12643TIP3    H137872   5.243   5.915   5.122
12643TIP3    H237873   5.330   5.977   5.014
12644TIP3   OH237874   6.489   7.632   4.593
12644TIP3    H137875   6.563   7.596   4.542
12644TIP3    H237876   6.533   7.688   4.661
12645TIP3   OH237877   5.555   6.001   5.906
12645TIP3    H137878   5.503   6.000   5.988
12645TIP3    H237879   5.491   6.043   5.845
12646TIP3   OH237880   5.594   7.434   5.987
12646TIP3    H137881   5.502   7.409   5.967
12646TIP3    H237882   5.601   7.410   6.080
12647TIP3   OH237883   5.774   7.467   5.534
12647TIP3    H137884   5.724   7.542   5.495
12647TIP3    H237885   5.859   7.482   5.487
12648TIP3   OH237886   6.219   7.708   5.669
12648TIP3    H137887   6.254   7.709   5.760
12648TIP3    H237888   6.289   7.759   5.622
12649TIP3   OH237889   6.413   7.854   5.538
12649TIP3    H137890   6.476   7.798   5.489
12649TIP3    H237891   6.461   7.938   5.542
12650TIP3   OH237892   7.188   6.219   5.628
12650TIP3    H137893   7.099   6.209   5.591
12650TIP3    H237894   7.223   6.128   5.616
12651TIP3   OH237895   5.449   7.723   5.556
12651TIP3    H137896   5.359   7.754   5.533
12651TIP3    H237897   5.460   7.765   5.642
12652TIP3   OH237898   5.685   7.701   5.414
12652TIP3    H137899   5.598   7.713   5.459
12652TIP3    H237900   5.663   7.733   5.324
12653TIP3   OH237901   6.110   7.728   5.209
12653TIP3    H137902   6.037   7.746   5.147
12653TIP3    H237903   6.121   7.815   5.253
12654TIP3   OH237904   6.376   7.666   5.262
12654TIP3    H137905   6.282   7.685   5.241
12654TIP3    H237906   6.421   7.741   5.219
12655TIP3   OH237907   6.579   7.853   5.176
12655TIP3    H137908   6.565   7.937   5.126
12655TIP3    H237909   6.610   7.793   5.104
12656TIP3   OH237910   5.360   7.516   5.300
12656TIP3    H137911   5.386   7.486   5.390
12656TIP3    H237912   5.431   7.472   5.249
12657TIP3   OH237913   5.555   7.388   5.158
12657TIP3    H137914   5.568   7.304   5.208
12657TIP3    H237915   5.647   7.422   5.155
12658TIP3   OH237916   5.824   7.480   5.162
12658TIP3    H137917   5.851   7.386   5.153
12658TIP3    H237918   5.869   7.502   5.246
12659TIP3   OH237919   6.399   6.137   5.252
12659TIP3    H137920   6.354   6.067   5.302
12659TIP3    H237921   6.469   6.089   5.205
12660TIP3   OH237922   6.916   6.018   5.151
12660TIP3    H137923   6.952   6.070   5.076
12660TIP3    H237924   6.821   6.037   5.145
12661TIP3   OH237925   7.013   6.117   4.915
12661TIP3    H137926   7.087   6.065   4.877
12661TIP3    H237927   7.047   6.209   4.901
12662TIP3   OH237928   5.644   5.845   5.263
12662TIP3    H137929   5.551   5.812   5.265
12662TIP3    H237930   5.692   5.759   5.259
12663TIP3   OH237931   5.436   5.716   4.915
12663TIP3    H137932   5.461   5.774   4.841
12663TIP3    H237933   5.403   5.780   4.981
12664TIP3   OH237934   6.091   5.875   5.144
12664TIP3    H137935   6.148   5.926   5.083
12664TIP3    H237936   6.110   5.917   5.228
12665TIP3   OH237937   6.634   6.025   5.127
12665TIP3    H137938   6.633   5.985   5.040
12665TIP3    H237939   6.622   5.946   5.185
12666TIP3   OH237940   6.665   5.950   4.691
12666TIP3    H137941   6.579   5.993   4.708
12666TIP3    H237942   6.651   5.864   4.736
12667TIP3   OH237943   5.147   7.288   4.687
12667TIP3    H137944   5.062   7.255   4.653
12667TIP3    H237945   5.137   7.383   4.668
12668TIP3   OH237946   5.550   5.875   4.673
12668TIP3    H137947   5.599   5.812   4.617
12668TIP3    H237948   5.623   5.929   4.710
12669TIP3   OH237949   6.061   6.052   4.773
12669TIP3    H137950   6.119   6.005   4.835
12669TIP3    H237951   6.080   6.145   4.798
12670TIP3   OH237952   5.921   7.471   4.272
12670TIP3    H137953   6.006   7.497   4.232
12670TIP3    H237954   5.898   7.396   4.212
12671TIP3   OH237955   6.600   7.611   4.340
12671TIP3    H137956   6.643   7.522   4.343
12671TIP3    H237957   6.520   7.581   4.294
12672TIP3   OH237958   5.851   6.125   6.156
12672TIP3    H137959   5.817   6.055   6.213
12672TIP3    H237960   5.945   6.126   6.183
12673TIP3   OH237961   6.101   6.124   6.274
12673TIP3    H137962   6.186   6.099   6.233
12673TIP3    H237963   6.089   6.053   6.340
12674TIP3   OH237964   5.224   7.312   4.329
12674TIP3    H137965   5.223   7.330   4.424
12674TIP3    H237966   5.311   7.269   4.316
12675TIP3   OH237967   6.926   6.190   6.060
12675TIP3    H137968   6.946   6.158   6.151
12675TIP3    H237969   7.014   6.184   6.017
12676TIP3   OH237970   8.124   7.106   4.326
12676TIP3    H137971   8.087   7.194   4.305
12676TIP3    H237972   8.053   7.050   4.289
12677TIP3   OH237973   8.091   7.115   4.714
12677TIP3    H137974   8.155   7.068   4.769
12677TIP3    H237975   8.066   7.046   4.651
12678TIP3   OH237976   7.423   6.981   5.050
12678TIP3    H137977   7.451   6.917   5.118
12678TIP3    H237978   7.502   7.036   5.045
12679TIP3   OH237979   7.401   7.415   4.784
12679TIP3    H137980   7.392   7.317   4.787
12679TIP3    H237981   7.498   7.423   4.786
12680TIP3   OH237982   7.108   6.618   4.571
12680TIP3    H137983   7.059   6.700   4.589
12680TIP3    H237984   7.038   6.564   4.532
12681TIP3   OH237985   7.166   6.904   4.749
12681TIP3    H137986   7.215   6.827   4.786
12681TIP3    H237987   7.227   6.935   4.682
12682TIP3   OH237988   7.914   7.324   4.731
12682TIP3    H137989   7.978   7.251   4.714
12682TIP3    H237990   7.971   7.390   4.774
12683TIP3   OH237991   8.364   6.830   4.752
12683TIP3    H137992   8.385   6.737   4.772
12683TIP3    H237993   8.312   6.820   4.671
12684TIP3   OH237994   7.682   6.497   4.745
12684TIP3    H137995   7.662   6.569   4.682
12684TIP3    H237996   7.633   6.423   4.703
12685TIP3   OH237997   8.376   6.589   4.371
12685TIP3    H137998   8.448   6.567   4.434
12685TIP3    H237999   8.428   6.625   4.297
12686TIP3   OH238000   7.312   6.698   4.853
12686TIP3    H138001   7.396   6.680   4.901
12686TIP3    H238002   7.327   6.642   4.774
12687TIP3   OH238003   7.754   6.895   4.642
12687TIP3    H138004   7.848   6.869   4.657
12687TIP3    H238005   7.716   6.810   4.611
12688TIP3   OH238006   7.673   6.480   5.181
12688TIP3    H138007   7.613   6.516   5.113
12688TIP3    H238008   7.622   6.498   5.262
12689TIP3   OH238009   7.996   7.315   4.195
12689TIP3    H138010   7.959   7.306   4.107
12689TIP3    H238011   7.968   7.406   4.218
12690TIP3   OH238012   7.775   7.239   4.952
12690TIP3    H138013   7.718   7.315   4.973
12690TIP3    H238014   7.831   7.275   4.880
12691TIP3   OH238015   8.583   6.568   4.552
12691TIP3    H138016   8.540   6.535   4.632
12691TIP3    H238017   8.633   6.644   4.585
12692TIP3   OH238018   7.547   6.596   4.963
12692TIP3    H138019   7.610   6.667   4.988
12692TIP3    H238020   7.597   6.555   4.889
12693TIP3   OH238021   7.004   7.141   4.309
12693TIP3    H138022   6.965   7.168   4.225
12693TIP3    H238023   7.039   7.226   4.344
12694TIP3   OH238024   8.025   6.196   4.892
12694TIP3    H138025   8.013   6.101   4.913
12694TIP3    H238026   7.949   6.235   4.940
12695TIP3   OH238027   8.234   7.474   4.146
12695TIP3    H138028   8.201   7.393   4.105
12695TIP3    H238029   8.305   7.442   4.202
12696TIP3   OH238030   7.961   6.962   4.152
12696TIP3    H138031   7.881   7.016   4.130
12696TIP3    H238032   8.005   6.957   4.065
12697TIP3   OH238033   7.920   6.748   3.862
12697TIP3    H138034   7.988   6.800   3.910
12697TIP3    H238035   7.977   6.685   3.815
12698TIP3   OH238036   8.301   7.029   4.132
12698TIP3    H138037   8.250   7.052   4.213
12698TIP3    H238038   8.388   7.004   4.171
12699TIP3   OH238039   7.542   7.041   4.540
12699TIP3    H138040   7.501   6.983   4.472
12699TIP3    H238041   7.619   6.988   4.569
12700TIP3   OH238042   7.676   7.454   4.686
12700TIP3    H138043   7.645   7.420   4.600
12700TIP3    H238044   7.761   7.406   4.696
12701TIP3   OH238045   7.676   6.997   4.887
12701TIP3    H138046   7.709   6.974   4.797
12701TIP3    H238047   7.721   7.083   4.904
12702TIP3   OH238048   8.142   6.902   3.947
12702TIP3    H138049   8.204   6.954   4.003
12702TIP3    H238050   8.173   6.926   3.856
12703TIP3   OH238051   7.517   7.151   5.270
12703TIP3    H138052   7.469   7.214   5.216
12703TIP3    H238053   7.445   7.105   5.318
12704TIP3   OH238054   7.899   7.582   4.220
12704TIP3    H138055   7.952   7.652   4.259
12704TIP3    H238056   7.829   7.631   4.174
12705TIP3   OH238057   8.658   6.146   3.994
12705TIP3    H138058   8.579   6.155   4.051
12705TIP3    H238059   8.679   6.237   3.973
12706TIP3   OH238060   7.409   6.885   4.343
12706TIP3    H138061   7.340   6.927   4.288
12706TIP3    H238062   7.373   6.797   4.356
12707TIP3   OH238063   7.180   7.245   5.243
12707TIP3    H138064   7.110   7.232   5.176
12707TIP3    H238065   7.201   7.154   5.269
12708TIP3   OH238066   7.042   7.464   4.876
12708TIP3    H138067   7.139   7.457   4.877
12708TIP3    H238068   7.027   7.543   4.931
12709TIP3   OH238069   7.726   7.858   4.034
12709TIP3    H138070   7.722   7.812   3.948
12709TIP3    H238071   7.808   7.908   4.030
12710TIP3   OH238072   7.211   7.672   4.408
12710TIP3    H138073   7.258   7.667   4.494
12710TIP3    H238074   7.167   7.586   4.407
12711TIP3   OH238075   7.361   7.442   5.189
12711TIP3    H138076   7.433   7.450   5.253
12711TIP3    H238077   7.306   7.369   5.224
12712TIP3   OH238078   7.792   6.275   5.026
12712TIP3    H138079   7.703   6.245   4.998
12712TIP3    H238080   7.766   6.356   5.075
12713TIP3   OH238081   8.307   6.391   5.203
12713TIP3    H138082   8.377   6.386   5.270
12713TIP3    H238083   8.226   6.368   5.254
12714TIP3   OH238084   8.228   6.957   3.696
12714TIP3    H138085   8.187   6.926   3.612
12714TIP3    H238086   8.309   6.998   3.664
12715TIP3   OH238087   7.935   6.324   3.995
12715TIP3    H138088   7.903   6.321   4.087
12715TIP3    H238089   7.898   6.240   3.961
12716TIP3   OH238090   7.729   6.785   5.045
12716TIP3    H138091   7.677   6.807   5.125
12716TIP3    H238092   7.709   6.863   4.988
12717TIP3   OH238093   7.608   6.677   4.556
12717TIP3    H138094   7.516   6.650   4.575
12717TIP3    H238095   7.620   6.635   4.468
12718TIP3   OH238096   8.096   6.761   4.281
12718TIP3    H138097   8.044   6.832   4.236
12718TIP3    H238098   8.152   6.729   4.207
12719TIP3   OH238099   8.240   6.786   4.515
12719TIP3    H138100   8.179   6.807   4.441
12719TIP3    H238101   8.286   6.710   4.473
12720TIP3   OH238102   7.542   6.814   5.248
12720TIP3    H138103   7.594   6.871   5.306
12720TIP3    H238104   7.530   6.735   5.304
12721TIP3   OH238105   7.593   6.297   3.961
12721TIP3    H138106   7.585   6.295   4.059
12721TIP3    H238107   7.515   6.350   3.937
12722TIP3   OH238108   7.138   6.341   4.831
12722TIP3    H138109   7.212   6.373   4.886
12722TIP3    H238110   7.181   6.308   4.751
12723TIP3   OH238111   7.104   6.321   4.350
12723TIP3    H138112   7.150   6.359   4.273
12723TIP3    H238113   7.044   6.395   4.371
12724TIP3   OH238114   7.938   6.497   4.616
12724TIP3    H138115   7.857   6.497   4.671
12724TIP3    H238116   8.007   6.493   4.684
12725TIP3   OH238117   7.371   6.556   4.625
12725TIP3    H138118   7.276   6.562   4.597
12725TIP3    H238119   7.394   6.464   4.603
12726TIP3   OH238120   7.636   6.550   4.315
12726TIP3    H138121   7.731   6.565   4.295
12726TIP3    H238122   7.591   6.573   4.231
12727TIP3   OH238123   8.393   6.564   4.799
12727TIP3    H138124   8.367   6.577   4.893
12727TIP3    H238125   8.325   6.499   4.771
12728TIP3   OH238126   7.483   6.587   4.091
12728TIP3    H138127   7.413   6.541   4.042
12728TIP3    H238128   7.536   6.623   4.017
12729TIP3   OH238129   8.013   6.818   4.712
12729TIP3    H138130   8.089   6.783   4.663
12729TIP3    H238131   8.023   6.778   4.800
12730TIP3   OH238132   7.538   6.314   4.598
12730TIP3    H138133   7.503   6.236   4.646
12730TIP3    H238134   7.588   6.272   4.527
12731TIP3   OH238135   7.995   6.722   4.996
12731TIP3    H138136   7.903   6.751   5.014
12731TIP3    H238137   8.044   6.757   5.071
12732TIP3   OH238138   7.732   7.116   4.095
12732TIP3    H138139   7.660   7.050   4.085
12732TIP3    H238140   7.714   7.150   4.186
12733TIP3   OH238141   8.189   6.422   3.971
12733TIP3    H138142   8.092   6.406   3.975
12733TIP3    H238143   8.197   6.518   3.989
12734TIP3   OH238144   8.256   6.674   4.068
12734TIP3    H138145   8.353   6.679   4.082
12734TIP3    H238146   8.240   6.750   4.008
12735TIP3   OH238147   7.427   7.140   4.775
12735TIP3    H138148   7.467   7.110   4.690
12735TIP3    H238149   7.461   7.072   4.836
12736TIP3   OH238150   7.878   7.263   3.914
12736TIP3    H138151   7.829   7.348   3.923
12736TIP3    H238152   7.826   7.206   3.976
12737TIP3   OH238153   7.292   7.033   5.397
12737TIP3    H138154   7.284   7.010   5.491
12737TIP3    H238155   7.218   6.981   5.359
12738TIP3   OH238156   7.529   7.443   4.407
12738TIP3    H138157   7.526   7.524   4.352
12738TIP3    H238158   7.435   7.423   4.414
12739TIP3   OH238159   7.089   6.745   4.106
12739TIP3    H138160   7.136   6.828   4.128
12739TIP3    H238161   7.013   6.749   4.167
12740TIP3   OH238162   7.656   7.205   4.340
12740TIP3    H138163   7.627   7.295   4.363
12740TIP3    H238164   7.625   7.154   4.417
12741TIP3   OH238165   7.445   7.676   4.253
12741TIP3    H138166   7.360   7.688   4.298
12741TIP3    H238167   7.480   7.768   4.257
12742TIP3   OH238168   8.077   7.306   3.701
12742TIP3    H138169   8.158   7.287   3.749
12742TIP3    H238170   8.009   7.279   3.765
12743TIP3   OH238171   7.514   6.561   5.396
12743TIP3    H138172   7.418   6.567   5.408
12743TIP3    H238173   7.539   6.498   5.465
12744TIP3   OH238174   8.331   7.227   3.946
12744TIP3    H138175   8.293   7.170   4.015
12744TIP3    H238176   8.413   7.178   3.931
12745TIP3   OH238177   7.250   7.640   5.030
12745TIP3    H138178   7.288   7.560   5.072
12745TIP3    H238179   7.249   7.701   5.104
12746TIP3   OH238180   7.514   7.293   3.712
12746TIP3    H138181   7.539   7.203   3.685
12746TIP3    H238182   7.497   7.280   3.808
12747TIP3   OH238183   7.465   7.296   3.986
12747TIP3    H138184   7.541   7.269   4.040
12747TIP3    H238185   7.469   7.394   3.993
12748TIP3   OH238186   7.202   6.988   4.187
12748TIP3    H138187   7.136   7.033   4.244
12748TIP3    H238188   7.218   7.057   4.121
12749TIP3   OH238189   8.344   6.623   5.060
12749TIP3    H138190   8.356   6.678   5.138
12749TIP3    H238191   8.318   6.539   5.103
12750TIP3   OH238192   8.234   6.376   4.248
12750TIP3    H138193   8.221   6.397   4.153
12750TIP3    H238194   8.275   6.458   4.282
12751TIP3   OH238195   7.733   7.490   3.941
12751TIP3    H138196   7.644   7.513   3.974
12751TIP3    H238197   7.747   7.566   3.882
12752TIP3   OH238198   7.919   6.559   4.347
12752TIP3    H138199   7.984   6.630   4.328
12752TIP3    H238200   7.926   6.551   4.444
12753TIP3   OH238201   8.065   6.280   4.447
12753TIP3    H138202   8.057   6.357   4.506
12753TIP3    H238203   8.127   6.315   4.379
12754TIP3   OH238204   7.476   7.568   4.001
12754TIP3    H138205   7.448   7.639   3.940
12754TIP3    H238206   7.465   7.612   4.088
12755TIP3   OH238207   7.579   6.284   4.237
12755TIP3    H138208   7.576   6.373   4.276
12755TIP3    H238209   7.675   6.266   4.245
12756TIP3   OH238210   8.506   6.934   4.515
12756TIP3    H138211   8.412   6.914   4.526
12756TIP3    H238212   8.533   6.952   4.606
12757TIP3   OH238213   7.198   7.197   3.991
12757TIP3    H138214   7.270   7.262   4.001
12757TIP3    H238215   7.239   7.138   3.925
12758TIP3   OH238216   7.139   6.474   4.126
12758TIP3    H138217   7.140   6.572   4.123
12758TIP3    H238218   7.056   6.453   4.082
12759TIP3   OH238219   7.528   6.195   4.997
12759TIP3    H138220   7.497   6.160   4.911
12759TIP3    H238221   7.518   6.117   5.055
12760TIP3   OH238222   7.070   7.415   4.376
12760TIP3    H138223   7.005   7.441   4.442
12760TIP3    H238224   7.035   7.459   4.295
12761TIP3   OH238225   7.684   7.491   3.622
12761TIP3    H138226   7.627   7.419   3.660
12761TIP3    H238227   7.758   7.438   3.588
12762TIP3   OH238228   7.332   7.009   3.848
12762TIP3    H138229   7.389   6.978   3.920
12762TIP3    H238230   7.399   7.015   3.775
12763TIP3   OH238231   7.805   7.197   3.652
12763TIP3    H138232   7.821   7.214   3.746
12763TIP3    H238233   7.829   7.102   3.646
12764TIP3   OH238234   7.536   6.919   4.064
12764TIP3    H138235   7.513   6.878   4.149
12764TIP3    H238236   7.575   6.843   4.015
12765TIP3   OH238237   7.789   6.974   5.292
12765TIP3    H138238   7.754   7.053   5.336
12765TIP3    H238239   7.833   7.013   5.215
12766TIP3   OH238240   7.642   6.713   3.906
12766TIP3    H138241   7.617   6.717   3.812
12766TIP3    H238242   7.740   6.716   3.899
12767TIP3   OH238243   7.890   6.762   5.452
12767TIP3    H138244   7.931   6.698   5.392
12767TIP3    H238245   7.866   6.835   5.391
12768TIP3   OH238246   7.935   6.541   5.220
12768TIP3    H138247   7.960   6.582   5.136
12768TIP3    H238248   7.839   6.527   5.208
12769TIP3   OH238249   8.066   6.320   5.317
12769TIP3    H138250   8.017   6.400   5.285
12769TIP3    H238251   8.000   6.250   5.298
12770TIP3   OH238252   7.638   6.655   5.714
12770TIP3    H138253   7.646   6.575   5.659
12770TIP3    H238254   7.709   6.639   5.777
12771TIP3   OH238255   8.163   6.325   5.575
12771TIP3    H138256   8.229   6.258   5.554
12771TIP3    H238257   8.116   6.332   5.489
12772TIP3   OH238258   7.441   7.772   3.818
12772TIP3    H138259   7.537   7.759   3.807
12772TIP3    H238260   7.421   7.821   3.735
12773TIP3   OH238261   6.929   7.155   4.027
12773TIP3    H138262   7.024   7.176   4.013
12773TIP3    H238263   6.923   7.066   3.986
12774TIP3   OH238264   6.841   7.754   4.432
12774TIP3    H138265   6.806   7.679   4.383
12774TIP3    H238266   6.893   7.709   4.503
12775TIP3   OH238267   6.971   7.623   4.629
12775TIP3    H138268   6.965   7.551   4.694
12775TIP3    H238269   7.026   7.686   4.680
12776TIP3   OH238270   8.499   6.689   3.717
12776TIP3    H138271   8.487   6.706   3.623
12776TIP3    H238272   8.490   6.591   3.719
12777TIP3   OH238273   8.535   6.944   4.244
12777TIP3    H138274   8.545   6.848   4.231
12777TIP3    H238275   8.537   6.950   4.342
12778TIP3   OH238276   7.159   7.025   4.997
12778TIP3    H138277   7.154   6.990   4.906
12778TIP3    H238278   7.257   7.019   5.011
12779TIP3   OH238279   8.467   6.416   3.720
12779TIP3    H138280   8.531   6.350   3.747
12779TIP3    H238281   8.387   6.363   3.704
12780TIP3   OH238282   8.532   6.669   4.152
12780TIP3    H138283   8.568   6.578   4.168
12780TIP3    H238284   8.583   6.693   4.073
12781TIP3   OH238285   7.371   6.698   5.664
12781TIP3    H138286   7.468   6.698   5.677
12781TIP3    H238287   7.347   6.615   5.709
12782TIP3   OH238288   8.624   6.418   4.200
12782TIP3    H138289   8.685   6.392   4.272
12782TIP3    H238290   8.568   6.339   4.193
12783TIP3   OH238291   7.344   6.404   5.006
12783TIP3    H138292   7.406   6.329   5.015
12783TIP3    H238293   7.406   6.478   4.998
12784TIP3   OH238294   7.144   6.678   5.077
12784TIP3    H138295   7.193   6.671   4.993
12784TIP3    H238296   7.181   6.758   5.115
12785TIP3   OH238297   7.131   6.179   4.579
12785TIP3    H138298   7.038   6.175   4.608
12785TIP3    H238299   7.125   6.238   4.501
12786TIP3   OH238300   7.351   6.261   5.394
12786TIP3    H138301   7.300   6.255   5.477
12786TIP3    H238302   7.284   6.298   5.334
12787TIP3   OH238303   7.157   7.766   4.787
12787TIP3    H138304   7.186   7.737   4.876
12787TIP3    H238305   7.228   7.724   4.733
12788TIP3   OH238306   7.342   7.637   4.640
12788TIP3    H138307   7.359   7.553   4.690
12788TIP3    H238308   7.434   7.671   4.632
12789TIP3   OH238309   7.601   7.715   4.642
12789TIP3    H138310   7.642   7.627   4.648
12789TIP3    H238311   7.642   7.763   4.714
12790TIP3   OH238312   8.186   6.382   4.732
12790TIP3    H138313   8.141   6.313   4.784
12790TIP3    H238314   8.258   6.332   4.689
12791TIP3   OH238315   8.722   6.274   4.637
12791TIP3    H138316   8.750   6.327   4.560
12791TIP3    H238317   8.626   6.294   4.640
12792TIP3   OH238318   8.822   6.369   4.394
12792TIP3    H138319   8.891   6.311   4.356
12792TIP3    H238320   8.862   6.457   4.386
12793TIP3   OH238321   7.440   6.101   4.750
12793TIP3    H138322   7.348   6.067   4.753
12793TIP3    H238323   7.489   6.016   4.747
12794TIP3   OH238324   7.226   5.973   4.400
12794TIP3    H138325   7.257   6.030   4.328
12794TIP3    H238326   7.199   6.039   4.467
12795TIP3   OH238327   7.885   6.135   4.632
12795TIP3    H138328   7.942   6.182   4.569
12795TIP3    H238329   7.913   6.171   4.717
12796TIP3   OH238330   8.434   6.279   4.613
12796TIP3    H138331   8.434   6.238   4.526
12796TIP3    H238332   8.422   6.201   4.672
12797TIP3   OH238333   8.457   6.202   4.179
12797TIP3    H138334   8.370   6.245   4.192
12797TIP3    H238335   8.443   6.116   4.223
12798TIP3   OH238336   6.934   7.553   4.186
12798TIP3    H138337   6.854   7.519   4.140
12798TIP3    H238338   6.936   7.644   4.153
12799TIP3   OH238339   7.347   6.132   4.160
12799TIP3    H138340   7.395   6.068   4.104
12799TIP3    H238341   7.421   6.185   4.196
12800TIP3   OH238342   7.855   6.308   4.260
12800TIP3    H138343   7.915   6.261   4.320
12800TIP3    H238344   7.877   6.401   4.285
12801TIP3   OH238345   7.709   7.717   3.781
12801TIP3    H138346   7.776   7.775   3.737
12801TIP3    H238347   7.697   7.648   3.712
12802TIP3   OH238348   7.642   6.374   5.635
12802TIP3    H138349   7.606   6.303   5.690
12802TIP3    H238350   7.736   6.374   5.666
12803TIP3   OH238351   7.893   6.360   5.742
12803TIP3    H138352   7.979   6.369   5.698
12803TIP3    H238353   7.911   6.282   5.799
12804TIP3   OH238354   7.022   7.564   3.820
12804TIP3    H138355   7.040   7.588   3.912
12804TIP3    H238356   7.107   7.521   3.795
12805TIP3   OH238357   1.391   7.433   6.419
12805TIP3    H138358   1.421   7.514   6.465
12805TIP3    H238359   1.423   7.448   6.329
12806TIP3   OH238360   0.833   7.324   6.048
12806TIP3    H138361   0.895   7.349   6.120
12806TIP3    H238362   0.858   7.389   5.980
12807TIP3   OH238363   1.469   7.631   6.593
12807TIP3    H138364   1.414   7.707   6.572
12807TIP3    H238365   1.444   7.614   6.686
12808TIP3   OH238366   1.024   7.393   6.234
12808TIP3    H138367   1.048   7.315   6.284
12808TIP3    H238368   1.090   7.459   6.261
12809TIP3   OH238369   1.192   7.352   6.598
12809TIP3    H138370   1.110   7.390   6.564
12809TIP3    H238371   1.256   7.373   6.527
12810TIP3   OH238372   1.121   6.931   5.686
12810TIP3    H138373   1.040   6.955   5.735
12810TIP3    H238374   1.137   7.013   5.635
12811TIP3   OH238375   1.157   7.554   5.586
12811TIP3    H138376   1.091   7.513   5.525
12811TIP3    H238377   1.152   7.645   5.550
12812TIP3   OH238378   1.264   7.538   6.794
12812TIP3    H138379   1.186   7.527   6.848
12812TIP3    H238380   1.250   7.469   6.727
12813TIP3   OH238381   0.923   7.741   6.219
12813TIP3    H138382   0.868   7.662   6.220
12813TIP3    H238383   1.008   7.708   6.255
12814TIP3   OH238384   0.928   7.826   5.254
12814TIP3    H138385   0.879   7.781   5.183
12814TIP3    H238386   0.913   7.919   5.233
12815TIP3   OH238387   1.053   8.005   5.591
12815TIP3    H138388   1.126   8.066   5.567
12815TIP3    H238389   1.089   7.965   5.673
12816TIP3   OH238390   1.180   7.878   5.793
12816TIP3    H138391   1.120   7.832   5.857
12816TIP3    H238392   1.250   7.914   5.851
12817TIP3   OH238393   1.119   7.787   5.443
12817TIP3    H138394   1.047   7.789   5.375
12817TIP3    H238395   1.090   7.862   5.498
12818TIP3   OH238396   0.985   7.465   5.394
12818TIP3    H138397   0.936   7.507   5.323
12818TIP3    H238398   0.967   7.370   5.377
12819TIP3   OH238399   1.017   7.733   5.954
12819TIP3    H138400   0.998   7.641   5.930
12819TIP3    H238401   0.979   7.741   6.043
12820TIP3   OH238402   0.946   7.196   5.378
12820TIP3    H138403   1.021   7.173   5.437
12820TIP3    H238404   0.875   7.137   5.413
12821TIP3   OH238405   0.997   7.465   5.856
12821TIP3    H138406   1.037   7.376   5.864
12821TIP3    H238407   1.031   7.494   5.771
12822TIP3   OH238408   1.150   7.634   6.337
12822TIP3    H138409   1.235   7.666   6.299
12822TIP3    H238410   1.157   7.666   6.427
12823TIP3   OH238411   1.735   7.388   7.108
12823TIP3    H138412   1.758   7.307   7.057
12823TIP3    H238413   1.683   7.435   7.041
12824TIP3   OH238414   1.108   7.204   5.868
12824TIP3    H138415   1.149   7.195   5.957
12824TIP3    H238416   1.040   7.135   5.872
12825TIP3   OH238417   1.613   7.449   6.866
12825TIP3    H138418   1.550   7.507   6.912
12825TIP3    H238419   1.553   7.382   6.830
12826TIP3   OH238420   1.182   7.138   5.513
12826TIP3    H138421   1.223   7.071   5.453
12826TIP3    H238422   1.246   7.212   5.508
12827TIP3   OH238423   1.438   7.255   6.775
12827TIP3    H138424   1.346   7.234   6.751
12827TIP3    H238425   1.475   7.163   6.775
12828TIP3   OH238426   1.183   7.049   6.321
12828TIP3    H138427   1.220   7.102   6.247
12828TIP3    H238428   1.089   7.075   6.318
12829TIP3   OH238429   1.263   7.161   6.091
12829TIP3    H138430   1.337   7.110   6.052
12829TIP3    H238431   1.298   7.253   6.076
12830TIP3   OH238432   0.921   7.091   6.299
12830TIP3    H138433   0.841   7.115   6.251
12830TIP3    H238434   0.899   7.002   6.336
12831TIP3   OH238435   0.916   6.987   5.863
12831TIP3    H138436   0.833   7.032   5.840
12831TIP3    H238437   0.896   6.950   5.950
12832TIP3   OH238438   2.379   8.136   5.508
12832TIP3    H138439   2.345   8.225   5.486
12832TIP3    H238440   2.309   8.083   5.465
12833TIP3   OH238441   2.355   8.159   5.890
12833TIP3    H138442   2.411   8.133   5.966
12833TIP3    H238443   2.366   8.088   5.827
12834TIP3   OH238444   1.703   8.066   6.251
12834TIP3    H138445   1.715   7.988   6.309
12834TIP3    H238446   1.785   8.067   6.199
12835TIP3   OH238447   2.600   8.458   5.571
12835TIP3    H138448   2.607   8.383   5.635
12835TIP3    H238449   2.642   8.527   5.624
12836TIP3   OH238450   1.727   8.372   6.061
12836TIP3    H138451   1.672   8.318   6.002
12836TIP3    H238452   1.801   8.397   6.001
12837TIP3   OH238453   1.360   7.657   5.750
12837TIP3    H138454   1.318   7.743   5.769
12837TIP3    H238455   1.284   7.611   5.710
12838TIP3   OH238456   1.417   7.947   5.913
12838TIP3    H138457   1.463   7.874   5.960
12838TIP3    H238458   1.490   8.007   5.891
12839TIP3   OH238459   2.198   8.381   5.933
12839TIP3    H138460   2.246   8.301   5.903
12839TIP3    H238461   2.273   8.439   5.954
12840TIP3   OH238462   3.189   7.701   5.922
12840TIP3    H138463   3.220   7.783   5.965
12840TIP3    H238464   3.221   7.714   5.831
12841TIP3   OH238465   2.536   7.828   5.896
12841TIP3    H138466   2.611   7.786   5.944
12841TIP3    H238467   2.581   7.904   5.855
12842TIP3   OH238468   1.938   7.544   5.916
12842TIP3    H138469   1.904   7.613   5.856
12842TIP3    H238470   1.891   7.466   5.878
12843TIP3   OH238471   2.612   7.633   5.562
12843TIP3    H138472   2.690   7.625   5.620
12843TIP3    H238473   2.654   7.669   5.482
12844TIP3   OH238474   1.561   7.742   6.034
12844TIP3    H138475   1.644   7.720   6.080
12844TIP3    H238476   1.571   7.690   5.952
12845TIP3   OH238477   1.986   7.938   5.829
12845TIP3    H138478   2.077   7.908   5.835
12845TIP3    H238479   1.941   7.859   5.792
12846TIP3   OH238480   3.264   7.909   6.094
12846TIP3    H138481   3.182   7.958   6.074
12846TIP3    H238482   3.281   7.939   6.185
12847TIP3   OH238483   1.925   7.523   6.358
12847TIP3    H138484   1.864   7.560   6.291
12847TIP3    H238485   1.874   7.538   6.440
12848TIP3   OH238486   2.260   8.341   5.366
12848TIP3    H138487   2.221   8.344   5.278
12848TIP3    H238488   2.293   8.432   5.378
12849TIP3   OH238489   2.032   8.309   6.156
12849TIP3    H138490   1.985   8.387   6.192
12849TIP3    H238491   2.076   8.350   6.079
12850TIP3   OH238492   2.826   7.648   5.730
12850TIP3    H138493   2.859   7.578   5.787
12850TIP3    H238494   2.890   7.719   5.746
12851TIP3   OH238495   1.799   7.637   6.139
12851TIP3    H138496   1.859   7.711   6.163
12851TIP3    H238497   1.850   7.598   6.064
12852TIP3   OH238498   1.261   8.155   5.493
12852TIP3    H138499   1.220   8.160   5.404
12852TIP3    H238500   1.270   8.250   5.511
12853TIP3   OH238501   2.988   7.595   6.085
12853TIP3    H138502   2.909   7.644   6.060
12853TIP3    H238503   3.054   7.628   6.019
12854TIP3   OH238504   2.277   7.251   6.067
12854TIP3    H138505   2.268   7.156   6.086
12854TIP3    H238506   2.200   7.285   6.117
12855TIP3   OH238507   2.629   8.473   5.290
12855TIP3    H138508   2.597   8.392   5.246
12855TIP3    H238509   2.638   8.446   5.383
12856TIP3   OH238510   2.918   8.609   6.084
12856TIP3    H138511   2.890   8.529   6.036
12856TIP3    H238512   2.852   8.671   6.049
12857TIP3   OH238513   2.214   8.002   5.334
12857TIP3    H138514   2.133   8.054   5.315
12857TIP3    H238515   2.257   8.001   5.246
12858TIP3   OH238516   2.170   7.792   5.043
12858TIP3    H138517   2.237   7.843   5.092
12858TIP3    H238518   2.227   7.728   4.996
12859TIP3   OH238519   3.116   8.249   5.916
12859TIP3    H138520   3.031   8.299   5.920
12859TIP3    H238521   3.146   8.276   5.826
12860TIP3   OH238522   2.556   8.082   5.304
12860TIP3    H138523   2.502   8.104   5.384
12860TIP3    H238524   2.641   8.058   5.347
12861TIP3   OH238525   2.791   8.128   6.215
12861TIP3    H138526   2.792   8.208   6.272
12861TIP3    H238527   2.708   8.143   6.165
12862TIP3   OH238528   1.793   8.091   5.703
12862TIP3    H138529   1.749   8.030   5.640
12862TIP3    H238530   1.867   8.037   5.737
12863TIP3   OH238531   1.933   8.461   5.911
12863TIP3    H138532   1.896   8.462   5.821
12863TIP3    H238533   2.029   8.448   5.896
12864TIP3   OH238534   1.917   8.068   6.077
12864TIP3    H138535   1.949   8.050   5.987
12864TIP3    H238536   1.961   8.154   6.097
12865TIP3   OH238537   2.395   7.944   5.127
12865TIP3    H138538   2.455   8.004   5.177
12865TIP3    H238539   2.423   7.962   5.034
12866TIP3   OH238540   2.923   7.195   5.174
12866TIP3    H138541   2.839   7.218   5.218
12866TIP3    H238542   2.944   7.278   5.126
12867TIP3   OH238543   1.660   7.926   5.519
12867TIP3    H138544   1.596   7.973   5.462
12867TIP3    H238545   1.610   7.846   5.540
12868TIP3   OH238546   3.049   8.090   6.394
12868TIP3    H138547   2.964   8.103   6.349
12868TIP3    H238548   3.062   7.993   6.384
12869TIP3   OH238549   2.042   7.322   6.202
12869TIP3    H138550   1.954   7.290   6.174
12869TIP3    H238551   2.015   7.401   6.252
12870TIP3   OH238552   2.576   7.432   6.397
12870TIP3    H138553   2.646   7.407   6.462
12870TIP3    H238554   2.493   7.414   6.447
12871TIP3   OH238555   2.809   7.866   6.306
12871TIP3    H138556   2.764   7.861   6.393
12871TIP3    H238557   2.789   7.958   6.278
12872TIP3   OH238558   2.474   7.973   4.870
12872TIP3    H138559   2.442   7.955   4.780
12872TIP3    H238560   2.535   8.047   4.854
12873TIP3   OH238561   2.186   7.368   5.172
12873TIP3    H138562   2.150   7.364   5.262
12873TIP3    H238563   2.148   7.285   5.136
12874TIP3   OH238564   1.974   7.837   6.214
12874TIP3    H138565   1.933   7.859   6.300
12874TIP3    H238566   1.959   7.921   6.165
12875TIP3   OH238567   1.855   7.721   5.730
12875TIP3    H138568   1.762   7.697   5.749
12875TIP3    H238569   1.865   7.681   5.641
12876TIP3   OH238570   2.335   7.789   5.455
12876TIP3    H138571   2.293   7.869   5.418
12876TIP3    H238572   2.404   7.770   5.389
12877TIP3   OH238573   2.525   8.081   6.530
12877TIP3    H138574   2.506   8.015   6.600
12877TIP3    H238575   2.614   8.112   6.555
12878TIP3   OH238576   1.795   7.859   6.431
12878TIP3    H138577   1.842   7.900   6.504
12878TIP3    H238578   1.768   7.774   6.470
12879TIP3   OH238579   1.842   7.341   5.139
12879TIP3    H138580   1.831   7.341   5.236
12879TIP3    H238581   1.766   7.395   5.111
12880TIP3   OH238582   1.389   7.382   6.013
12880TIP3    H138583   1.463   7.419   6.065
12880TIP3    H238584   1.429   7.365   5.926
12881TIP3   OH238585   1.354   7.366   5.527
12881TIP3    H138586   1.397   7.407   5.449
12881TIP3    H238587   1.292   7.439   5.550
12882TIP3   OH238588   2.515   8.057   6.101
12882TIP3    H138589   2.523   7.965   6.074
12882TIP3    H238590   2.480   8.044   6.192
12883TIP3   OH238591   2.203   7.588   5.822
12883TIP3    H138592   2.108   7.590   5.844
12883TIP3    H238593   2.231   7.520   5.884
12884TIP3   OH238594   1.619   7.602   5.802
12884TIP3    H138595   1.525   7.613   5.775
12884TIP3    H238596   1.638   7.510   5.777
12885TIP3   OH238597   1.884   7.595   5.491
12885TIP3    H138598   1.977   7.610   5.464
12885TIP3    H238599   1.834   7.617   5.409
12886TIP3   OH238600   2.656   7.612   5.993
12886TIP3    H138601   2.646   7.626   6.091
12886TIP3    H238602   2.668   7.516   5.988
12887TIP3   OH238603   1.734   7.626   5.268
12887TIP3    H138604   1.662   7.583   5.218
12887TIP3    H238605   1.786   7.665   5.195
12888TIP3   OH238606   1.793   7.357   5.775
12888TIP3    H138607   1.754   7.280   5.823
12888TIP3    H238608   1.829   7.315   5.696
12889TIP3   OH238609   2.245   7.758   6.193
12889TIP3    H138610   2.157   7.801   6.193
12889TIP3    H238611   2.303   7.827   6.232
12890TIP3   OH238612   1.983   8.144   5.283
12890TIP3    H138613   1.905   8.087   5.269
12890TIP3    H238614   1.960   8.189   5.367
12891TIP3   OH238615   2.879   8.388   5.916
12891TIP3    H138616   2.911   8.443   5.842
12891TIP3    H238617   2.783   8.393   5.903
12892TIP3   OH238618   2.440   7.468   5.148
12892TIP3    H138619   2.343   7.454   5.151
12892TIP3    H238620   2.450   7.564   5.167
12893TIP3   OH238621   2.374   8.386   6.316
12893TIP3    H138622   2.432   8.405   6.390
12893TIP3    H238623   2.336   8.473   6.297
12894TIP3   OH238624   2.512   7.719   5.247
12894TIP3    H138625   2.609   7.728   5.258
12894TIP3    H238626   2.490   7.798   5.193
12895TIP3   OH238627   1.641   8.123   5.933
12895TIP3    H138628   1.698   8.123   5.852
12895TIP3    H238629   1.705   8.103   6.003
12896TIP3   OH238630   2.092   8.331   5.117
12896TIP3    H138631   2.051   8.402   5.171
12896TIP3    H238632   2.057   8.253   5.166
12897TIP3   OH238633   2.265   8.189   6.572
12897TIP3    H138634   2.258   8.209   6.478
12897TIP3    H238635   2.362   8.180   6.580
12898TIP3   OH238636   2.940   7.815   5.096
12898TIP3    H138637   2.914   7.746   5.032
12898TIP3    H238638   2.927   7.894   5.039
12899TIP3   OH238639   3.171   8.663   6.161
12899TIP3    H138640   3.075   8.665   6.141
12899TIP3    H238641   3.204   8.643   6.070
12900TIP3   OH238642   2.644   8.268   5.764
12900TIP3    H138643   2.577   8.278   5.833
12900TIP3    H238644   2.660   8.172   5.761
12901TIP3   OH238645   1.343   7.788   5.284
12901TIP3    H138646   1.387   7.874   5.303
12901TIP3    H238647   1.264   7.794   5.343
12902TIP3   OH238648   1.910   8.263   5.521
12902TIP3    H138649   1.874   8.347   5.551
12902TIP3    H238650   1.877   8.203   5.590
12903TIP3   OH238651   2.440   8.288   4.860
12903TIP3    H138652   2.474   8.283   4.952
12903TIP3    H238653   2.360   8.342   4.872
12904TIP3   OH238654   1.766   7.601   6.574
12904TIP3    H138655   1.670   7.597   6.588
12904TIP3    H238656   1.798   7.544   6.647
12905TIP3   OH238657   2.564   8.269   5.108
12905TIP3    H138658   2.560   8.197   5.174
12905TIP3    H238659   2.661   8.271   5.088
12906TIP3   OH238660   1.756   8.288   4.934
12906TIP3    H138661   1.795   8.203   4.908
12906TIP3    H238662   1.792   8.301   5.022
12907TIP3   OH238663   1.463   8.031   5.360
12907TIP3    H138664   1.395   8.068   5.421
12907TIP3    H238665   1.466   8.103   5.294
12908TIP3   OH238666   2.614   7.661   6.251
12908TIP3    H138667   2.679   7.713   6.300
12908TIP3    H238668   2.595   7.587   6.313
12909TIP3   OH238669   2.480   7.419   5.423
12909TIP3    H138670   2.469   7.440   5.328
12909TIP3    H238671   2.520   7.502   5.457
12910TIP3   OH238672   2.170   7.594   5.532
12910TIP3    H138673   2.230   7.663   5.495
12910TIP3    H238674   2.178   7.613   5.627
12911TIP3   OH238675   2.442   7.916   6.327
12911TIP3    H138676   2.458   7.981   6.400
12911TIP3    H238677   2.495   7.841   6.358
12912TIP3   OH238678   2.318   7.324   5.622
12912TIP3    H138679   2.313   7.408   5.670
12912TIP3    H238680   2.376   7.352   5.547
12913TIP3   OH238681   1.825   7.328   5.416
12913TIP3    H138682   1.822   7.419   5.450
12913TIP3    H238683   1.922   7.312   5.422
12914TIP3   OH238684   3.077   7.823   6.313
12914TIP3    H138685   2.979   7.820   6.316
12914TIP3    H238686   3.094   7.785   6.226
12915TIP3   OH238687   2.707   7.981   5.734
12915TIP3    H138688   2.684   7.909   5.674
12915TIP3    H238689   2.799   7.956   5.761
12916TIP3   OH238690   1.452   8.246   5.176
12916TIP3    H138691   1.474   8.339   5.162
12916TIP3    H238692   1.504   8.201   5.106
12917TIP3   OH238693   1.388   7.518   5.301
12917TIP3    H138694   1.392   7.615   5.302
12917TIP3    H238695   1.301   7.503   5.263
12918TIP3   OH238696   1.779   7.240   6.173
12918TIP3    H138697   1.746   7.206   6.087
12918TIP3    H238698   1.767   7.163   6.232
12919TIP3   OH238699   1.576   8.047   5.026
12919TIP3    H138700   1.626   8.015   5.102
12919TIP3    H238701   1.648   8.052   4.959
12920TIP3   OH238702   2.031   8.228   4.842
12920TIP3    H138703   2.066   8.247   4.929
12920TIP3    H238704   2.061   8.136   4.827
12921TIP3   OH238705   1.779   7.959   5.240
12921TIP3    H138706   1.752   7.917   5.322
12921TIP3    H238707   1.820   7.885   5.190
12922TIP3   OH238708   2.053   8.015   6.459
12922TIP3    H138709   2.077   8.084   6.523
12922TIP3    H238710   2.108   8.045   6.383
12923TIP3   OH238711   1.892   7.755   5.086
12923TIP3    H138712   1.865   7.757   4.992
12923TIP3    H238713   1.989   7.762   5.077
12924TIP3   OH238714   2.570   8.402   6.559
12924TIP3    H138715   2.662   8.430   6.562
12924TIP3    H238716   2.555   8.373   6.650
12925TIP3   OH238717   2.709   8.094   4.743
12925TIP3    H138718   2.683   8.042   4.664
12925TIP3    H238719   2.687   8.184   4.712
12926TIP3   OH238720   2.189   7.812   6.584
12926TIP3    H138721   2.188   7.729   6.532
12926TIP3    H238722   2.145   7.874   6.523
12927TIP3   OH238723   2.184   7.594   6.406
12927TIP3    H138724   2.211   7.641   6.324
12927TIP3    H238725   2.090   7.574   6.388
12928TIP3   OH238726   2.212   8.138   6.275
12928TIP3    H138727   2.297   8.180   6.254
12928TIP3    H238728   2.151   8.206   6.239
12929TIP3   OH238729   2.804   8.096   6.630
12929TIP3    H138730   2.856   8.015   6.643
12929TIP3    H238731   2.874   8.164   6.629
12930TIP3   OH238732   2.828   8.359   6.367
12930TIP3    H138733   2.768   8.423   6.326
12930TIP3    H238734   2.915   8.387   6.331
12931TIP3   OH238735   2.046   7.913   6.801
12931TIP3    H138736   1.989   7.833   6.812
12931TIP3    H238737   2.092   7.894   6.717
12932TIP3   OH238738   2.315   7.361   6.474
12932TIP3    H138739   2.267   7.443   6.452
12932TIP3    H238740   2.245   7.294   6.464
12933TIP3   OH238741   2.448   7.862   6.677
12933TIP3    H138742   2.426   7.844   6.770
12933TIP3    H238743   2.360   7.847   6.638
12934TIP3   OH238744   2.679   7.802   6.532
12934TIP3    H138745   2.605   7.818   6.594
12934TIP3    H238746   2.752   7.779   6.593
12935TIP3   OH238747   2.905   7.752   6.691
12935TIP3    H138748   2.922   7.657   6.703
12935TIP3    H238749   2.903   7.785   6.783
12936TIP3   OH238750   1.896   7.701   6.879
12936TIP3    H138751   1.881   7.615   6.835
12936TIP3    H238752   1.942   7.671   6.960
12937TIP3   OH238753   2.410   7.370   6.732
12937TIP3    H138754   2.477   7.298   6.724
12937TIP3    H238755   2.369   7.365   6.644
12938TIP3   OH238756   2.480   7.585   6.889
12938TIP3    H138757   2.461   7.511   6.827
12938TIP3    H238758   2.400   7.640   6.877
12939TIP3   OH238759   1.190   8.150   5.215
12939TIP3    H138760   1.269   8.196   5.183
12939TIP3    H238761   1.179   8.078   5.150
12940TIP3   OH238762   2.837   8.264   5.085
12940TIP3    H138763   2.907   8.323   5.052
12940TIP3    H238764   2.884   8.224   5.162
12941TIP3   OH238765   2.974   8.137   5.283
12941TIP3    H138766   2.910   8.097   5.345
12941TIP3    H238767   3.044   8.173   5.342
12942TIP3   OH238768   3.021   8.526   5.727
12942TIP3    H138769   3.079   8.473   5.670
12942TIP3    H238770   3.012   8.609   5.678
12943TIP3   OH238771   2.911   8.048   4.924
12943TIP3    H138772   2.840   8.054   4.857
12943TIP3    H238773   2.885   8.122   4.982
12944TIP3   OH238774   2.788   7.724   4.872
12944TIP3    H138775   2.722   7.758   4.811
12944TIP3    H238776   2.767   7.628   4.871
12945TIP3   OH238777   2.786   7.998   5.433
12945TIP3    H138778   2.797   7.903   5.413
12945TIP3    H238779   2.791   8.004   5.529
12946TIP3   OH238780   1.422   8.036   6.187
12946TIP3    H138781   1.414   8.043   6.090
12946TIP3    H238782   1.512   8.070   6.202
12947TIP3   OH238783   3.080   8.423   6.291
12947TIP3    H138784   3.151   8.358   6.277
12947TIP3    H238785   3.095   8.487   6.219
12948TIP3   OH238786   3.263   8.221   6.294
12948TIP3    H138787   3.188   8.176   6.339
12948TIP3    H238788   3.336   8.161   6.319
12949TIP3   OH238789   2.738   7.455   4.870
12949TIP3    H138790   2.819   7.437   4.923
12949TIP3    H238791   2.674   7.392   4.905
12950TIP3   OH238792   2.785   7.727   5.328
12950TIP3    H138793   2.817   7.636   5.349
12950TIP3    H238794   2.844   7.749   5.253
12951TIP3   OH238795   2.949   7.888   5.820
12951TIP3    H138796   3.036   7.911   5.778
12951TIP3    H238797   2.965   7.928   5.908
12952TIP3   OH238798   3.013   8.032   6.050
12952TIP3    H138799   2.938   8.069   6.101
12952TIP3    H238800   3.047   8.113   6.006
12953TIP3   OH238801   3.463   7.622   6.605
12953TIP3    H138802   3.524   7.557   6.565
12953TIP3    H238803   3.438   7.676   6.528
12954TIP3   OH238804   2.852   7.474   5.403
12954TIP3    H138805   2.925   7.449   5.464
12954TIP3    H238806   2.814   7.387   5.381
12955TIP3   OH238807   1.593   7.448   6.188
12955TIP3    H138808   1.656   7.374   6.195
12955TIP3    H238809   1.653   7.523   6.177
12956TIP3   OH238810   1.391   7.745   6.260
12956TIP3    H138811   1.440   7.728   6.178
12956TIP3    H238812   1.399   7.842   6.264
12957TIP3   OH238813   3.338   7.764   6.408
12957TIP3    H138814   3.254   7.803   6.437
12957TIP3    H238815   3.305   7.690   6.353
12958TIP3   OH238816   1.379   7.219   5.753
12958TIP3    H138817   1.286   7.219   5.784
12958TIP3    H238818   1.374   7.282   5.677
12959TIP3   OH238819   1.601   7.299   6.553
12959TIP3    H138820   1.550   7.294   6.636
12959TIP3    H238821   1.534   7.340   6.494
12960TIP3   OH238822   3.236   7.522   6.293
12960TIP3    H138823   3.145   7.511   6.259
12960TIP3    H238824   3.271   7.430   6.283
12961TIP3   OH238825   2.442   7.459   5.894
12961TIP3    H138826   2.406   7.391   5.953
12961TIP3    H238827   2.516   7.409   5.852
12962TIP3   OH238828   2.957   7.329   5.826
12962TIP3    H138829   3.001   7.368   5.747
12962TIP3    H238830   2.863   7.338   5.805
12963TIP3   OH238831   3.058   7.414   5.588
12963TIP3    H138832   3.128   7.360   5.545
12963TIP3    H238833   3.094   7.504   5.567
12964TIP3   OH238834   1.689   7.146   5.926
12964TIP3    H138835   1.596   7.115   5.928
12964TIP3    H238836   1.737   7.061   5.923
12965TIP3   OH238837   1.482   7.017   5.579
12965TIP3    H138838   1.508   7.074   5.504
12965TIP3    H238839   1.449   7.083   5.643
12966TIP3   OH238840   2.136   7.177   5.808
12966TIP3    H138841   2.196   7.219   5.746
12966TIP3    H238842   2.165   7.213   5.893
12967TIP3   OH238843   2.665   7.332   5.796
12967TIP3    H138844   2.677   7.297   5.707
12967TIP3    H238845   2.657   7.249   5.849
12968TIP3   OH238846   2.707   7.243   5.348
12968TIP3    H138847   2.621   7.287   5.361
12968TIP3    H238848   2.692   7.158   5.393
12969TIP3   OH238849   1.594   7.172   5.340
12969TIP3    H138850   1.643   7.112   5.280
12969TIP3    H238851   1.666   7.228   5.375
12970TIP3   OH238852   2.101   7.349   5.436
12970TIP3    H138853   2.162   7.300   5.493
12970TIP3    H238854   2.123   7.441   5.464
12971TIP3   OH238855   1.907   7.433   6.794
12971TIP3    H138856   1.849   7.388   6.858
12971TIP3    H238857   1.996   7.422   6.835
12972TIP3   OH238858   2.151   7.414   6.929
12972TIP3    H138859   2.236   7.389   6.890
12972TIP3    H238860   2.138   7.342   6.995
12973TIP3   OH238861   2.973   7.486   6.724
12973TIP3    H138862   2.991   7.456   6.816
12973TIP3    H238863   3.062   7.482   6.684
12974TIP3   OH238864   4.179   8.397   4.988
12974TIP3    H138865   4.141   8.484   4.964
12974TIP3    H238866   4.106   8.340   4.958
12975TIP3   OH238867   4.179   8.409   5.366
12975TIP3    H138868   4.212   8.384   5.454
12975TIP3    H238869   4.136   8.327   5.337
12976TIP3   OH238870   3.473   8.307   5.732
12976TIP3    H138871   3.509   8.239   5.791
12976TIP3    H238872   3.551   8.362   5.717
12977TIP3   OH238873   4.393   8.711   5.056
12977TIP3    H138874   4.393   8.640   5.123
12977TIP3    H238875   4.448   8.778   5.099
12978TIP3   OH238876   3.504   8.653   5.534
12978TIP3    H138877   3.471   8.569   5.498
12978TIP3    H238878   3.587   8.667   5.482
12979TIP3   OH238879   3.154   7.913   5.238
12979TIP3    H138880   3.108   7.997   5.253
12979TIP3    H238881   3.084   7.865   5.189
12980TIP3   OH238882   3.209   8.205   5.413
12980TIP3    H138883   3.260   8.128   5.447
12980TIP3    H238884   3.279   8.260   5.375
12981TIP3   OH238885   3.991   8.626   5.407
12981TIP3    H138886   4.038   8.549   5.372
12981TIP3    H238887   4.068   8.681   5.434
12982TIP3   OH238888   4.989   7.957   5.410
12982TIP3    H138889   5.018   8.040   5.454
12982TIP3    H238890   5.012   7.976   5.317
12983TIP3   OH238891   4.391   8.140   5.442
12983TIP3    H138892   4.429   8.053   5.465
12983TIP3    H238893   4.356   8.122   5.353
12984TIP3   OH238894   3.724   7.798   5.409
12984TIP3    H138895   3.706   7.870   5.346
12984TIP3    H238896   3.675   7.725   5.365
12985TIP3   OH238897   4.421   7.887   5.029
12985TIP3    H138898   4.491   7.874   5.097
12985TIP3    H238899   4.474   7.924   4.956
12986TIP3   OH238900   3.358   7.998   5.519
12986TIP3    H138901   3.443   7.981   5.565
12986TIP3    H238902   3.373   7.946   5.437
12987TIP3   OH238903   3.797   8.198   5.314
12987TIP3    H138904   3.892   8.176   5.326
12987TIP3    H238905   3.760   8.113   5.282
12988TIP3   OH238906   5.062   8.165   5.578
12988TIP3    H138907   4.977   8.211   5.564
12988TIP3    H238908   5.082   8.193   5.669
12989TIP3   OH238909   3.718   7.775   5.847
12989TIP3    H138910   3.665   7.811   5.774
12989TIP3    H238911   3.662   7.796   5.924
12990TIP3   OH238912   4.053   8.600   4.854
12990TIP3    H138913   4.021   8.600   4.763
12990TIP3    H238914   4.086   8.691   4.865
12991TIP3   OH238915   3.826   8.561   5.638
12991TIP3    H138916   3.761   8.627   5.668
12991TIP3    H238917   3.863   8.606   5.559
12992TIP3   OH238918   4.625   7.895   5.207
12992TIP3    H138919   4.613   7.849   5.291
12992TIP3    H238920   4.678   7.973   5.235
12993TIP3   OH238921   3.593   7.892   5.629
12993TIP3    H138922   3.654   7.967   5.651
12993TIP3    H238923   3.643   7.853   5.554
12994TIP3   OH238924   3.656   8.773   5.744
12994TIP3    H138925   3.610   8.769   5.657
12994TIP3    H238926   3.577   8.771   5.803
12995TIP3   OH238927   3.047   8.406   4.980
12995TIP3    H138928   3.013   8.420   4.889
12995TIP3    H238929   3.062   8.499   5.004
12996TIP3   OH238930   4.781   7.858   5.576
12996TIP3    H138931   4.693   7.887   5.545
12996TIP3    H238932   4.840   7.891   5.505
12997TIP3   OH238933   4.071   7.499   5.552
12997TIP3    H138934   4.065   7.405   5.579
12997TIP3    H238935   3.998   7.537   5.605
12998TIP3   OH238936   4.425   8.732   4.772
12998TIP3    H138937   4.402   8.653   4.719
12998TIP3    H238938   4.432   8.697   4.863
12999TIP3   OH238939   4.710   8.866   5.560
12999TIP3    H138940   4.698   8.789   5.501
12999TIP3    H238941   4.736   8.936   5.496
13000TIP3   OH238942   4.010   8.255   4.815
13000TIP3    H138943   3.928   8.309   4.803
13000TIP3    H238944   4.053   8.266   4.729
13001TIP3   OH238945   3.965   8.051   4.530
13001TIP3    H138946   4.032   8.101   4.579
13001TIP3    H238947   4.020   7.985   4.484
13002TIP3   OH238948   4.913   8.508   5.403
13002TIP3    H138949   4.829   8.558   5.409
13002TIP3    H238950   4.942   8.532   5.312
13003TIP3   OH238951   4.355   8.334   4.788
13003TIP3    H138952   4.300   8.359   4.867
13003TIP3    H238953   4.440   8.312   4.832
13004TIP3   OH238954   4.589   8.384   5.699
13004TIP3    H138955   4.587   8.469   5.747
13004TIP3    H238956   4.501   8.386   5.655
13005TIP3   OH238957   3.592   8.341   5.194
13005TIP3    H138958   3.554   8.280   5.128
13005TIP3    H238959   3.669   8.289   5.228
13006TIP3   OH238960   3.726   8.708   5.397
13006TIP3    H138961   3.688   8.708   5.308
13006TIP3    H238962   3.822   8.706   5.381
13007TIP3   OH238963   3.714   8.321   5.554
13007TIP3    H138964   3.753   8.294   5.468
13007TIP3    H238965   3.762   8.405   5.573
13008TIP3   OH238966   3.903   8.776   5.880
13008TIP3    H138967   3.867   8.864   5.902
13008TIP3    H238968   3.829   8.742   5.826
13009TIP3   OH238969   4.198   8.202   4.606
13009TIP3    H138970   4.253   8.261   4.662
13009TIP3    H238971   4.229   8.227   4.516
13010TIP3   OH238972   3.614   8.424   5.989
13010TIP3    H138973   3.619   8.513   6.028
13010TIP3    H238974   3.517   8.408   5.995
13011TIP3   OH238975   4.709   7.445   4.660
13011TIP3    H138976   4.628   7.465   4.711
13011TIP3    H238977   4.722   7.528   4.610
13012TIP3   OH238978   3.460   8.182   4.999
13012TIP3    H138979   3.392   8.229   4.946
13012TIP3    H238980   3.409   8.105   5.029
13013TIP3   OH238981   3.252   8.572   5.920
13013TIP3    H138982   3.174   8.567   5.861
13013TIP3    H238983   3.278   8.479   5.932
13014TIP3   OH238984   4.847   8.349   5.873
13014TIP3    H138985   4.762   8.357   5.827
13014TIP3    H238986   4.862   8.252   5.866
13015TIP3   OH238987   3.444   8.772   5.917
13015TIP3    H138988   3.494   8.732   5.991
13015TIP3    H238989   3.369   8.710   5.908
13016TIP3   OH238990   3.839   7.576   5.690
13016TIP3    H138991   3.750   7.545   5.664
13016TIP3    H238992   3.815   7.654   5.742
13017TIP3   OH238993   4.614   8.126   5.808
13017TIP3    H138994   4.557   8.122   5.887
13017TIP3    H238995   4.585   8.208   5.764
13018TIP3   OH238996   4.288   8.228   4.350
13018TIP3    H138997   4.238   8.262   4.274
13018TIP3    H238998   4.358   8.298   4.347
13019TIP3   OH238999   3.987   7.624   4.662
13019TIP3    H139000   3.951   7.621   4.753
13019TIP3    H239001   3.949   7.542   4.627
13020TIP3   OH239002   3.764   8.092   5.699
13020TIP3    H139003   3.721   8.114   5.783
13020TIP3    H239004   3.752   8.175   5.649
13021TIP3   OH239005   3.653   7.979   5.220
13021TIP3    H139006   3.560   7.954   5.239
13021TIP3    H239007   3.665   7.938   5.132
13022TIP3   OH239008   4.145   8.059   4.950
13022TIP3    H139009   4.092   8.130   4.905
13022TIP3    H239010   4.202   8.029   4.877
13023TIP3   OH239011   4.322   8.327   6.042
13023TIP3    H139012   4.330   8.264   6.114
13023TIP3    H239013   4.413   8.362   6.041
13024TIP3   OH239014   4.305   8.091   5.185
13024TIP3    H139015   4.240   8.120   5.119
13024TIP3    H239016   4.337   8.010   5.141
13025TIP3   OH239017   3.592   8.122   5.914
13025TIP3    H139018   3.603   8.195   5.977
13025TIP3    H239019   3.574   8.045   5.970
13026TIP3   OH239020   3.650   7.596   4.619
13026TIP3    H139021   3.634   7.609   4.714
13026TIP3    H239022   3.564   7.611   4.579
13027TIP3   OH239023   3.185   7.638   5.508
13027TIP3    H139024   3.256   7.673   5.565
13027TIP3    H239025   3.219   7.654   5.419
13028TIP3   OH239026   4.314   8.338   5.608
13028TIP3    H139027   4.346   8.266   5.548
13028TIP3    H239028   4.282   8.284   5.683
13029TIP3   OH239029   3.982   7.803   5.281
13029TIP3    H139030   3.904   7.800   5.340
13029TIP3    H239031   4.055   7.792   5.345
13030TIP3   OH239032   3.415   7.857   5.290
13030TIP3    H139033   3.321   7.864   5.260
13030TIP3    H239034   3.440   7.767   5.263
13031TIP3   OH239035   3.683   7.848   4.982
13031TIP3    H139036   3.778   7.864   4.966
13031TIP3    H239037   3.642   7.871   4.895
13032TIP3   OH239038   4.472   7.877   5.488
13032TIP3    H139039   4.439   7.889   5.580
13032TIP3    H239040   4.406   7.816   5.453
13033TIP3   OH239041   3.536   7.875   4.750
13033TIP3    H139042   3.448   7.882   4.711
13033TIP3    H239043   3.592   7.918   4.682
13034TIP3   OH239044   3.601   8.672   6.128
13034TIP3    H139045   3.682   8.701   6.174
13034TIP3    H239046   3.538   8.672   6.202
13035TIP3   OH239047   4.061   8.136   5.374
13035TIP3    H139048   4.134   8.084   5.338
13035TIP3    H239049   4.057   8.103   5.466
13036TIP3   OH239050   3.579   7.614   5.259
13036TIP3    H139051   3.547   7.536   5.309
13036TIP3    H239052   3.642   7.574   5.198
13037TIP3   OH239053   4.043   8.056   5.633
13037TIP3    H139054   3.956   8.050   5.676
13037TIP3    H239055   4.101   8.082   5.707
13038TIP3   OH239056   3.779   8.400   4.772
13038TIP3    H139057   3.699   8.346   4.757
13038TIP3    H239058   3.756   8.447   4.855
13039TIP3   OH239059   4.677   8.647   5.394
13039TIP3    H139060   4.705   8.696   5.314
13039TIP3    H239061   4.592   8.607   5.365
13040TIP3   OH239062   4.228   7.739   4.609
13040TIP3    H139063   4.137   7.712   4.634
13040TIP3    H239064   4.241   7.825   4.653
13041TIP3   OH239065   4.187   8.758   5.760
13041TIP3    H139066   4.217   8.707   5.836
13041TIP3    H239067   4.103   8.793   5.792
13042TIP3   OH239068   4.304   7.975   4.730
13042TIP3    H139069   4.400   7.981   4.748
13042TIP3    H239070   4.287   8.058   4.681
13043TIP3   OH239071   3.450   8.392   5.427
13043TIP3    H139072   3.501   8.386   5.344
13043TIP3    H239073   3.512   8.354   5.491
13044TIP3   OH239074   3.888   8.590   4.605
13044TIP3    H139075   3.847   8.660   4.661
13044TIP3    H239076   3.853   8.511   4.652
13045TIP3   OH239077   3.354   8.342   6.051
13045TIP3    H139078   3.357   8.331   6.148
13045TIP3    H239079   3.277   8.287   6.028
13046TIP3   OH239080   4.081   8.460   6.077
13046TIP3    H139081   4.019   8.421   6.014
13046TIP3    H239082   4.166   8.423   6.045
13047TIP3   OH239083   4.749   8.075   4.569
13047TIP3    H139084   4.686   8.027   4.510
13047TIP3    H239085   4.741   8.163   4.527
13048TIP3   OH239086   4.967   8.905   5.652
13048TIP3    H139087   4.871   8.919   5.638
13048TIP3    H239088   4.996   8.893   5.559
13049TIP3   OH239089   4.440   8.520   5.297
13049TIP3    H139090   4.349   8.492   5.319
13049TIP3    H239091   4.475   8.436   5.260
13050TIP3   OH239092   3.140   8.047   4.763
13050TIP3    H139093   3.182   8.132   4.788
13050TIP3    H239094   3.064   8.045   4.825
13051TIP3   OH239095   3.703   8.520   5.009
13051TIP3    H139096   3.664   8.601   5.045
13051TIP3    H239097   3.676   8.458   5.079
13052TIP3   OH239098   4.233   8.721   5.489
13052TIP3    H139099   4.222   8.732   5.586
13052TIP3    H239100   4.316   8.672   5.484
13053TIP3   OH239101   4.160   8.490   4.375
13053TIP3    H139102   4.247   8.511   4.413
13053TIP3    H239103   4.122   8.579   4.364
13054TIP3   OH239104   3.564   7.871   6.073
13054TIP3    H139105   3.467   7.870   6.070
13054TIP3    H239106   3.582   7.793   6.128
13055TIP3   OH239107   4.362   8.530   4.594
13055TIP3    H139108   4.361   8.456   4.657
13055TIP3    H239109   4.455   8.528   4.562
13056TIP3   OH239110   3.546   8.542   4.423
13056TIP3    H139111   3.593   8.461   4.396
13056TIP3    H239112   3.591   8.565   4.505
13057TIP3   OH239113   3.257   8.289   4.849
13057TIP3    H139114   3.186   8.324   4.908
13057TIP3    H239115   3.261   8.361   4.783
13058TIP3   OH239116   4.397   7.928   5.746
13058TIP3    H139117   4.479   7.936   5.796
13058TIP3    H239118   4.346   7.864   5.802
13059TIP3   OH239119   4.282   7.678   4.908
13059TIP3    H139120   4.269   7.707   4.817
13059TIP3    H239121   4.323   7.758   4.949
13060TIP3   OH239122   3.962   7.861   5.012
13060TIP3    H139123   4.028   7.932   4.995
13060TIP3    H239124   3.971   7.850   5.109
13061TIP3   OH239125   4.244   8.176   5.815
13061TIP3    H139126   4.269   8.220   5.899
13061TIP3    H239127   4.294   8.092   5.819
13062TIP3   OH239128   4.111   7.581   5.110
13062TIP3    H139129   4.112   7.653   5.175
13062TIP3    H239130   4.172   7.617   5.042
13063TIP3   OH239131   3.617   7.587   4.896
13063TIP3    H139132   3.623   7.675   4.938
13063TIP3    H239133   3.711   7.560   4.905
13064TIP3   OH239134   4.878   8.077   5.797
13064TIP3    H139135   4.780   8.079   5.808
13064TIP3    H239136   4.885   8.029   5.714
13065TIP3   OH239137   4.528   8.273   5.189
13065TIP3    H139138   4.451   8.214   5.201
13065TIP3    H239139   4.598   8.225   5.238
13066TIP3   OH239140   3.246   8.503   4.662
13066TIP3    H139141   3.272   8.596   4.651
13066TIP3    H239142   3.301   8.458   4.594
13067TIP3   OH239143   3.569   7.497   5.663
13067TIP3    H139144   3.542   7.461   5.575
13067TIP3    H239145   3.563   7.417   5.720
13068TIP3   OH239146   3.397   8.655   6.316
13068TIP3    H139147   3.422   8.560   6.312
13068TIP3    H239148   3.313   8.654   6.265
13069TIP3   OH239149   3.372   8.302   4.514
13069TIP3    H139150   3.425   8.274   4.591
13069TIP3    H239151   3.444   8.310   4.447
13070TIP3   OH239152   4.020   8.724   6.119
13070TIP3    H139153   3.986   8.741   6.028
13070TIP3    H239154   4.057   8.634   6.108
13071TIP3   OH239155   3.816   8.483   4.331
13071TIP3    H139156   3.871   8.507   4.407
13071TIP3    H239157   3.844   8.391   4.314
13072TIP3   OH239158   4.497   8.750   5.694
13072TIP3    H139159   4.565   8.806   5.650
13072TIP3    H239160   4.420   8.808   5.689
13073TIP3   OH239161   3.511   8.405   6.302
13073TIP3    H139162   3.573   8.337   6.276
13073TIP3    H239163   3.548   8.434   6.388
13074TIP3   OH239164   3.571   8.218   4.725
13074TIP3    H139165   3.550   8.181   4.812
13074TIP3    H239166   3.615   8.144   4.679
13075TIP3   OH239167   3.849   8.278   5.984
13075TIP3    H139168   3.775   8.342   5.977
13075TIP3    H239169   3.902   8.303   5.905
13076TIP3   OH239170   3.688   8.013   4.573
13076TIP3    H139171   3.663   8.015   4.478
13076TIP3    H239172   3.785   8.021   4.566
13077TIP3   OH239173   4.374   8.669   6.089
13077TIP3    H139174   4.458   8.651   6.045
13077TIP3    H239175   4.376   8.608   6.165
13078TIP3   OH239176   3.945   7.911   5.939
13078TIP3    H139177   4.031   7.873   5.910
13078TIP3    H239178   3.883   7.856   5.887
13079TIP3   OH239179   3.998   8.400   5.784
13079TIP3    H139180   4.076   8.390   5.728
13079TIP3    H239181   3.944   8.464   5.733
13080TIP3   OH239182   4.591   8.364   6.146
13080TIP3    H139183   4.635   8.278   6.155
13080TIP3    H239184   4.665   8.421   6.117
13081TIP3   OH239185   4.629   8.609   5.880
13081TIP3    H139186   4.572   8.664   5.821
13081TIP3    H239187   4.717   8.630   5.843
13082TIP3   OH239188   4.477   8.071   6.039
13082TIP3    H139189   4.424   7.992   6.057
13082TIP3    H239190   4.561   8.051   6.087
13083TIP3   OH239191   4.707   8.015   6.178
13083TIP3    H139192   4.722   7.919   6.194
13083TIP3    H239193   4.702   8.051   6.269
13084TIP3   OH239194   3.766   7.962   6.319
13084TIP3    H139195   3.729   7.870   6.322
13084TIP3    H239196   3.776   7.975   6.416
13085TIP3   OH239197   4.265   7.824   6.361
13085TIP3    H139198   4.282   7.774   6.279
13085TIP3    H239199   4.179   7.863   6.343
13086TIP3   OH239200   2.982   8.408   4.705
13086TIP3    H139201   3.062   8.453   4.671
13086TIP3    H239202   2.971   8.335   4.641
13087TIP3   OH239203   4.853   9.050   5.939
13087TIP3    H139204   4.776   9.018   5.990
13087TIP3    H239205   4.903   9.095   6.011
13088TIP3   OH239206   4.638   8.520   4.589
13088TIP3    H139207   4.706   8.581   4.555
13088TIP3    H239208   4.687   8.479   4.664
13089TIP3   OH239209   4.777   8.384   4.778
13089TIP3    H139210   4.711   8.346   4.840
13089TIP3    H239211   4.844   8.423   4.838
13090TIP3   OH239212   4.810   8.782   5.200
13090TIP3    H139213   4.875   8.726   5.154
13090TIP3    H239214   4.813   8.865   5.150
13091TIP3   OH239215   4.703   8.313   4.418
13091TIP3    H139216   4.638   8.340   4.349
13091TIP3    H239217   4.679   8.381   4.485
13092TIP3   OH239218   4.579   7.974   4.389
13092TIP3    H139219   4.547   8.028   4.316
13092TIP3    H239220   4.555   7.883   4.363
13093TIP3   OH239221   4.583   8.251   4.922
13093TIP3    H139222   4.592   8.155   4.915
13093TIP3    H239223   4.568   8.265   5.018
13094TIP3   OH239224   3.210   8.322   5.667
13094TIP3    H139225   3.207   8.294   5.574
13094TIP3    H239226   3.307   8.328   5.681
13095TIP3   OH239227   4.874   8.676   5.784
13095TIP3    H139228   4.949   8.614   5.771
13095TIP3    H239229   4.898   8.748   5.721
13096TIP3   OH239230   5.068   8.485   5.792
13096TIP3    H139231   4.989   8.436   5.826
13096TIP3    H239232   5.135   8.415   5.804
13097TIP3   OH239233   4.520   7.711   4.347
13097TIP3    H139234   4.595   7.683   4.403
13097TIP3    H239235   4.448   7.651   4.376
13098TIP3   OH239236   4.579   7.969   4.810
13098TIP3    H139237   4.621   7.881   4.824
13098TIP3    H239238   4.639   8.006   4.742
13099TIP3   OH239239   4.741   8.140   5.307
13099TIP3    H139240   4.826   8.166   5.266
13099TIP3    H239241   4.755   8.177   5.396
13100TIP3   OH239242   4.811   8.287   5.537
13100TIP3    H139243   4.734   8.321   5.587
13100TIP3    H239244   4.844   8.368   5.493
13101TIP3   OH239245   3.439   8.015   6.342
13101TIP3    H139246   3.534   8.000   6.331
13101TIP3    H239247   3.410   7.929   6.380
13102TIP3   OH239248   5.259   7.873   6.088
13102TIP3    H139249   5.322   7.810   6.047
13102TIP3    H239250   5.231   7.927   6.011
13103TIP3   OH239251   4.689   7.720   4.848
13103TIP3    H139252   4.737   7.704   4.932
13103TIP3    H239253   4.628   7.643   4.848
13104TIP3   OH239254   3.388   7.708   5.681
13104TIP3    H139255   3.449   7.631   5.683
13104TIP3    H239256   3.452   7.780   5.665
13105TIP3   OH239257   3.192   7.980   5.742
13105TIP3    H139258   3.244   7.975   5.658
13105TIP3    H239259   3.215   8.069   5.772
13106TIP3   OH239260   5.130   8.013   5.898
13106TIP3    H139261   5.044   8.057   5.915
13106TIP3    H239262   5.100   7.941   5.839
13107TIP3   OH239263   4.763   7.654   4.479
13107TIP3    H139264   4.807   7.582   4.429
13107TIP3    H239265   4.832   7.724   4.479
13108TIP3   OH239266   3.396   7.577   6.064
13108TIP3    H139267   3.341   7.561   6.143
13108TIP3    H239268   3.329   7.602   5.998
13109TIP3   OH239269   5.032   7.777   5.778
13109TIP3    H139270   4.941   7.764   5.747
13109TIP3    H239271   5.067   7.685   5.768
13110TIP3   OH239272   4.228   7.690   5.389
13110TIP3    H139273   4.190   7.623   5.449
13110TIP3    H239274   4.308   7.645   5.355
13111TIP3   OH239275   4.757   7.574   5.299
13111TIP3    H139276   4.793   7.627   5.225
13111TIP3    H239277   4.662   7.596   5.296
13112TIP3   OH239278   4.853   7.674   5.065
13112TIP3    H139279   4.928   7.622   5.028
13112TIP3    H239280   4.888   7.766   5.051
13113TIP3   OH239281   3.485   7.400   5.413
13113TIP3    H139282   3.394   7.364   5.418
13113TIP3    H239283   3.537   7.317   5.409
13114TIP3   OH239284   3.281   7.269   5.085
13114TIP3    H139285   3.312   7.302   5.001
13114TIP3    H239286   3.197   7.317   5.096
13115TIP3   OH239287   3.927   7.440   5.298
13115TIP3    H139288   3.986   7.486   5.237
13115TIP3    H239289   3.961   7.469   5.384
13116TIP3   OH239290   4.474   7.584   5.279
13116TIP3    H139291   4.473   7.543   5.192
13116TIP3    H239292   4.463   7.504   5.337
13117TIP3   OH239293   4.505   7.507   4.842
13117TIP3    H139294   4.420   7.550   4.859
13117TIP3    H239295   4.492   7.420   4.887
13118TIP3   OH239296   3.374   7.465   4.814
13118TIP3    H139297   3.415   7.398   4.754
13118TIP3    H239298   3.457   7.505   4.850
13119TIP3   OH239299   3.899   7.610   4.924
13119TIP3    H139300   3.958   7.562   4.985
13119TIP3    H239301   3.920   7.702   4.951
13120TIP3   OH239302   3.691   7.694   6.316
13120TIP3    H139303   3.653   7.620   6.365
13120TIP3    H239304   3.786   7.683   6.339
13121TIP3   OH239305   3.945   7.680   6.422
13121TIP3    H139306   4.028   7.639   6.392
13121TIP3    H239307   3.922   7.618   6.495
13122TIP3   OH239308   4.773   7.752   6.215
13122TIP3    H139309   4.790   7.716   6.305
13122TIP3    H239310   4.860   7.742   6.173
13123TIP3   OH239311   5.974   8.651   4.477
13123TIP3    H139312   5.941   8.739   4.450
13123TIP3    H239313   5.901   8.597   4.443
13124TIP3   OH239314   5.961   8.662   4.853
13124TIP3    H139315   5.997   8.637   4.941
13124TIP3    H239316   5.920   8.579   4.826
13125TIP3   OH239317   5.268   8.561   5.218
13125TIP3    H139318   5.300   8.493   5.281
13125TIP3    H239319   5.345   8.620   5.215
13126TIP3   OH239320   6.190   8.964   4.547
13126TIP3    H139321   6.187   8.893   4.614
13126TIP3    H239322   6.247   9.028   4.591
13127TIP3   OH239323   5.296   8.914   5.014
13127TIP3    H139324   5.269   8.825   4.983
13127TIP3    H239325   5.382   8.926   4.967
13128TIP3   OH239326   4.954   8.171   4.724
13128TIP3    H139327   4.907   8.254   4.744
13128TIP3    H239328   4.882   8.123   4.679
13129TIP3   OH239329   5.007   8.464   4.905
13129TIP3    H139330   5.058   8.387   4.937
13129TIP3    H239331   5.076   8.517   4.862
13130TIP3   OH239332   5.785   8.884   4.885
13130TIP3    H139333   5.828   8.802   4.854
13130TIP3    H239334   5.862   8.940   4.903
13131TIP3   OH239335   6.781   8.213   4.905
13131TIP3    H139336   6.791   8.294   4.957
13131TIP3    H239337   6.813   8.242   4.818
13132TIP3   OH239338   6.184   8.397   4.928
13132TIP3    H139339   6.225   8.312   4.950
13132TIP3    H239340   6.150   8.379   4.839
13133TIP3   OH239341   5.526   8.054   4.894
13133TIP3    H139342   5.502   8.127   4.833
13133TIP3    H239343   5.474   7.981   4.853
13134TIP3   OH239344   6.217   8.145   4.521
13134TIP3    H139345   6.291   8.132   4.584
13134TIP3    H239346   6.262   8.189   4.447
13135TIP3   OH239347   5.155   8.256   5.005
13135TIP3    H139348   5.238   8.236   5.053
13135TIP3    H239349   5.168   8.202   4.925
13136TIP3   OH239350   5.594   8.455   4.797
13136TIP3    H139351   5.688   8.429   4.811
13136TIP3    H239352   5.554   8.370   4.767
13137TIP3   OH239353   5.518   8.038   5.331
13137TIP3    H139354   5.458   8.075   5.263
13137TIP3    H239355   5.465   8.055   5.411
13138TIP3   OH239356   5.859   8.854   4.335
13138TIP3    H139357   5.808   8.854   4.253
13138TIP3    H239358   5.879   8.949   4.347
13139TIP3   OH239359   5.622   8.819   5.126
13139TIP3    H139360   5.567   8.885   5.172
13139TIP3    H239361   5.651   8.870   5.048
13140TIP3   OH239362   6.431   8.147   4.695
13140TIP3    H139363   6.393   8.116   4.779
13140TIP3    H239364   6.477   8.229   4.723
13141TIP3   OH239365   5.390   8.152   5.114
13141TIP3    H139366   5.449   8.227   5.137
13141TIP3    H239367   5.441   8.113   5.040
13142TIP3   OH239368   5.450   9.026   5.235
13142TIP3    H139369   5.413   9.026   5.145
13142TIP3    H239370   5.366   9.025   5.286
13143TIP3   OH239371   4.841   8.661   4.467
13143TIP3    H139372   4.792   8.660   4.383
13143TIP3    H239373   4.856   8.757   4.474
13144TIP3   OH239374   6.560   8.095   5.048
13144TIP3    H139375   6.479   8.134   5.013
13144TIP3    H239376   6.630   8.138   4.995
13145TIP3   OH239377   5.872   7.755   5.048
13145TIP3    H139378   5.856   7.660   5.066
13145TIP3    H239379   5.794   7.794   5.094
13146TIP3   OH239380   6.221   8.981   4.264
13146TIP3    H139381   6.185   8.903   4.218
13146TIP3    H239382   6.228   8.951   4.357
13147TIP3   OH239383   5.804   8.512   4.307
13147TIP3    H139384   5.722   8.564   4.292
13147TIP3    H239385   5.846   8.517   4.219
13148TIP3   OH239386   5.762   8.306   4.017
13148TIP3    H139387   5.828   8.358   4.065
13148TIP3    H239388   5.819   8.243   3.968
13149TIP3   OH239389   6.151   8.593   4.278
13149TIP3    H139390   6.096   8.616   4.356
13149TIP3    H239391   6.236   8.573   4.322
13150TIP3   OH239392   5.389   8.598   4.681
13150TIP3    H139393   5.347   8.538   4.615
13150TIP3    H239394   5.465   8.545   4.713
13151TIP3   OH239395   5.523   8.969   4.883
13151TIP3    H139396   5.480   8.965   4.795
13151TIP3    H239397   5.617   8.955   4.862
13152TIP3   OH239398   5.514   8.577   5.040
13152TIP3    H139399   5.551   8.554   4.953
13152TIP3    H239400   5.558   8.661   5.062
13153TIP3   OH239401   5.585   8.994   5.482
13153TIP3    H139402   5.672   9.024   5.452
13153TIP3    H239403   5.540   8.990   5.396
13154TIP3   OH239404   5.990   8.457   4.100
13154TIP3    H139405   6.048   8.519   4.150
13154TIP3    H239406   6.018   8.475   4.007
13155TIP3   OH239407   5.407   8.679   5.468
13155TIP3    H139408   5.405   8.766   5.512
13155TIP3    H239409   5.313   8.653   5.479
13156TIP3   OH239410   5.253   8.440   4.490
13156TIP3    H139411   5.186   8.485   4.435
13156TIP3    H239412   5.208   8.358   4.511
13157TIP3   OH239413   5.045   8.828   5.401
13157TIP3    H139414   4.975   8.806   5.337
13157TIP3    H239415   5.079   8.741   5.428
13158TIP3   OH239416   5.226   9.036   5.395
13158TIP3    H139417   5.270   8.994   5.472
13158TIP3    H239418   5.153   8.972   5.382
13159TIP3   OH239419   5.634   7.834   5.175
13159TIP3    H139420   5.545   7.803   5.148
13159TIP3    H239421   5.608   7.914   5.224
13160TIP3   OH239422   6.164   7.946   5.372
13160TIP3    H139423   6.224   7.918   5.443
13160TIP3    H239424   6.075   7.930   5.412
13161TIP3   OH239425   6.067   8.485   3.842
13161TIP3    H139426   6.038   8.467   3.751
13161TIP3    H239427   6.109   8.572   3.830
13162TIP3   OH239428   5.783   7.877   4.147
13162TIP3    H139429   5.746   7.877   4.237
13162TIP3    H239430   5.739   7.797   4.112
13163TIP3   OH239431   5.565   8.351   5.188
13163TIP3    H139432   5.521   8.372   5.273
13163TIP3    H239433   5.548   8.434   5.137
13164TIP3   OH239434   5.450   8.235   4.706
13164TIP3    H139435   5.358   8.210   4.726
13164TIP3    H239436   5.461   8.194   4.618
13165TIP3   OH239437   5.942   8.317   4.436
13165TIP3    H139438   5.888   8.387   4.394
13165TIP3    H239439   5.995   8.286   4.360
13166TIP3   OH239440   6.094   8.347   4.675
13166TIP3    H139441   6.034   8.380   4.605
13166TIP3    H239442   6.124   8.265   4.630
13167TIP3   OH239443   5.383   8.376   5.400
13167TIP3    H139444   5.426   8.437   5.461
13167TIP3    H239445   5.372   8.296   5.454
13168TIP3   OH239446   5.438   7.857   4.112
13168TIP3    H139447   5.426   7.854   4.209
13168TIP3    H239448   5.359   7.908   4.085
13169TIP3   OH239449   4.979   7.898   4.983
13169TIP3    H139450   5.052   7.931   5.038
13169TIP3    H239451   5.023   7.869   4.902
13170TIP3   OH239452   4.943   7.880   4.501
13170TIP3    H139453   4.989   7.918   4.423
13170TIP3    H239454   4.886   7.955   4.523
13171TIP3   OH239455   6.075   8.587   5.090
13171TIP3    H139456   6.126   8.522   5.037
13171TIP3    H239457   6.054   8.532   5.169
13172TIP3   OH239458   5.781   8.053   4.768
13172TIP3    H139459   5.697   8.053   4.818
13172TIP3    H239460   5.847   8.055   4.839
13173TIP3   OH239461   5.214   8.114   4.776
13173TIP3    H139462   5.119   8.122   4.749
13173TIP3    H239463   5.235   8.022   4.753
13174TIP3   OH239464   5.479   8.107   4.466
13174TIP3    H139465   5.571   8.125   4.441
13174TIP3    H239466   5.429   8.130   4.384
13175TIP3   OH239467   6.267   8.131   4.957
13175TIP3    H139468   6.248   8.142   5.053
13175TIP3    H239469   6.193   8.072   4.932
13176TIP3   OH239470   5.326   8.141   4.243
13176TIP3    H139471   5.253   8.097   4.195
13176TIP3    H239472   5.377   8.178   4.169
13177TIP3   OH239473   5.357   8.921   5.603
13177TIP3    H139474   5.450   8.951   5.593
13177TIP3    H239475   5.340   8.922   5.699
13178TIP3   OH239476   5.859   8.387   4.866
13178TIP3    H139477   5.933   8.344   4.821
13178TIP3    H239478   5.861   8.346   4.955
13179TIP3   OH239479   5.380   7.870   4.749
13179TIP3    H139480   5.343   7.793   4.798
13179TIP3    H239481   5.424   7.828   4.675
13180TIP3   OH239482   5.833   8.283   5.147
13180TIP3    H139483   5.744   8.319   5.165
13180TIP3    H239484   5.891   8.339   5.202
13181TIP3   OH239485   5.576   8.658   4.260
13181TIP3    H139486   5.497   8.601   4.245
13181TIP3    H239487   5.550   8.704   4.343
13182TIP3   OH239488   6.031   7.982   4.115
13182TIP3    H139489   5.935   7.962   4.123
13182TIP3    H239490   6.036   8.077   4.138
13183TIP3   OH239491   6.099   8.232   4.217
13183TIP3    H139492   6.195   8.244   4.229
13183TIP3    H239493   6.074   8.312   4.166
13184TIP3   OH239494   5.249   8.653   4.914
13184TIP3    H139495   5.300   8.643   4.832
13184TIP3    H239496   5.307   8.609   4.979
13185TIP3   OH239497   5.686   8.843   4.091
13185TIP3    H139498   5.644   8.915   4.143
13185TIP3    H239499   5.648   8.766   4.138
13186TIP3   OH239500   5.145   8.605   5.541
13186TIP3    H139501   5.151   8.583   5.635
13186TIP3    H239502   5.074   8.545   5.512
13187TIP3   OH239503   6.533   8.325   4.056
13187TIP3    H139504   6.480   8.278   3.987
13187TIP3    H239505   6.530   8.414   4.015
13188TIP3   OH239506   6.201   8.782   4.770
13188TIP3    H139507   6.118   8.732   4.785
13188TIP3    H239508   6.263   8.710   4.752
13189TIP3   OH239509   4.925   8.301   4.253
13189TIP3    H139510   4.972   8.384   4.271
13189TIP3    H239511   4.846   8.312   4.311
13190TIP3   OH239512   5.501   8.778   4.498
13190TIP3    H139513   5.457   8.857   4.533
13190TIP3    H239514   5.473   8.714   4.567
13191TIP3   OH239515   6.044   8.962   4.978
13191TIP3    H139516   6.023   8.905   5.053
13191TIP3    H239517   6.103   8.907   4.925
13192TIP3   OH239518   6.029   8.790   3.835
13192TIP3    H139519   6.064   8.793   3.926
13192TIP3    H239520   5.953   8.851   3.843
13193TIP3   OH239521   5.356   8.119   5.542
13193TIP3    H139522   5.259   8.126   5.556
13193TIP3    H239523   5.383   8.065   5.618
13194TIP3   OH239524   6.156   8.780   4.080
13194TIP3    H139525   6.154   8.709   4.148
13194TIP3    H239526   6.252   8.784   4.060
13195TIP3   OH239527   5.347   8.801   3.909
13195TIP3    H139528   5.389   8.717   3.883
13195TIP3    H239529   5.380   8.814   3.998
13196TIP3   OH239530   5.051   8.543   4.334
13196TIP3    H139531   4.983   8.581   4.394
13196TIP3    H239532   5.061   8.617   4.271
13197TIP3   OH239533   6.218   8.174   5.222
13197TIP3    H139534   6.252   8.234   5.289
13197TIP3    H239535   6.188   8.097   5.276
13198TIP3   OH239536   6.086   7.931   4.396
13198TIP3    H139537   6.062   7.954   4.304
13198TIP3    H239538   6.117   8.016   4.432
13199TIP3   OH239539   5.765   8.115   4.497
13199TIP3    H139540   5.827   8.189   4.481
13199TIP3    H239541   5.768   8.108   4.595
13200TIP3   OH239542   6.014   8.427   5.306
13200TIP3    H139543   5.985   8.458   5.393
13200TIP3    H239544   6.097   8.385   5.332
13201TIP3   OH239545   5.908   7.840   4.600
13201TIP3    H139546   5.893   7.919   4.655
13201TIP3    H239547   5.970   7.875   4.532
13202TIP3   OH239548   5.420   7.841   4.388
13202TIP3    H139549   5.416   7.931   4.425
13202TIP3    H239550   5.516   7.825   4.396
13203TIP3   OH239551   6.323   8.528   4.674
13203TIP3    H139552   6.246   8.472   4.692
13203TIP3    H239553   6.393   8.484   4.727
13204TIP3   OH239554   5.051   8.760   4.152
13204TIP3    H139555   5.074   8.854   4.139
13204TIP3    H239556   5.102   8.716   4.082
13205TIP3   OH239557   4.982   8.033   4.277
13205TIP3    H139558   4.982   8.131   4.276
13205TIP3    H239559   4.903   8.013   4.227
13206TIP3   OH239560   5.370   7.752   5.147
13206TIP3    H139561   5.338   7.718   5.061
13206TIP3    H239562   5.359   7.675   5.206
13207TIP3   OH239563   5.183   8.884   5.823
13207TIP3    H139564   5.218   8.797   5.795
13207TIP3    H239565   5.103   8.894   5.766
13208TIP3   OH239566   5.168   8.561   4.000
13208TIP3    H139567   5.219   8.528   4.076
13208TIP3    H239568   5.240   8.565   3.932
13209TIP3   OH239569   5.622   8.740   3.815
13209TIP3    H139570   5.661   8.766   3.899
13209TIP3    H239571   5.654   8.649   3.803
13210TIP3   OH239572   5.330   8.655   5.797
13210TIP3    H139573   5.392   8.589   5.764
13210TIP3    H239574   5.311   8.618   5.884
13211TIP3   OH239575   5.372   8.473   4.214
13211TIP3    H139576   5.345   8.432   4.298
13211TIP3    H239577   5.411   8.397   4.166
13212TIP3   OH239578   5.639   8.526   5.435
13212TIP3    H139579   5.572   8.596   5.444
13212TIP3    H239580   5.702   8.568   5.372
13213TIP3   OH239581   5.483   8.268   4.059
13213TIP3    H139582   5.456   8.270   3.965
13213TIP3    H239583   5.581   8.276   4.050
13214TIP3   OH239584   6.315   8.604   3.714
13214TIP3    H139585   6.279   8.557   3.637
13214TIP3    H239586   6.291   8.696   3.689
13215TIP3   OH239587   5.757   8.322   5.573
13215TIP3    H139588   5.764   8.245   5.512
13215TIP3    H239589   5.717   8.390   5.514
13216TIP3   OH239590   5.776   8.114   5.376
13216TIP3    H139591   5.802   8.156   5.292
13216TIP3    H239592   5.682   8.091   5.359
13217TIP3   OH239593   5.795   8.641   5.244
13217TIP3    H139594   5.878   8.650   5.196
13217TIP3    H239595   5.739   8.712   5.205
13218TIP3   OH239596   5.646   8.436   5.798
13218TIP3    H139597   5.573   8.372   5.815
13218TIP3    H239598   5.678   8.404   5.711
13219TIP3   OH239599   5.906   7.876   5.443
13219TIP3    H139600   5.856   7.959   5.422
13219TIP3    H239601   5.836   7.808   5.434
13220TIP3   OH239602   6.031   8.377   5.594
13220TIP3    H139603   6.059   8.398   5.684
13220TIP3    H239604   5.937   8.353   5.607
13221TIP3   OH239605   5.490   8.210   5.845
13221TIP3    H139606   5.493   8.117   5.816
13221TIP3    H239607   5.521   8.202   5.938
13222TIP3   OH239608   5.998   7.880   5.703
13222TIP3    H139609   6.067   7.811   5.695
13222TIP3    H239610   5.959   7.877   5.613
13223TIP3   OH239611   6.046   8.088   5.877
13223TIP3    H139612   6.028   8.016   5.812
13223TIP3    H239613   5.973   8.150   5.861
13224TIP3   OH239614   4.779   8.696   4.167
13224TIP3    H139615   4.872   8.703   4.139
13224TIP3    H239616   4.751   8.611   4.128
13225TIP3   OH239617   6.428   8.775   4.058
13225TIP3    H139618   6.497   8.838   4.026
13225TIP3    H239619   6.476   8.737   4.135
13226TIP3   OH239620   6.564   8.646   4.255
13226TIP3    H139621   6.502   8.609   4.322
13226TIP3    H239622   6.637   8.683   4.309
13227TIP3   OH239623   6.499   8.556   3.906
13227TIP3    H139624   6.431   8.565   3.835
13227TIP3    H239625   6.475   8.634   3.960
13228TIP3   OH239626   6.382   8.228   3.854
13228TIP3    H139627   6.327   8.277   3.791
13228TIP3    H239628   6.351   8.136   3.841
13229TIP3   OH239629   6.379   8.513   4.408
13229TIP3    H139630   6.385   8.417   4.402
13229TIP3    H239631   6.364   8.527   4.505
13230TIP3   OH239632   5.005   8.588   5.153
13230TIP3    H139633   5.001   8.552   5.062
13230TIP3    H239634   5.102   8.588   5.169
13231TIP3   OH239635   6.308   7.964   3.845
13231TIP3    H139636   6.367   7.907   3.894
13231TIP3    H239637   6.223   7.916   3.850
13232TIP3   OH239638   6.382   8.238   4.302
13232TIP3    H139639   6.449   8.178   4.335
13232TIP3    H239640   6.426   8.273   4.222
13233TIP3   OH239641   6.538   8.397   4.793
13233TIP3    H139642   6.622   8.426   4.750
13233TIP3    H239643   6.555   8.436   4.881
13234TIP3   OH239644   5.219   8.261   5.814
13234TIP3    H139645   5.316   8.270   5.830
13234TIP3    H239646   5.201   8.177   5.859
13235TIP3   OH239647   5.185   7.961   5.156
13235TIP3    H139648   5.247   7.887   5.166
13235TIP3    H239649   5.247   8.036   5.149
13236TIP3   OH239650   4.985   8.235   5.227
13236TIP3    H139651   5.036   8.231   5.144
13236TIP3    H239652   5.017   8.318   5.265
13237TIP3   OH239653   4.971   7.735   4.727
13237TIP3    H139654   4.879   7.733   4.759
13237TIP3    H239655   4.966   7.796   4.651
13238TIP3   OH239656   5.192   7.818   5.544
13238TIP3    H139657   5.140   7.812   5.626
13238TIP3    H239658   5.125   7.857   5.484
13239TIP3   OH239659   6.815   8.021   5.240
13239TIP3    H139660   6.720   8.003   5.241
13239TIP3    H239661   6.852   7.931   5.238
13240TIP3   OH239662   6.036   7.951   4.890
13240TIP3    H139663   5.989   7.883   4.941
13240TIP3    H239664   6.105   7.900   4.845
13241TIP3   OH239665   6.555   7.824   4.771
13241TIP3    H139666   6.583   7.903   4.723
13241TIP3    H239667   6.460   7.843   4.786
13242TIP3   OH239668   6.634   7.922   4.496
13242TIP3    H139669   6.723   7.884   4.509
13242TIP3    H239670   6.660   8.017   4.496
13243TIP3   OH239671   5.281   7.658   4.899
13243TIP3    H139672   5.189   7.625   4.903
13243TIP3    H239673   5.330   7.573   4.897
13244TIP3   OH239674   5.066   7.532   4.549
13244TIP3    H139675   5.097   7.589   4.477
13244TIP3    H239676   5.039   7.597   4.617
13245TIP3   OH239677   5.728   7.691   4.780
13245TIP3    H139678   5.785   7.743   4.722
13245TIP3    H239679   5.746   7.729   4.867
13246TIP3   OH239680   6.277   7.838   4.765
13246TIP3    H139681   6.258   7.800   4.678
13246TIP3    H239682   6.260   7.760   4.824
13247TIP3   OH239683   6.358   7.764   4.345
13247TIP3    H139684   6.278   7.816   4.327
13247TIP3    H239685   6.317   7.680   4.379
13248TIP3   OH239686   5.186   7.690   4.310
13248TIP3    H139687   5.234   7.627   4.254
13248TIP3    H239688   5.260   7.744   4.347
13249TIP3   OH239689   5.697   7.866   4.410
13249TIP3    H139690   5.754   7.819   4.472
13249TIP3    H239691   5.717   7.958   4.436
13250TIP3   OH239692   5.489   7.934   5.793
13250TIP3    H139693   5.455   7.863   5.850
13250TIP3    H239694   5.583   7.936   5.821
13251TIP3   OH239695   5.736   7.942   5.919
13251TIP3    H139696   5.822   7.919   5.880
13251TIP3    H239697   5.724   7.869   5.984
13252TIP3   OH239698   6.739   8.423   4.211
13252TIP3    H139699   6.701   8.511   4.231
13252TIP3    H239700   6.666   8.383   4.161
13253TIP3   OH239701   6.804   8.705   4.368
13253TIP3    H139702   6.856   8.645   4.425
13253TIP3    H239703   6.872   8.760   4.329
13254TIP3   OH239704   7.291   8.309   4.399
13254TIP3    H139705   7.292   8.382   4.336
13254TIP3    H239706   7.247   8.240   4.347
13255TIP3   OH239707   6.961   8.512   4.500
13255TIP3    H139708   7.055   8.523   4.517
13255TIP3    H239709   6.964   8.451   4.423
13256TIP3   OH239710   6.641   8.923   3.971
13256TIP3    H139711   6.619   8.959   3.883
13256TIP3    H239712   6.685   9.000   4.008
13257TIP3   OH239713   7.016   8.671   3.927
13257TIP3    H139714   7.037   8.762   3.948
13257TIP3    H239715   6.969   8.641   4.004
13258TIP3   OH239716   7.229   8.464   4.171
13258TIP3    H139717   7.142   8.446   4.211
13258TIP3    H239718   7.207   8.537   4.110
13259TIP3   OH239719   7.194   8.073   3.590
13259TIP3    H139720   7.202   8.071   3.688
13259TIP3    H239721   7.168   8.165   3.577
13260TIP3   OH239722   6.789   8.145   4.463
13260TIP3    H139723   6.842   8.182   4.537
13260TIP3    H239724   6.841   8.174   4.388
13261TIP3   OH239725   6.766   8.135   4.009
13261TIP3    H139726   6.799   8.168   3.924
13261TIP3    H239727   6.697   8.200   4.028
13262TIP3   OH239728   6.994   8.359   4.275
13262TIP3    H139729   6.904   8.370   4.238
13262TIP3    H239730   7.026   8.277   4.234
13263TIP3   OH239731   7.086   8.372   3.741
13263TIP3    H139732   7.002   8.349   3.700
13263TIP3    H239733   7.087   8.469   3.733
13264TIP3   OH239734   7.170   8.127   4.226
13264TIP3    H139735   7.141   8.049   4.277
13264TIP3    H239736   7.235   8.090   4.166
13265TIP3   OH239737   6.720   8.551   3.744
13265TIP3    H139738   6.763   8.635   3.764
13265TIP3    H239739   6.641   8.557   3.803
13266TIP3   OH239740   7.189   8.094   3.868
13266TIP3    H139741   7.170   8.188   3.886
13266TIP3    H239742   7.282   8.087   3.898
13267TIP3   OH239743   6.770   8.281   3.762
13267TIP3    H139744   6.768   8.379   3.764
13267TIP3    H239745   6.679   8.262   3.735
13268TIP3   OH239746   7.134   8.011   4.644
13268TIP3    H139747   7.137   7.977   4.553
13268TIP3    H239748   7.154   7.933   4.698
13269TIP3   OH239749   6.549   8.926   3.651
13269TIP3    H139750   6.628   8.976   3.629
13269TIP3    H239751   6.556   8.847   3.594
13270TIP3   OH239752   6.970   8.226   4.652
13270TIP3    H139753   7.029   8.147   4.653
13270TIP3    H239754   7.036   8.297   4.654
13271TIP3   OH239755   6.784   8.499   4.714
13271TIP3    H139756   6.841   8.485   4.636
13271TIP3    H239757   6.809   8.590   4.738
13272TIP3   OH239758   6.993   8.067   5.041
13272TIP3    H139759   6.930   8.069   5.117
13272TIP3    H239760   6.938   8.111   4.974
13273TIP3   OH239761   7.082   7.912   4.380
13273TIP3    H139762   6.991   7.878   4.388
13273TIP3    H239763   7.133   7.828   4.380
13274TIP3   OH239764   6.868   7.804   4.029
13274TIP3    H139765   6.894   7.829   3.938
13274TIP3    H239766   6.854   7.893   4.065
13275TIP3   OH239767   7.509   7.941   4.294
13275TIP3    H139768   7.580   7.990   4.251
13275TIP3    H239769   7.496   7.989   4.376
13276TIP3   OH239770   6.976   7.930   3.795
13276TIP3    H139771   7.030   7.877   3.733
13276TIP3    H239772   7.044   7.990   3.833
13277TIP3   OH239773   7.457   8.107   3.926
13277TIP3    H139774   7.505   8.036   3.881
13277TIP3    H239775   7.498   8.185   3.885
13278TIP3   OH239776   4.611   1.745   7.959
13278TIP3    H139777   4.623   1.839   7.931
13278TIP3    H239778   4.700   1.709   7.938
13279TIP3   OH239779   4.154   1.974   8.035
13279TIP3    H139780   4.208   1.895   8.014
13279TIP3    H239781   4.131   1.960   8.129
13280TIP3   OH239782   4.367   1.239   8.096
13280TIP3    H139783   4.331   1.202   8.012
13280TIP3    H239784   4.462   1.247   8.070
13281TIP3   OH239785   4.525   1.809   8.211
13281TIP3    H139786   4.539   1.721   8.247
13281TIP3    H239787   4.562   1.798   8.120
13282TIP3   OH239788   4.642   2.016   7.935
13282TIP3    H139789   4.685   2.083   7.879
13282TIP3    H239790   4.562   2.067   7.960
13283TIP3   OH239791   3.813   1.714   7.995
13283TIP3    H139792   3.832   1.631   8.042
13283TIP3    H239793   3.895   1.720   7.943
13284TIP3   OH239794   4.284   1.750   7.934
13284TIP3    H139795   4.371   1.736   7.974
13284TIP3    H239796   4.310   1.759   7.840
13285TIP3   OH239797   4.603   1.280   7.968
13285TIP3    H139798   4.594   1.216   7.895
13285TIP3    H239799   4.579   1.363   7.921
13286TIP3   OH239800   4.822   1.315   8.134
13286TIP3    H139801   4.742   1.288   8.085
13286TIP3    H239802   4.808   1.277   8.221
13287TIP3   OH239803   4.567   2.090   8.254
13287TIP3    H139804   4.564   1.993   8.238
13287TIP3    H239805   4.532   2.124   8.168
13288TIP3   OH239806   6.047   1.612   8.227
13288TIP3    H139807   6.024   1.700   8.192
13288TIP3    H239808   5.988   1.558   8.171
13289TIP3   OH239809   6.271   1.875   8.265
13289TIP3    H139810   6.207   1.837   8.327
13289TIP3    H239811   6.292   1.962   8.307
13290TIP3   OH239812   5.951   2.354   8.271
13290TIP3    H139813   6.009   2.282   8.238
13290TIP3    H239814   5.958   2.345   8.367
13291TIP3   OH239815   5.964   1.823   8.075
13291TIP3    H139816   5.921   1.802   7.990
13291TIP3    H239817   5.918   1.907   8.099
13292TIP3   OH239818   4.939   1.635   8.184
13292TIP3    H139819   4.893   1.629   8.097
13292TIP3    H239820   4.961   1.731   8.189
13293TIP3   OH239821   6.348   2.112   8.374
13293TIP3    H139822   6.275   2.127   8.437
13293TIP3    H239823   6.373   2.205   8.354
13294TIP3   OH239824   6.095   2.183   8.115
13294TIP3    H139825   6.145   2.104   8.086
13294TIP3    H239826   6.151   2.253   8.075
13295TIP3   OH239827   6.230   1.970   8.011
13295TIP3    H139828   6.186   1.898   7.962
13295TIP3    H239829   6.245   1.927   8.097
13296TIP3   OH239830   5.904   1.480   8.034
13296TIP3    H139831   5.818   1.521   8.012
13296TIP3    H239832   5.943   1.468   7.945
13297TIP3   OH239833   5.860   1.235   7.761
13297TIP3    H139834   5.931   1.287   7.802
13297TIP3    H239835   5.913   1.174   7.705
13298TIP3   OH239836   6.232   1.556   8.019
13298TIP3    H139837   6.170   1.590   8.087
13298TIP3    H239838   6.289   1.504   8.079
13299TIP3   OH239839   6.129   2.153   8.549
13299TIP3    H139840   6.196   2.214   8.587
13299TIP3    H239841   6.143   2.073   8.603
13300TIP3   OH239842   6.087   1.401   7.836
13300TIP3    H139843   6.145   1.463   7.885
13300TIP3    H239844   6.113   1.421   7.743
13301TIP3   OH239845   5.835   2.068   8.112
13301TIP3    H139846   5.913   2.122   8.136
13301TIP3    H239847   5.777   2.134   8.072
13302TIP3   OH239848   5.363   1.350   8.190
13302TIP3    H139849   5.285   1.399   8.157
13302TIP3    H239850   5.327   1.299   8.264
13303TIP3   OH239851   6.406   1.999   7.441
13303TIP3    H139852   6.415   2.096   7.425
13303TIP3    H239853   6.499   1.970   7.424
13304TIP3   OH239854   5.715   2.314   7.920
13304TIP3    H139855   5.669   2.297   7.835
13304TIP3    H239856   5.683   2.403   7.944
13305TIP3   OH239857   5.138   2.156   8.273
13305TIP3    H139858   5.152   2.100   8.351
13305TIP3    H239859   5.057   2.117   8.237
13306TIP3   OH239860   5.917   2.218   7.558
13306TIP3    H139861   5.975   2.148   7.522
13306TIP3    H239862   5.951   2.227   7.650
13307TIP3   OH239863   5.967   2.266   7.828
13307TIP3    H139864   5.879   2.275   7.870
13307TIP3    H239865   6.019   2.228   7.901
13308TIP3   OH239866   6.164   1.445   7.583
13308TIP3    H139867   6.129   1.411   7.498
13308TIP3    H239868   6.251   1.478   7.555
13309TIP3   OH239869   5.996   1.250   8.148
13309TIP3    H139870   5.964   1.336   8.115
13309TIP3    H239871   6.061   1.225   8.078
13310TIP3   OH239872   5.560   1.045   8.212
13310TIP3    H139873   5.650   1.035   8.177
13310TIP3    H239874   5.506   1.054   8.131
13311TIP3   OH239875   5.409   1.053   7.979
13311TIP3    H139876   5.348   1.027   7.907
13311TIP3    H239877   5.474   1.102   7.924
13312TIP3   OH239878   5.663   1.602   7.976
13312TIP3    H139879   5.593   1.535   7.962
13312TIP3    H239880   5.637   1.638   8.064
13313TIP3   OH239881   6.110   0.958   7.793
13313TIP3    H139882   6.046   0.908   7.848
13313TIP3    H239883   6.130   1.033   7.853
13314TIP3   OH239884   6.170   1.169   7.952
13314TIP3    H139885   6.262   1.180   7.983
13314TIP3    H239886   6.157   1.249   7.898
13315TIP3   OH239887   5.822   1.755   7.817
13315TIP3    H139888   5.772   1.840   7.820
13315TIP3    H239889   5.762   1.698   7.870
13316TIP3   OH239890   6.349   2.070   7.707
13316TIP3    H139891   6.310   2.002   7.763
13316TIP3    H239892   6.358   2.026   7.620
13317TIP3   OH239893   5.439   1.938   8.269
13317TIP3    H139894   5.497   2.010   8.240
13317TIP3    H239895   5.356   1.968   8.230
13318TIP3   OH239896   5.040   1.234   7.993
13318TIP3    H139897   5.096   1.312   8.014
13318TIP3    H239898   4.960   1.259   8.045
13319TIP3   OH239899   5.592   1.711   8.210
13319TIP3    H139900   5.550   1.795   8.239
13319TIP3    H239901   5.637   1.683   8.293
13320TIP3   OH239902   5.380   2.184   8.133
13320TIP3    H139903   5.292   2.193   8.173
13320TIP3    H239904   5.415   2.276   8.141
13321TIP3   OH239905   6.094   1.806   7.599
13321TIP3    H139906   6.146   1.781   7.679
13321TIP3    H239907   6.007   1.772   7.623
13322TIP3   OH239908   6.437   2.276   7.422
13322TIP3    H139909   6.475   2.351   7.374
13322TIP3    H239910   6.356   2.318   7.456
13323TIP3   OH239911   6.244   1.743   7.818
13323TIP3    H139912   6.236   1.677   7.889
13323TIP3    H239913   6.340   1.738   7.801
13324TIP3   OH239914   5.463   1.780   7.607
13324TIP3    H139915   5.476   1.688   7.578
13324TIP3    H239916   5.442   1.768   7.701
13325TIP3   OH239917   5.403   1.786   7.880
13325TIP3    H139918   5.476   1.755   7.934
13325TIP3    H239919   5.411   1.883   7.887
13326TIP3   OH239920   5.146   1.481   8.084
13326TIP3    H139921   5.070   1.521   8.132
13326TIP3    H239922   5.160   1.549   8.016
13327TIP3   OH239923   5.675   1.982   7.824
13327TIP3    H139924   5.588   2.007   7.859
13327TIP3    H239925   5.692   2.056   7.764
13328TIP3   OH239926   5.838   1.028   8.165
13328TIP3    H139927   5.883   1.113   8.149
13328TIP3    H239928   5.867   1.010   8.256
13329TIP3   OH239929   5.421   2.059   7.893
13329TIP3    H139930   5.392   2.127   7.828
13329TIP3    H239931   5.407   2.107   7.977
13330TIP3   OH239932   5.135   1.685   7.883
13330TIP3    H139933   5.208   1.749   7.892
13330TIP3    H239934   5.177   1.624   7.818
13331TIP3   OH239935   5.070   0.950   7.956
13331TIP3    H139936   5.071   1.044   7.979
13331TIP3    H239937   5.005   0.916   8.018
13332TIP3   OH239938   6.420   2.379   8.322
13332TIP3    H139939   6.356   2.435   8.273
13332TIP3    H239940   6.490   2.445   8.338
13333TIP3   OH239941   5.000   1.890   8.250
13333TIP3    H139942   4.966   1.935   8.330
13333TIP3    H239943   4.963   1.944   8.178
13334TIP3   OH239944   5.626   1.982   7.515
13334TIP3    H139945   5.571   1.911   7.555
13334TIP3    H239946   5.702   1.930   7.482
13335TIP3   OH239947   6.063   2.024   7.428
13335TIP3    H139948   6.098   1.955   7.488
13335TIP3    H239949   6.123   2.019   7.351
13336TIP3   OH239950   5.274   1.498   7.742
13336TIP3    H139951   5.331   1.464   7.813
13336TIP3    H239952   5.339   1.503   7.669
13337TIP3   OH239953   5.789   1.702   7.547
13337TIP3    H139954   5.788   1.713   7.644
13337TIP3    H239955   5.790   1.604   7.540
13338TIP3   OH239956   5.472   1.410   7.945
13338TIP3    H139957   5.446   1.379   8.035
13338TIP3    H239958   5.510   1.328   7.907
13339TIP3   OH239959   5.580   1.195   7.808
13339TIP3    H139960   5.552   1.199   7.714
13339TIP3    H239961   5.678   1.199   7.798
13340TIP3   OH239962   6.393   1.526   7.457
13340TIP3    H139963   6.372   1.482   7.372
13340TIP3    H239964   6.362   1.617   7.435
13341TIP3   OH239965   5.390   2.261   7.706
13341TIP3    H139966   5.486   2.254   7.686
13341TIP3    H239967   5.361   2.312   7.628
13342TIP3   OH239968   4.863   1.641   7.910
13342TIP3    H139969   4.959   1.663   7.899
13342TIP3    H239970   4.860   1.551   7.870
13343TIP3   OH239971   4.794   2.243   8.325
13343TIP3    H139972   4.714   2.203   8.286
13343TIP3    H239973   4.824   2.171   8.383
13344TIP3   OH239974   6.639   2.554   8.310
13344TIP3    H139975   6.650   2.620   8.381
13344TIP3    H239976   6.629   2.614   8.235
13345TIP3   OH239977   6.512   1.719   7.788
13345TIP3    H139978   6.574   1.786   7.752
13345TIP3    H239979   6.573   1.654   7.825
13346TIP3   OH239980   6.588   1.506   7.638
13346TIP3    H139981   6.523   1.484   7.568
13346TIP3    H239982   6.542   1.584   7.675
13347TIP3   OH239983   6.402   1.161   7.599
13347TIP3    H139984   6.446   1.223   7.540
13347TIP3    H239985   6.432   1.076   7.566
13348TIP3   OH239986   6.230   2.372   7.978
13348TIP3    H139987   6.284   2.363   7.897
13348TIP3    H239988   6.277   2.440   8.028
13349TIP3   OH239989   5.882   2.494   8.518
13349TIP3    H139990   5.794   2.478   8.482
13349TIP3    H239991   5.873   2.472   8.611
13350TIP3   OH239992   6.107   2.458   8.667
13350TIP3    H139993   6.060   2.472   8.583
13350TIP3    H239994   6.194   2.494   8.639
13351TIP3   OH239995   6.268   2.613   8.505
13351TIP3    H139996   6.288   2.707   8.496
13351TIP3    H239997   6.355   2.574   8.517
13352TIP3   OH239998   4.883   2.050   8.073
13352TIP3    H139999   4.802   2.012   8.035
13352TIP3    H240000   4.875   2.141   8.037
13353TIP3   OH240001   5.657   2.217   7.653
13353TIP3    H140002   5.745   2.240   7.616
13353TIP3    H240003   5.635   2.142   7.593
13354TIP3   OH240004   6.377   2.338   7.746
13354TIP3    H140005   6.370   2.241   7.735
13354TIP3    H240006   6.330   2.370   7.666
13355TIP3   OH240007   4.961   2.053   7.709
13355TIP3    H140008   4.971   2.083   7.800
13355TIP3    H240009   5.048   2.010   7.691
13356TIP3   OH240010   6.714   1.884   7.730
13356TIP3    H140011   6.716   1.889   7.633
13356TIP3    H240012   6.744   1.975   7.754
13357TIP3   OH240013   7.497   2.594   7.393
13357TIP3    H140014   7.447   2.552   7.321
13357TIP3    H240015   7.444   2.672   7.414
13358TIP3   OH240016   6.890   2.428   7.760
13358TIP3    H140017   6.973   2.394   7.798
13358TIP3    H240018   6.827   2.362   7.793
13359TIP3   OH240019   7.707   2.475   7.027
13359TIP3    H140020   7.730   2.383   7.003
13359TIP3    H240021   7.766   2.483   7.106
13360TIP3   OH240022   6.801   1.488   7.475
13360TIP3    H140023   6.836   1.579   7.485
13360TIP3    H240024   6.728   1.491   7.542
13361TIP3   OH240025   7.192   2.435   7.609
13361TIP3    H140026   7.131   2.405   7.679
13361TIP3    H240027   7.193   2.532   7.623
13362TIP3   OH240028   7.259   2.034   7.067
13362TIP3    H140029   7.276   1.940   7.046
13362TIP3    H240030   7.241   2.028   7.163
13363TIP3   OH240031   7.201   2.052   7.331
13363TIP3    H140032   7.223   2.019   7.420
13363TIP3    H240033   7.208   2.149   7.347
13364TIP3   OH240034   6.878   1.748   7.533
13364TIP3    H140035   6.889   1.767   7.627
13364TIP3    H240036   6.947   1.803   7.493
13365TIP3   OH240037   7.475   2.242   7.300
13365TIP3    H140038   7.393   2.267   7.347
13365TIP3    H240039   7.477   2.311   7.233
13366TIP3   OH240040   7.219   2.320   7.366
13366TIP3    H140041   7.181   2.392   7.311
13366TIP3    H240042   7.205   2.357   7.456
13367TIP3   OH240043   6.930   1.970   7.346
13367TIP3    H140044   7.003   2.033   7.359
13367TIP3    H240045   6.976   1.905   7.288
13368TIP3   OH240046   6.879   1.222   7.440
13368TIP3    H140047   6.855   1.310   7.475
13368TIP3    H240048   6.870   1.163   7.516
13369TIP3   OH240049   6.780   2.141   7.772
13369TIP3    H140050   6.697   2.190   7.766
13369TIP3    H240051   6.823   2.175   7.692
13370TIP3   OH240052   7.418   2.245   6.997
13370TIP3    H140053   7.361   2.173   7.034
13370TIP3    H240054   7.490   2.190   6.959
13371TIP3   OH240055   7.827   2.254   6.894
13371TIP3    H140056   7.905   2.258   6.952
13371TIP3    H240057   7.873   2.255   6.807
13372TIP3   OH240058   7.072   1.764   7.220
13372TIP3    H140059   7.113   1.724   7.298
13372TIP3    H240060   7.149   1.769   7.160
13373TIP3   OH240061   7.555   1.955   7.038
13373TIP3    H140062   7.561   1.975   7.132
13373TIP3    H240063   7.556   1.858   7.038
13374TIP3   OH240064   7.176   2.530   7.193
13374TIP3    H140065   7.270   2.521   7.171
13374TIP3    H240066   7.145   2.575   7.113
13375TIP3   OH240067   6.662   1.906   7.395
13375TIP3    H140068   6.758   1.927   7.391
13375TIP3    H240069   6.661   1.813   7.365
13376TIP3   OH240070   6.571   2.518   7.821
13376TIP3    H140071   6.508   2.453   7.784
13376TIP3    H240072   6.622   2.460   7.882
13377TIP3   OH240073   6.713   2.367   7.998
13377TIP3    H140074   6.706   2.293   8.060
13377TIP3    H240075   6.771   2.426   8.047
13378TIP3   OH240076   6.674   2.289   7.564
13378TIP3    H140077   6.589   2.262   7.524
13378TIP3    H240078   6.673   2.384   7.545
13379TIP3   OH240079   7.439   2.480   7.130
13379TIP3    H140080   7.532   2.495   7.102
13379TIP3    H240081   7.415   2.405   7.071
13380TIP3   OH240082   6.756   2.315   7.197
13380TIP3    H140083   6.751   2.333   7.292
13380TIP3    H240084   6.843   2.271   7.187
13381TIP3   OH240085   2.451   3.287   8.019
13381TIP3    H140086   2.451   3.382   8.031
13381TIP3    H240087   2.546   3.265   8.032
13382TIP3   OH240088   2.495   3.594   8.077
13382TIP3    H140089   2.535   3.675   8.038
13382TIP3    H240090   2.403   3.609   8.054
13383TIP3   OH240091   3.923   3.159   8.370
13383TIP3    H140092   3.890   3.249   8.352
13383TIP3    H240093   3.857   3.110   8.316
13384TIP3   OH240094   4.141   3.490   8.391
13384TIP3    H140095   4.155   3.405   8.437
13384TIP3    H240096   4.170   3.557   8.453
13385TIP3   OH240097   3.788   3.921   8.432
13385TIP3    H140098   3.834   3.855   8.377
13385TIP3    H240099   3.802   3.882   8.520
13386TIP3   OH240100   3.788   3.372   8.242
13386TIP3    H140101   3.768   3.356   8.148
13386TIP3    H240102   3.764   3.466   8.250
13387TIP3   OH240103   3.930   3.763   8.262
13387TIP3    H140104   3.972   3.677   8.238
13387TIP3    H240105   3.993   3.825   8.218
13388TIP3   OH240106   4.041   3.541   8.146
13388TIP3    H140107   4.045   3.457   8.097
13388TIP3    H240108   4.082   3.515   8.232
13389TIP3   OH240109   3.756   3.018   8.204
13389TIP3    H140110   3.671   3.062   8.182
13389TIP3    H240111   3.793   3.003   8.115
13390TIP3   OH240112   3.704   2.792   7.907
13390TIP3    H140113   3.772   2.846   7.952
13390TIP3    H240114   3.762   2.730   7.858
13391TIP3   OH240115   4.080   3.100   8.147
13391TIP3    H140116   4.035   3.110   8.233
13391TIP3    H240117   4.166   3.061   8.174
13392TIP3   OH240118   3.923   2.947   7.987
13392TIP3    H140119   3.982   3.008   8.037
13392TIP3    H240120   3.951   2.968   7.894
13393TIP3   OH240121   3.689   3.634   8.271
13393TIP3    H140122   3.759   3.700   8.258
13393TIP3    H240123   3.614   3.675   8.226
13394TIP3   OH240124   4.449   2.186   8.026
13394TIP3    H140125   4.361   2.204   8.066
13394TIP3    H240126   4.464   2.270   7.977
13395TIP3   OH240127   4.246   3.556   7.593
13395TIP3    H140128   4.252   3.651   7.570
13395TIP3    H240129   4.339   3.527   7.577
13396TIP3   OH240130   3.560   3.872   8.070
13396TIP3    H140131   3.513   3.850   7.987
13396TIP3    H240132   3.528   3.962   8.090
13397TIP3   OH240133   3.757   3.777   7.706
13397TIP3    H140134   3.814   3.706   7.668
13397TIP3    H240135   3.794   3.786   7.796
13398TIP3   OH240136   3.811   3.824   7.976
13398TIP3    H140137   3.722   3.834   8.018
13398TIP3    H240138   3.860   3.776   8.044
13399TIP3   OH240139   4.007   2.990   7.735
13399TIP3    H140140   3.973   2.969   7.646
13399TIP3    H240141   4.091   3.036   7.711
13400TIP3   OH240142   3.727   2.369   8.040
13400TIP3    H140143   3.670   2.397   8.112
13400TIP3    H240144   3.682   2.288   8.009
13401TIP3   OH240145   3.960   2.842   8.302
13401TIP3    H140146   3.875   2.879   8.273
13401TIP3    H240147   3.978   2.778   8.231
13402TIP3   OH240148   3.408   2.378   8.006
13402TIP3    H140149   3.377   2.320   8.077
13402TIP3    H240150   3.325   2.418   7.975
13403TIP3   OH240151   3.245   2.615   8.114
13403TIP3    H140152   3.191   2.614   8.033
13403TIP3    H240153   3.328   2.652   8.076
13404TIP3   OH240154   3.519   3.155   8.142
13404TIP3    H140155   3.447   3.102   8.100
13404TIP3    H240156   3.475   3.189   8.221
13405TIP3   OH240157   3.977   2.464   7.999
13405TIP3    H140158   3.880   2.450   8.011
13405TIP3    H240159   3.989   2.560   8.017
13406TIP3   OH240160   4.055   2.712   8.081
13406TIP3    H140161   4.151   2.716   8.099
13406TIP3    H240162   4.038   2.795   8.034
13407TIP3   OH240163   3.666   3.313   7.968
13407TIP3    H140164   3.616   3.398   7.971
13407TIP3    H240165   3.610   3.257   8.026
13408TIP3   OH240166   4.478   2.805   7.943
13408TIP3    H140167   4.416   2.769   7.875
13408TIP3    H240168   4.483   2.897   7.910
13409TIP3   OH240169   4.189   3.630   7.856
13409TIP3    H140170   4.154   3.557   7.910
13409TIP3    H240171   4.200   3.588   7.768
13410TIP3   OH240172   3.205   3.744   8.247
13410TIP3    H140173   3.158   3.738   8.331
13410TIP3    H240174   3.250   3.830   8.255
13411TIP3   OH240175   3.940   3.357   7.753
13411TIP3    H140176   3.992   3.337   7.834
13411TIP3    H240177   3.851   3.331   7.782
13412TIP3   OH240178   4.281   3.831   7.572
13412TIP3    H140179   4.321   3.903   7.520
13412TIP3    H240180   4.197   3.875   7.598
13413TIP3   OH240181   4.102   3.310   7.975
13413TIP3    H140182   4.088   3.234   8.035
13413TIP3    H240183   4.197   3.299   7.955
13414TIP3   OH240184   3.308   3.336   7.755
13414TIP3    H140185   3.318   3.243   7.726
13414TIP3    H240186   3.286   3.323   7.850
13415TIP3   OH240187   3.249   3.341   8.027
13415TIP3    H140188   3.297   3.328   8.109
13415TIP3    H240189   3.249   3.439   8.021
13416TIP3   OH240190   4.056   2.441   8.262
13416TIP3    H140191   4.028   2.450   8.168
13416TIP3    H240192   3.994   2.502   8.305
13417TIP3   OH240193   3.523   3.543   7.979
13417TIP3    H140194   3.431   3.562   8.005
13417TIP3    H240195   3.535   3.610   7.910
13418TIP3   OH240196   3.259   3.609   8.020
13418TIP3    H140197   3.232   3.680   7.958
13418TIP3    H240198   3.235   3.652   8.106
13419TIP3   OH240199   2.977   3.258   8.037
13419TIP3    H140200   3.054   3.318   8.042
13419TIP3    H240201   3.017   3.188   7.982
13420TIP3   OH240202   4.232   4.008   8.538
13420TIP3    H140203   4.197   4.051   8.456
13420TIP3    H240204   4.327   4.006   8.517
13421TIP3   OH240205   3.468   3.541   7.667
13421TIP3    H140206   3.414   3.467   7.703
13421TIP3    H240207   3.543   3.492   7.628
13422TIP3   OH240208   3.901   3.583   7.574
13422TIP3    H140209   3.953   3.521   7.628
13422TIP3    H240210   3.952   3.587   7.491
13423TIP3   OH240211   3.115   3.063   7.888
13423TIP3    H140212   3.179   3.036   7.957
13423TIP3    H240213   3.177   3.069   7.813
13424TIP3   OH240214   3.630   3.256   7.698
13424TIP3    H140215   3.630   3.269   7.794
13424TIP3    H240216   3.627   3.158   7.692
13425TIP3   OH240217   3.327   2.979   8.048
13425TIP3    H140218   3.299   2.957   8.139
13425TIP3    H240219   3.363   2.893   8.016
13426TIP3   OH240220   3.431   2.739   7.947
13426TIP3    H140221   3.405   2.749   7.853
13426TIP3    H240222   3.528   2.748   7.940
13427TIP3   OH240223   4.242   3.084   7.617
13427TIP3    H140224   4.222   3.040   7.532
13427TIP3    H240225   4.211   3.175   7.595
13428TIP3   OH240226   3.232   3.823   7.853
13428TIP3    H140227   3.328   3.817   7.834
13428TIP3    H240228   3.203   3.874   7.775
13429TIP3   OH240229   2.711   3.207   8.047
13429TIP3    H140230   2.808   3.222   8.045
13429TIP3    H240231   2.705   3.113   8.023
13430TIP3   OH240232   4.504   4.061   8.491
13430TIP3    H140233   4.526   4.132   8.552
13430TIP3    H240234   4.554   4.087   8.411
13431TIP3   OH240235   4.377   3.277   7.942
13431TIP3    H140236   4.443   3.341   7.909
13431TIP3    H240237   4.425   3.240   8.019
13432TIP3   OH240238   4.516   3.150   8.138
13432TIP3    H140239   4.447   3.100   8.186
13432TIP3    H240240   4.578   3.178   8.208
13433TIP3   OH240241   4.550   3.537   8.565
13433TIP3    H140242   4.624   3.473   8.549
13433TIP3    H240243   4.573   3.608   8.503
13434TIP3   OH240244   4.445   3.049   7.798
13434TIP3    H140245   4.373   3.050   7.730
13434TIP3    H240246   4.418   3.125   7.852
13435TIP3   OH240247   4.312   2.722   7.747
13435TIP3    H140248   4.269   2.759   7.669
13435TIP3    H240249   4.289   2.627   7.738
13436TIP3   OH240250   4.312   2.983   8.226
13436TIP3    H140251   4.318   2.887   8.205
13436TIP3    H240252   4.328   2.983   8.323
13437TIP3   OH240253   4.257   2.456   7.732
13437TIP3    H140254   4.332   2.425   7.787
13437TIP3    H240255   4.184   2.396   7.755
13438TIP3   OH240256   4.324   2.714   8.159
13438TIP3    H140257   4.362   2.631   8.194
13438TIP3    H240258   4.391   2.735   8.089
13439TIP3   OH240259   4.425   2.453   8.215
13439TIP3    H140260   4.453   2.428   8.304
13439TIP3    H240261   4.358   2.384   8.194
13440TIP3   OH240262   4.502   2.398   7.858
13440TIP3    H140263   4.546   2.331   7.803
13440TIP3    H240264   4.567   2.471   7.857
13441TIP3   OH240265   4.082   3.936   8.128
13441TIP3    H140266   4.126   3.918   8.042
13441TIP3    H240267   4.136   4.008   8.163
13442TIP3   OH240268   4.233   2.248   8.182
13442TIP3    H140269   4.158   2.309   8.196
13442TIP3    H240270   4.199   2.167   8.224
13443TIP3   OH240271   2.765   3.622   8.204
13443TIP3    H140272   2.689   3.612   8.144
13443TIP3    H240273   2.732   3.695   8.260
13444TIP3   OH240274   3.499   3.776   7.804
13444TIP3    H140275   3.586   3.799   7.766
13444TIP3    H240276   3.476   3.702   7.744
13445TIP3   OH240277   4.220   3.897   7.895
13445TIP3    H140278   4.212   3.799   7.882
13445TIP3    H240279   4.175   3.930   7.814
13446TIP3   OH240280   2.804   3.612   7.865
13446TIP3    H140281   2.815   3.635   7.958
13446TIP3    H240282   2.890   3.569   7.845
13447TIP3   OH240283   5.711   3.416   7.846
13447TIP3    H140284   5.679   3.506   7.824
13447TIP3    H240285   5.636   3.362   7.816
13448TIP3   OH240286   5.706   3.415   8.237
13448TIP3    H140287   5.743   3.387   8.323
13448TIP3    H240288   5.667   3.332   8.205
13449TIP3   OH240289   5.028   3.356   8.588
13449TIP3    H140290   5.041   3.279   8.647
13449TIP3    H240291   5.108   3.352   8.534
13450TIP3   OH240292   5.954   3.716   7.914
13450TIP3    H140293   5.938   3.645   7.978
13450TIP3    H240294   5.984   3.789   7.970
13451TIP3   OH240295   4.979   3.725   8.328
13451TIP3    H140296   4.967   3.628   8.319
13451TIP3    H240297   5.076   3.730   8.315
13452TIP3   OH240298   4.699   2.937   8.087
13452TIP3    H140299   4.640   3.014   8.095
13452TIP3    H240300   4.637   2.864   8.103
13453TIP3   OH240301   4.745   3.207   8.280
13453TIP3    H140302   4.792   3.131   8.321
13453TIP3    H240303   4.804   3.229   8.207
13454TIP3   OH240304   5.606   4.177   7.932
13454TIP3    H140305   5.648   4.107   7.877
13454TIP3    H240306   5.594   4.131   8.015
13455TIP3   OH240307   5.508   3.639   8.280
13455TIP3    H140308   5.545   3.559   8.237
13455TIP3    H240309   5.593   3.684   8.301
13456TIP3   OH240310   6.514   2.978   8.262
13456TIP3    H140311   6.543   3.061   8.305
13456TIP3    H240312   6.540   2.996   8.169
13457TIP3   OH240313   5.920   3.139   8.309
13457TIP3    H140314   5.963   3.053   8.327
13457TIP3    H240315   5.889   3.124   8.218
13458TIP3   OH240316   5.262   2.790   8.279
13458TIP3    H140317   5.241   2.870   8.227
13458TIP3    H240318   5.212   2.723   8.227
13459TIP3   OH240319   5.955   2.889   7.896
13459TIP3    H140320   6.026   2.873   7.962
13459TIP3    H240321   6.007   2.925   7.823
13460TIP3   OH240322   4.894   3.007   8.381
13460TIP3    H140323   4.951   2.965   8.448
13460TIP3    H240324   4.913   2.950   8.304
13461TIP3   OH240325   5.325   3.204   8.185
13461TIP3    H140326   5.421   3.182   8.191
13461TIP3    H240327   5.288   3.117   8.156
13462TIP3   OH240328   6.582   3.177   8.442
13462TIP3    H140329   6.497   3.223   8.427
13462TIP3    H240330   6.568   3.144   8.533
13463TIP3   OH240331   5.598   3.634   7.718
13463TIP3    H140332   5.557   3.616   7.632
13463TIP3    H240333   5.552   3.717   7.744
13464TIP3   OH240334   5.369   3.571   8.507
13464TIP3    H140335   5.302   3.638   8.533
13464TIP3    H240336   5.411   3.614   8.429
13465TIP3   OH240337   6.160   2.894   8.075
13465TIP3    H140338   6.131   2.859   8.161
13465TIP3    H240339   6.212   2.972   8.101
13466TIP3   OH240340   5.112   2.887   8.501
13466TIP3    H140341   5.180   2.959   8.498
13466TIP3    H240342   5.147   2.831   8.430
13467TIP3   OH240343   5.182   3.751   8.606
13467TIP3    H140344   5.149   3.836   8.569
13467TIP3    H240345   5.119   3.736   8.679
13468TIP3   OH240346   4.579   3.444   7.837
13468TIP3    H140347   4.541   3.468   7.750
13468TIP3    H240348   4.611   3.530   7.870
13469TIP3   OH240349   6.022   3.960   8.080
13469TIP3    H140350   5.931   3.952   8.117
13469TIP3    H240351   6.014   4.045   8.032
13470TIP3   OH240352   6.318   2.889   8.444
13470TIP3    H140353   6.226   2.894   8.412
13470TIP3    H240354   6.369   2.916   8.365
13471TIP3   OH240355   5.611   2.493   8.403
13471TIP3    H140356   5.619   2.400   8.432
13471TIP3    H240357   5.587   2.537   8.487
13472TIP3   OH240358   5.720   4.005   7.750
13472TIP3    H140359   5.771   3.922   7.731
13472TIP3    H240360   5.782   4.070   7.710
13473TIP3   OH240361   5.865   3.790   7.663
13473TIP3    H140362   5.828   3.709   7.625
13473TIP3    H240363   5.903   3.756   7.747
13474TIP3   OH240364   6.240   3.872   8.420
13474TIP3    H140365   6.234   3.791   8.364
13474TIP3    H240366   6.227   3.944   8.355
13475TIP3   OH240367   5.540   3.265   7.682
13475TIP3    H140368   5.460   3.316   7.661
13475TIP3    H240369   5.585   3.262   7.596
13476TIP3   OH240370   5.498   3.052   7.394
13476TIP3    H140371   5.566   3.102   7.443
13476TIP3    H240372   5.554   2.988   7.347
13477TIP3   OH240373   6.446   3.515   8.268
13477TIP3    H140374   6.361   3.564   8.275
13477TIP3    H240375   6.470   3.535   8.175
13478TIP3   OH240376   5.888   3.348   7.650
13478TIP3    H140377   5.833   3.373   7.728
13478TIP3    H240378   5.972   3.322   7.695
13479TIP3   OH240379   6.121   3.378   8.570
13479TIP3    H140380   6.122   3.459   8.626
13479TIP3    H240381   6.034   3.387   8.526
13480TIP3   OH240382   5.121   3.345   8.064
13480TIP3    H140383   5.080   3.285   7.998
13480TIP3    H240384   5.195   3.290   8.098
13481TIP3   OH240385   5.248   3.756   8.217
13481TIP3    H140386   5.225   3.720   8.129
13481TIP3    H240387   5.337   3.719   8.231
13482TIP3   OH240388   5.244   3.341   8.421
13482TIP3    H140389   5.276   3.307   8.334
13482TIP3    H240390   5.297   3.422   8.433
13483TIP3   OH240391   5.780   3.957   8.201
13483TIP3    H140392   5.766   4.032   8.261
13483TIP3    H240393   5.767   3.879   8.259
13484TIP3   OH240394   5.394   3.901   8.698
13484TIP3    H140395   5.345   3.943   8.769
13484TIP3    H240396   5.328   3.836   8.665
13485TIP3   OH240397   5.727   3.206   7.479
13485TIP3    H140398   5.786   3.265   7.529
13485TIP3    H240399   5.753   3.228   7.386
13486TIP3   OH240400   5.472   3.884   7.756
13486TIP3    H140401   5.554   3.936   7.763
13486TIP3    H240402   5.412   3.944   7.710
13487TIP3   OH240403   6.243   2.444   7.528
13487TIP3    H140404   6.161   2.465   7.578
13487TIP3    H240405   6.256   2.527   7.478
13488TIP3   OH240406   4.988   3.188   7.871
13488TIP3    H140407   4.917   3.230   7.817
13488TIP3    H240408   4.949   3.102   7.890
13489TIP3   OH240409   6.043   3.812   7.076
13489TIP3    H140410   6.051   3.909   7.061
13489TIP3    H240411   6.136   3.783   7.063
13490TIP3   OH240412   4.625   3.770   8.403
13490TIP3    H140413   4.720   3.755   8.390
13490TIP3    H240414   4.623   3.851   8.455
13491TIP3   OH240415   6.489   4.221   8.469
13491TIP3    H140416   6.489   4.123   8.481
13491TIP3    H240417   6.402   4.241   8.510
13492TIP3   OH240418   5.610   4.007   8.590
13492TIP3    H140419   5.605   4.098   8.627
13492TIP3    H240420   5.528   3.968   8.627
13493TIP3   OH240421   5.355   4.129   7.557
13493TIP3    H140422   5.307   4.109   7.475
13493TIP3    H240423   5.320   4.217   7.581
13494TIP3   OH240424   4.790   3.978   7.940
13494TIP3    H140425   4.837   3.966   8.026
13494TIP3    H240426   4.740   3.894   7.934
13495TIP3   OH240427   5.554   4.033   7.195
13495TIP3    H140428   5.612   3.962   7.159
13495TIP3    H240429   5.589   4.042   7.286
13496TIP3   OH240430   5.606   4.081   7.464
13496TIP3    H140431   5.517   4.090   7.506
13496TIP3    H240432   5.656   4.040   7.536
13497TIP3   OH240433   6.388   3.350   8.712
13497TIP3    H140434   6.294   3.364   8.693
13497TIP3    H240435   6.394   3.253   8.714
13498TIP3   OH240436   6.145   3.130   8.695
13498TIP3    H140437   6.113   3.152   8.783
13498TIP3    H240438   6.120   3.209   8.643
13499TIP3   OH240439   5.805   3.249   7.223
13499TIP3    H140440   5.769   3.226   7.135
13499TIP3    H240441   5.888   3.294   7.198
13500TIP3   OH240442   5.517   2.625   7.526
13500TIP3    H140443   5.482   2.623   7.617
13500TIP3    H240444   5.477   2.542   7.492
13501TIP3   OH240445   5.292   3.085   8.503
13501TIP3    H140446   5.331   3.079   8.592
13501TIP3    H240447   5.283   3.181   8.487
13502TIP3   OH240448   5.190   2.979   8.091
13502TIP3    H140449   5.098   2.952   8.112
13502TIP3    H240450   5.201   2.937   8.003
13503TIP3   OH240451   5.677   3.065   7.816
13503TIP3    H140452   5.625   3.136   7.773
13503TIP3    H240453   5.732   3.032   7.742
13504TIP3   OH240454   5.840   3.093   8.050
13504TIP3    H140455   5.772   3.119   7.984
13504TIP3    H240456   5.872   3.012   8.007
13505TIP3   OH240457   5.173   2.601   7.491
13505TIP3    H140458   5.163   2.599   7.588
13505TIP3    H240459   5.095   2.653   7.465
13506TIP3   OH240460   4.669   2.687   8.251
13506TIP3    H140461   4.723   2.702   8.333
13506TIP3    H240462   4.721   2.617   8.209
13507TIP3   OH240463   4.684   2.625   7.881
13507TIP3    H140464   4.727   2.666   7.803
13507TIP3    H240465   4.625   2.699   7.907
13508TIP3   OH240466   5.846   3.342   8.471
13508TIP3    H140467   5.877   3.266   8.416
13508TIP3    H240468   5.823   3.294   8.554
13509TIP3   OH240469   5.517   2.800   8.144
13509TIP3    H140470   5.435   2.796   8.197
13509TIP3    H240471   5.586   2.798   8.213
13510TIP3   OH240472   4.953   2.861   8.155
13510TIP3    H140473   4.860   2.873   8.124
13510TIP3    H240474   4.973   2.769   8.133
13511TIP3   OH240475   5.214   2.852   7.847
13511TIP3    H140476   5.308   2.869   7.825
13511TIP3    H240477   5.167   2.876   7.764
13512TIP3   OH240478   6.014   2.877   8.333
13512TIP3    H140479   5.997   2.883   8.430
13512TIP3    H240480   5.944   2.814   8.308
13513TIP3   OH240481   5.063   2.888   7.622
13513TIP3    H140482   4.991   2.843   7.573
13513TIP3    H240483   5.114   2.925   7.547
13514TIP3   OH240484   6.187   4.560   8.556
13514TIP3    H140485   6.187   4.581   8.460
13514TIP3    H240486   6.226   4.641   8.593
13515TIP3   OH240487   5.595   3.148   8.232
13515TIP3    H140488   5.667   3.092   8.200
13515TIP3    H240489   5.592   3.123   8.327
13516TIP3   OH240490   5.118   2.623   8.116
13516TIP3    H140491   5.077   2.545   8.161
13516TIP3    H240492   5.165   2.581   8.044
13517TIP3   OH240493   5.585   3.073   8.494
13517TIP3    H140494   5.498   3.036   8.514
13517TIP3    H240495   5.641   3.022   8.555
13518TIP3   OH240496   5.310   3.417   7.629
13518TIP3    H140497   5.238   3.351   7.618
13518TIP3    H240498   5.290   3.451   7.720
13519TIP3   OH240499   6.209   3.653   8.257
13519TIP3    H140500   6.233   3.702   8.175
13519TIP3    H240501   6.124   3.610   8.231
13520TIP3   OH240502   5.767   2.728   7.495
13520TIP3    H140503   5.671   2.709   7.504
13520TIP3    H240504   5.774   2.822   7.520
13521TIP3   OH240505   5.722   3.741   8.619
13521TIP3    H140506   5.708   3.686   8.696
13521TIP3    H240507   5.668   3.820   8.636
13522TIP3   OH240508   5.836   2.977   7.598
13522TIP3    H140509   5.932   2.983   7.613
13522TIP3    H240510   5.817   3.057   7.545
13523TIP3   OH240511   4.999   3.456   8.286
13523TIP3    H140512   5.038   3.418   8.205
13523TIP3    H240513   5.029   3.394   8.353
13524TIP3   OH240514   5.456   3.567   7.454
13524TIP3    H140515   5.407   3.653   7.458
13524TIP3    H240516   5.401   3.511   7.513
13525TIP3   OH240517   5.875   4.003   8.518
13525TIP3    H140518   5.779   3.984   8.527
13525TIP3    H240519   5.886   4.066   8.591
13526TIP3   OH240520   6.279   3.069   7.431
13526TIP3    H140521   6.216   3.024   7.368
13526TIP3    H240522   6.274   3.159   7.391
13527TIP3   OH240523   6.487   3.941   8.506
13527TIP3    H140524   6.392   3.920   8.491
13527TIP3    H240525   6.525   3.902   8.424
13528TIP3   OH240526   5.982   3.887   7.342
13528TIP3    H140527   5.953   3.817   7.402
13528TIP3    H240528   5.993   3.840   7.257
13529TIP3   OH240529   5.973   3.517   8.173
13529TIP3    H140530   5.881   3.489   8.188
13529TIP3    H240531   6.009   3.437   8.131
13530TIP3   OH240532   5.105   3.747   7.937
13530TIP3    H140533   5.103   3.826   7.879
13530TIP3    H240534   5.011   3.723   7.939
13531TIP3   OH240535   4.669   3.047   7.636
13531TIP3    H140536   4.714   3.131   7.657
13531TIP3    H240537   4.592   3.051   7.697
13532TIP3   OH240538   5.239   3.511   7.873
13532TIP3    H140539   5.205   3.600   7.895
13532TIP3    H240540   5.203   3.457   7.946
13533TIP3   OH240541   5.371   4.089   8.397
13533TIP3    H140542   5.410   4.162   8.344
13533TIP3    H240543   5.450   4.048   8.434
13534TIP3   OH240544   5.023   3.982   7.784
13534TIP3    H140545   4.936   3.992   7.828
13534TIP3    H240546   5.054   4.075   7.786
13535TIP3   OH240547   5.764   3.724   8.353
13535TIP3    H140548   5.758   3.722   8.451
13535TIP3    H240549   5.835   3.661   8.336
13536TIP3   OH240550   5.738   3.617   7.242
13536TIP3    H140551   5.790   3.592   7.321
13536TIP3    H240552   5.649   3.587   7.269
13537TIP3   OH240553   6.001   4.258   8.412
13537TIP3    H140554   5.925   4.200   8.392
13537TIP3    H240555   5.996   4.321   8.337
13538TIP3   OH240556   6.074   4.088   7.060
13538TIP3    H140557   6.111   4.161   7.007
13538TIP3    H240558   5.994   4.132   7.095
13539TIP3   OH240559   5.898   3.549   7.457
13539TIP3    H140560   5.887   3.482   7.528
13539TIP3    H240561   5.995   3.546   7.445
13540TIP3   OH240562   4.819   3.958   8.540
13540TIP3    H140563   4.871   3.877   8.548
13540TIP3    H240564   4.807   3.984   8.633
13541TIP3   OH240565   5.102   3.594   7.241
13541TIP3    H140566   5.113   3.502   7.214
13541TIP3    H240567   5.080   3.584   7.336
13542TIP3   OH240568   5.045   3.600   7.513
13542TIP3    H140569   5.118   3.572   7.570
13542TIP3    H240570   5.050   3.698   7.521
13543TIP3   OH240571   4.779   3.292   7.718
13543TIP3    H140572   4.712   3.336   7.774
13543TIP3    H240573   4.793   3.360   7.650
13544TIP3   OH240574   5.964   2.914   8.595
13544TIP3    H140575   6.020   2.961   8.659
13544TIP3    H240576   5.880   2.902   8.642
13545TIP3   OH240577   5.815   2.677   7.777
13545TIP3    H140578   5.800   2.701   7.683
13545TIP3    H240579   5.854   2.759   7.813
13546TIP3   OH240580   5.314   3.798   7.463
13546TIP3    H140581   5.226   3.823   7.498
13546TIP3    H240582   5.328   3.870   7.399
13547TIP3   OH240583   5.498   2.862   7.875
13547TIP3    H140584   5.563   2.934   7.860
13547TIP3    H240585   5.504   2.853   7.973
13548TIP3   OH240586   5.794   3.212   8.706
13548TIP3    H140587   5.813   3.261   8.789
13548TIP3    H240588   5.813   3.121   8.730
13549TIP3   OH240589   5.641   2.583   7.976
13549TIP3    H140590   5.634   2.659   8.036
13549TIP3    H240591   5.705   2.618   7.910
13550TIP3   OH240592   5.059   3.873   7.531
13550TIP3    H140593   5.028   3.942   7.468
13550TIP3    H240594   5.041   3.916   7.618
13551TIP3   OH240595   5.156   2.586   7.768
13551TIP3    H140596   5.152   2.676   7.806
13551TIP3    H240597   5.253   2.570   7.775
13552TIP3   OH240598   6.405   3.065   8.644
13552TIP3    H140599   6.311   3.081   8.666
13552TIP3    H240600   6.392   2.999   8.573
13553TIP3   OH240601   6.060   3.276   8.052
13553TIP3    H140602   5.984   3.215   8.062
13553TIP3    H240603   6.131   3.228   8.100
13554TIP3   OH240604   4.776   3.499   7.523
13554TIP3    H140605   4.846   3.566   7.529
13554TIP3    H240606   4.817   3.441   7.455
13555TIP3   OH240607   4.717   2.776   7.655
13555TIP3    H140608   4.719   2.874   7.654
13555TIP3    H240609   4.635   2.758   7.610
13556TIP3   OH240610   6.030   4.232   8.001
13556TIP3    H140611   5.987   4.279   7.926
13556TIP3    H240612   6.124   4.249   7.981
13557TIP3   OH240613   4.646   3.724   7.908
13557TIP3    H140614   4.575   3.747   7.969
13557TIP3    H240615   4.612   3.763   7.824
13558TIP3   OH240616   5.264   3.797   7.153
13558TIP3    H140617   5.208   3.725   7.191
13558TIP3    H240618   5.339   3.745   7.119
13559TIP3   OH240619   5.939   4.112   8.775
13559TIP3    H140620   5.980   4.025   8.762
13559TIP3    H240621   6.012   4.172   8.759
13560TIP3   OH240622   5.700   3.837   7.066
13560TIP3    H140623   5.740   3.770   7.126
13560TIP3    H240624   5.758   3.833   6.988
13561TIP3   OH240625   4.911   3.313   7.376
13561TIP3    H140626   4.967   3.281   7.449
13561TIP3    H240627   4.978   3.318   7.304
13562TIP3   OH240628   5.426   3.514   7.184
13562TIP3    H140629   5.425   3.526   7.281
13562TIP3    H240630   5.425   3.416   7.178
13563TIP3   OH240631   6.036   3.769   8.577
13563TIP3    H140632   6.110   3.803   8.523
13563TIP3    H240633   5.963   3.824   8.546
13564TIP3   OH240634   5.117   3.220   7.596
13564TIP3    H140635   5.088   3.180   7.680
13564TIP3    H240636   5.153   3.144   7.547
13565TIP3   OH240637   5.220   3.015   7.436
13565TIP3    H140638   5.193   3.020   7.342
13565TIP3    H240639   5.317   3.019   7.428
13566TIP3   OH240640   6.039   3.343   7.103
13566TIP3    H140641   6.018   3.297   7.019
13566TIP3    H240642   6.006   3.433   7.080
13567TIP3   OH240643   5.539   3.414   8.662
13567TIP3    H140644   5.612   3.371   8.616
13567TIP3    H240645   5.500   3.470   8.592
13568TIP3   OH240646   6.165   3.593   8.742
13568TIP3    H140647   6.107   3.656   8.694
13568TIP3    H240648   6.253   3.626   8.713
13569TIP3   OH240649   5.029   4.077   7.346
13569TIP3    H140650   5.123   4.070   7.323
13569TIP3    H240651   4.997   4.125   7.267
13570TIP3   OH240652   4.507   3.456   7.560
13570TIP3    H140653   4.601   3.478   7.543
13570TIP3    H240654   4.499   3.369   7.515
13571TIP3   OH240655   4.421   4.069   7.974
13571TIP3    H140656   4.356   4.008   7.934
13571TIP3    H240657   4.465   4.009   8.038
13572TIP3   OH240658   4.553   3.917   8.162
13572TIP3    H140659   4.547   3.844   8.225
13572TIP3    H240660   4.612   3.978   8.210
13573TIP3   OH240661   6.285   4.318   7.959
13573TIP3    H140662   6.310   4.353   8.047
13573TIP3    H240663   6.347   4.363   7.901
13574TIP3   OH240664   6.310   4.340   8.240
13574TIP3    H140665   6.268   4.251   8.237
13574TIP3    H240666   6.387   4.320   8.295
13575TIP3   OH240667   6.177   3.529   7.434
13575TIP3    H140668   6.244   3.594   7.405
13575TIP3    H240669   6.220   3.490   7.513
13576TIP3   OH240670   6.303   3.397   7.638
13576TIP3    H140671   6.237   3.354   7.697
13576TIP3    H240672   6.368   3.434   7.702
13577TIP3   OH240673   6.360   3.792   8.071
13577TIP3    H140674   6.413   3.724   8.024
13577TIP3    H240675   6.356   3.864   8.005
13578TIP3   OH240676   6.187   4.092   8.261
13578TIP3    H140677   6.114   4.127   8.314
13578TIP3    H240678   6.140   4.043   8.190
13579TIP3   OH240679   6.241   3.305   7.284
13579TIP3    H140680   6.169   3.308   7.217
13579TIP3    H240681   6.213   3.381   7.339
13580TIP3   OH240682   6.113   2.977   7.236
13580TIP3    H140683   6.066   3.013   7.160
13580TIP3    H240684   6.090   2.882   7.228
13581TIP3   OH240685   6.116   3.255   7.783
13581TIP3    H140686   6.123   3.158   7.777
13581TIP3    H240687   6.101   3.268   7.879
13582TIP3   OH240688   4.757   3.375   8.504
13582TIP3    H140689   4.749   3.316   8.426
13582TIP3    H240690   4.850   3.360   8.531
13583TIP3   OH240691   6.403   3.691   8.644
13583TIP3    H140692   6.473   3.624   8.636
13583TIP3    H240693   6.446   3.769   8.605
13584TIP3   OH240694   6.602   3.498   8.641
13584TIP3    H140695   6.526   3.438   8.663
13584TIP3    H240696   6.648   3.498   8.726
13585TIP3   OH240697   6.056   2.711   7.220
13585TIP3    H140698   6.127   2.679   7.278
13585TIP3    H240699   5.980   2.654   7.243
13586TIP3   OH240700   6.114   2.971   7.676
13586TIP3    H140701   6.154   2.883   7.691
13586TIP3    H240702   6.172   3.004   7.605
13587TIP3   OH240703   6.270   3.143   8.170
13587TIP3    H140704   6.357   3.167   8.131
13587TIP3    H240705   6.283   3.181   8.260
13588TIP3   OH240706   6.335   3.292   8.397
13588TIP3    H140707   6.262   3.325   8.454
13588TIP3    H240708   6.371   3.375   8.360
13589TIP3   OH240709   6.222   2.721   7.714
13589TIP3    H140710   6.268   2.706   7.800
13589TIP3    H240711   6.161   2.645   7.713
13590TIP3   OH240712   6.300   2.653   7.350
13590TIP3    H140713   6.340   2.582   7.296
13590TIP3    H240714   6.367   2.724   7.346
13591TIP3   OH240715   4.698   2.460   8.092
13591TIP3    H140716   4.605   2.470   8.120
13591TIP3    H240717   4.704   2.525   8.019
13592TIP3   OH240718   5.868   4.188   7.617
13592TIP3    H140719   5.919   4.174   7.534
13592TIP3    H240720   5.921   4.254   7.662
13593TIP3   OH240721   5.145   4.020   8.550
13593TIP3    H140722   5.095   4.095   8.511
13593TIP3    H240723   5.231   4.037   8.506
13594TIP3   OH240724   5.613   4.260   8.694
13594TIP3    H140725   5.669   4.269   8.771
13594TIP3    H240726   5.663   4.317   8.630
13595TIP3   OH240727   5.780   4.416   8.547
13595TIP3    H140728   5.835   4.361   8.489
13595TIP3    H240729   5.844   4.485   8.572
13596TIP3   OH240730   4.827   4.306   8.565
13596TIP3    H140731   4.742   4.342   8.532
13596TIP3    H240732   4.805   4.286   8.657
13597TIP3   OH240733   5.063   4.260   8.431
13597TIP3    H140734   4.977   4.280   8.476
13597TIP3    H240735   5.043   4.290   8.340
13598TIP3   OH240736   5.483   4.286   8.230
13598TIP3    H140737   5.415   4.302   8.162
13598TIP3    H240738   5.495   4.376   8.267
13599TIP3   OH240739   5.752   4.231   8.288
13599TIP3    H140740   5.659   4.244   8.262
13599TIP3    H240741   5.797   4.296   8.232
13600TIP3   OH240742   5.957   4.416   8.194
13600TIP3    H140743   5.944   4.501   8.146
13600TIP3    H240744   5.986   4.357   8.120
13601TIP3   OH240745   4.733   4.076   8.310
13601TIP3    H140746   4.766   4.050   8.400
13601TIP3    H240747   4.805   4.035   8.257
13602TIP3   OH240748   4.928   3.947   8.175
13602TIP3    H140749   4.944   3.863   8.225
13602TIP3    H240750   5.020   3.982   8.169
13603TIP3   OH240751   5.195   4.039   8.179
13603TIP3    H140752   5.225   3.948   8.165
13603TIP3    H240753   5.241   4.060   8.262
13604TIP3   OH240754   5.771   2.695   8.258
13604TIP3    H140755   5.730   2.620   8.305
13604TIP3    H240756   5.850   2.653   8.218
13605TIP3   OH240757   6.294   2.570   8.164
13605TIP3    H140758   6.323   2.630   8.091
13605TIP3    H240759   6.200   2.597   8.174
13606TIP3   OH240760   6.384   2.681   7.933
13606TIP3    H140761   6.456   2.628   7.893
13606TIP3    H240762   6.418   2.772   7.916
13607TIP3   OH240763   5.014   2.403   8.234
13607TIP3    H140764   4.925   2.378   8.264
13607TIP3    H240765   5.063   2.321   8.251
13608TIP3   OH240766   4.808   2.269   7.924
13608TIP3    H140767   4.839   2.328   7.853
13608TIP3    H240768   4.775   2.333   7.990
13609TIP3   OH240769   5.467   2.442   8.165
13609TIP3    H140770   5.518   2.490   8.098
13609TIP3    H240771   5.512   2.470   8.247
13610TIP3   OH240772   6.005   2.585   8.144
13610TIP3    H140773   6.009   2.547   8.056
13610TIP3    H240774   5.990   2.503   8.198
13611TIP3   OH240775   6.039   2.508   7.708
13611TIP3    H140776   5.953   2.552   7.724
13611TIP3    H240777   6.024   2.422   7.753
13612TIP3   OH240778   4.521   3.849   7.705
13612TIP3    H140779   4.436   3.814   7.672
13612TIP3    H240780   4.510   3.942   7.678
13613TIP3   OH240781   4.924   2.430   7.693
13613TIP3    H140782   4.973   2.370   7.634
13613TIP3    H240783   4.996   2.486   7.728
13614TIP3   OH240784   5.433   2.611   7.790
13614TIP3    H140785   5.495   2.566   7.850
13614TIP3    H240786   5.452   2.704   7.814
13615TIP3   OH240787   5.295   4.031   7.291
13615TIP3    H140788   5.383   4.055   7.253
13615TIP3    H240789   5.272   3.957   7.230
13616TIP3   OH240790   6.014   4.154   7.384
13616TIP3    H140791   6.007   4.056   7.372
13616TIP3    H240792   5.968   4.186   7.304
13617TIP3   OH240793   4.603   3.872   7.350
13617TIP3    H140794   4.605   3.891   7.445
13617TIP3    H240795   4.690   3.829   7.335
13618TIP3   OH240796   6.237   4.289   8.561
13618TIP3    H140797   6.157   4.269   8.509
13618TIP3    H240798   6.225   4.386   8.574
13619TIP3   OH240799   7.502   3.664   7.340
13619TIP3    H140800   7.479   3.758   7.321
13619TIP3    H240801   7.426   3.620   7.298
13620TIP3   OH240802   7.489   3.664   7.722
13620TIP3    H140803   7.569   3.618   7.751
13620TIP3    H240804   7.455   3.607   7.652
13621TIP3   OH240805   6.800   3.570   8.076
13621TIP3    H140806   6.830   3.500   8.138
13621TIP3    H240807   6.884   3.615   8.059
13622TIP3   OH240808   7.747   3.970   7.396
13622TIP3    H140809   7.744   3.896   7.461
13622TIP3    H240810   7.781   4.042   7.451
13623TIP3   OH240811   6.779   3.976   7.807
13623TIP3    H140812   6.769   3.878   7.808
13623TIP3    H240813   6.876   3.983   7.798
13624TIP3   OH240814   6.483   3.179   7.588
13624TIP3    H140815   6.432   3.260   7.606
13624TIP3    H240816   6.413   3.123   7.550
13625TIP3   OH240817   6.539   3.466   7.767
13625TIP3    H140818   6.589   3.388   7.802
13625TIP3    H240819   6.599   3.498   7.699
13626TIP3   OH240820   7.399   4.431   7.417
13626TIP3    H140821   7.442   4.360   7.366
13626TIP3    H240822   7.397   4.394   7.506
13627TIP3   OH240823   7.302   3.897   7.763
13627TIP3    H140824   7.345   3.813   7.737
13627TIP3    H240825   7.384   3.950   7.778
13628TIP3   OH240826   7.051   3.062   7.745
13628TIP3    H140827   7.024   3.135   7.686
13628TIP3    H240828   7.000   2.987   7.706
13629TIP3   OH240829   7.722   3.187   7.359
13629TIP3    H140830   7.783   3.123   7.403
13629TIP3    H240831   7.778   3.220   7.287
13630TIP3   OH240832   6.687   3.260   7.868
13630TIP3    H140833   6.773   3.243   7.912
13630TIP3    H240834   6.698   3.203   7.789
13631TIP3   OH240835   7.127   3.454   7.666
13631TIP3    H140836   7.219   3.422   7.677
13631TIP3    H240837   7.083   3.374   7.632
13632TIP3   OH240838   7.048   3.093   8.218
13632TIP3    H140839   6.993   3.091   8.138
13632TIP3    H240840   7.020   3.015   8.266
13633TIP3   OH240841   7.396   3.888   7.204
13633TIP3    H140842   7.354   3.874   7.117
13633TIP3    H240843   7.352   3.970   7.233
13634TIP3   OH240844   7.143   3.823   7.978
13634TIP3    H140845   7.087   3.893   8.018
13634TIP3    H240846   7.195   3.873   7.912
13635TIP3   OH240847   6.923   3.157   7.970
13635TIP3    H140848   6.989   3.225   7.997
13635TIP3    H240849   6.974   3.111   7.900
13636TIP3   OH240850   6.986   4.018   8.096
13636TIP3    H140851   6.961   4.105   8.059
13636TIP3    H240852   6.905   3.999   8.149
13637TIP3   OH240853   6.378   3.701   7.326
13637TIP3    H140854   6.336   3.726   7.242
13637TIP3    H240855   6.408   3.787   7.360
13638TIP3   OH240856   7.820   4.220   7.558
13638TIP3    H140857   7.734   4.202   7.602
13638TIP3    H240858   7.800   4.308   7.522
13639TIP3   OH240859   7.517   4.261   7.235
13639TIP3    H140860   7.568   4.179   7.217
13639TIP3    H240861   7.578   4.327   7.196
13640TIP3   OH240862   7.663   4.045   7.149
13640TIP3    H140863   7.621   3.966   7.114
13640TIP3    H240864   7.698   4.013   7.235
13641TIP3   OH240865   7.334   3.529   7.162
13641TIP3    H140866   7.252   3.580   7.145
13641TIP3    H240867   7.377   3.530   7.075
13642TIP3   OH240868   7.296   3.306   6.881
13642TIP3    H140869   7.361   3.359   6.931
13642TIP3    H240870   7.356   3.245   6.833
13643TIP3   OH240871   7.681   3.605   7.139
13643TIP3    H140872   7.626   3.629   7.217
13643TIP3    H240873   7.765   3.583   7.183
13644TIP3   OH240874   6.916   3.600   7.555
13644TIP3    H140875   6.875   3.541   7.487
13644TIP3    H240876   6.992   3.547   7.586
13645TIP3   OH240877   7.045   4.013   7.703
13645TIP3    H140878   7.025   3.976   7.615
13645TIP3    H240879   7.135   3.977   7.719
13646TIP3   OH240880   7.043   3.578   7.907
13646TIP3    H140881   7.079   3.550   7.820
13646TIP3    H240882   7.083   3.667   7.919
13647TIP3   OH240883   7.579   4.220   7.677
13647TIP3    H140884   7.566   4.299   7.734
13647TIP3    H240885   7.564   4.145   7.738
13648TIP3   OH240886   7.189   4.145   8.237
13648TIP3    H140887   7.119   4.200   8.278
13648TIP3    H240888   7.133   4.081   8.188
13649TIP3   OH240889   7.524   3.461   6.964
13649TIP3    H140890   7.581   3.522   7.015
13649TIP3    H240891   7.550   3.484   6.872
13650TIP3   OH240892   6.929   3.693   8.337
13650TIP3    H140893   6.922   3.781   8.380
13650TIP3    H240894   6.836   3.663   8.345
13651TIP3   OH240895   7.270   4.137   7.240
13651TIP3    H140896   7.351   4.191   7.251
13651TIP3    H240897   7.209   4.201   7.200
13652TIP3   OH240898   6.981   4.295   8.324
13652TIP3    H140899   6.944   4.301   8.234
13652TIP3    H240900   6.901   4.279   8.378
13653TIP3   OH240901   7.911   2.732   6.937
13653TIP3    H140902   7.901   2.750   7.033
13653TIP3    H240903   7.978   2.798   6.909
13654TIP3   OH240904   6.784   3.444   7.356
13654TIP3    H140905   6.714   3.489   7.303
13654TIP3    H240906   6.743   3.359   7.374
13655TIP3   OH240907   7.840   4.068   6.564
13655TIP3    H140908   7.848   4.165   6.548
13655TIP3    H240909   7.933   4.039   6.551
13656TIP3   OH240910   6.563   3.829   8.269
13656TIP3    H140911   6.495   3.808   8.201
13656TIP3    H240912   6.598   3.741   8.292
13657TIP3   OH240913   6.417   4.021   7.900
13657TIP3    H140914   6.513   4.016   7.891
13657TIP3    H240915   6.407   4.101   7.954
13658TIP3   OH240916   7.370   4.275   8.085
13658TIP3    H140917   7.407   4.332   8.154
13658TIP3    H240918   7.303   4.224   8.137
13659TIP3   OH240919   7.151   4.385   7.044
13659TIP3    H140920   7.104   4.367   6.960
13659TIP3    H240921   7.117   4.473   7.068
13660TIP3   OH240922   6.587   4.235   7.428
13660TIP3    H140923   6.633   4.226   7.514
13660TIP3    H240924   6.534   4.153   7.426
13661TIP3   OH240925   7.350   4.289   6.683
13661TIP3    H140926   7.408   4.218   6.646
13661TIP3    H240927   7.386   4.298   6.774
13662TIP3   OH240928   7.402   4.337   6.952
13662TIP3    H140929   7.313   4.346   6.994
13662TIP3    H240930   7.453   4.299   7.026
13663TIP3   OH240931   6.764   4.013   8.258
13663TIP3    H140932   6.805   3.994   8.345
13663TIP3    H240933   6.689   3.950   8.258
13664TIP3   OH240934   0.643   6.194   1.451
13664TIP3    H140935   0.708   6.132   1.487
13664TIP3    H240936   0.655   6.269   1.511
13665TIP3   OH240937   7.600   3.500   6.708
13665TIP3    H140938   7.566   3.483   6.618
13665TIP3    H240939   7.683   3.548   6.687
13666TIP3   OH240940   7.315   2.873   7.010
13666TIP3    H140941   7.279   2.876   7.101
13666TIP3    H240942   7.267   2.794   6.977
13667TIP3   OH240943   7.098   3.351   8.051
13667TIP3    H140944   7.047   3.366   8.133
13667TIP3    H240945   7.083   3.436   8.003
13668TIP3   OH240946   6.975   3.246   7.563
13668TIP3    H140947   6.884   3.217   7.585
13668TIP3    H240948   6.988   3.201   7.477
13669TIP3   OH240949   7.456   3.326   7.296
13669TIP3    H140950   7.408   3.398   7.250
13669TIP3    H240951   7.523   3.300   7.230
13670TIP3   OH240952   7.604   3.369   7.535
13670TIP3    H140953   7.546   3.401   7.464
13670TIP3    H240954   7.643   3.292   7.488
13671TIP3   OH240955   6.911   3.393   8.256
13671TIP3    H140956   6.934   3.452   8.329
13671TIP3    H240957   6.883   3.313   8.303
13672TIP3   OH240958   6.973   2.860   6.978
13672TIP3    H140959   6.959   2.856   7.075
13672TIP3    H240960   6.893   2.909   6.951
13673TIP3   OH240961   6.509   2.902   7.842
13673TIP3    H140962   6.582   2.934   7.899
13673TIP3    H240963   6.555   2.866   7.765
13674TIP3   OH240964   6.478   2.881   7.367
13674TIP3    H140965   6.524   2.920   7.289
13674TIP3    H240966   6.417   2.954   7.388
13675TIP3   OH240967   7.302   3.044   7.641
13675TIP3    H140968   7.212   3.040   7.680
13675TIP3    H240969   7.349   3.084   7.715
13676TIP3   OH240970   6.745   3.117   7.638
13676TIP3    H140971   6.650   3.123   7.613
13676TIP3    H240972   6.766   3.024   7.618
13677TIP3   OH240973   7.012   3.110   7.330
13677TIP3    H140974   7.103   3.127   7.302
13677TIP3    H240975   6.960   3.131   7.249
13678TIP3   OH240976   6.858   3.144   7.110
13678TIP3    H140977   6.786   3.098   7.063
13678TIP3    H240978   6.909   3.180   7.034
13679TIP3   OH240979   6.901   3.922   8.493
13679TIP3    H140980   6.976   3.971   8.528
13679TIP3    H240981   6.861   3.883   8.572
13680TIP3   OH240982   7.391   3.363   7.714
13680TIP3    H140983   7.472   3.359   7.659
13680TIP3    H240984   7.428   3.364   7.803
13681TIP3   OH240985   6.912   2.875   7.604
13681TIP3    H140986   6.869   2.806   7.660
13681TIP3    H240987   6.951   2.819   7.535
13682TIP3   OH240988   7.103   3.674   7.116
13682TIP3    H140989   7.031   3.609   7.104
13682TIP3    H240990   7.084   3.708   7.207
13683TIP3   OH240991   7.555   2.992   6.976
13683TIP3    H140992   7.459   2.973   6.992
13683TIP3    H240993   7.565   3.086   7.003
13684TIP3   OH240994   7.447   3.988   8.071
13684TIP3    H140995   7.460   3.940   8.154
13684TIP3    H240996   7.439   4.080   8.099
13685TIP3   OH240997   7.635   3.235   7.071
13685TIP3    H140998   7.731   3.250   7.076
13685TIP3    H240999   7.605   3.315   7.023
13686TIP3   OH241000   6.798   3.699   7.788
13686TIP3    H141001   6.836   3.670   7.703
13686TIP3    H241002   6.841   3.638   7.851
13687TIP3   OH241003   7.252   3.823   6.941
13687TIP3    H141004   7.204   3.909   6.944
13687TIP3    H241005   7.196   3.769   7.000
13688TIP3   OH241006   6.673   3.605   8.398
13688TIP3    H141007   6.663   3.573   8.491
13688TIP3    H241008   6.602   3.552   8.356
13689TIP3   OH241009   7.648   4.281   8.022
13689TIP3    H141010   7.555   4.279   7.997
13689TIP3    H241011   7.647   4.343   8.096
13690TIP3   OH241012   8.072   3.328   6.927
13690TIP3    H141013   8.014   3.286   6.859
13690TIP3    H241014   8.075   3.417   6.886
13691TIP3   OH241015   7.779   4.143   6.828
13691TIP3    H141016   7.750   4.073   6.888
13691TIP3    H241017   7.791   4.098   6.743
13692TIP3   OH241018   7.758   3.773   7.589
13692TIP3    H141019   7.672   3.769   7.634
13692TIP3    H241020   7.786   3.682   7.589
13693TIP3   OH241021   6.901   4.001   7.419
13693TIP3    H141022   6.900   4.083   7.364
13693TIP3    H241023   6.807   3.984   7.429
13694TIP3   OH241024   6.465   3.304   7.125
13694TIP3    H141025   6.510   3.389   7.146
13694TIP3    H241026   6.387   3.309   7.184
13695TIP3   OH241027   7.034   3.765   7.360
13695TIP3    H141028   7.001   3.855   7.379
13695TIP3    H241029   6.997   3.715   7.436
13696TIP3   OH241030   7.169   4.342   7.884
13696TIP3    H141031   7.211   4.410   7.827
13696TIP3    H241032   7.247   4.309   7.932
13697TIP3   OH241033   6.819   4.239   7.270
13697TIP3    H141034   6.733   4.248   7.316
13697TIP3    H241035   6.851   4.332   7.273
13698TIP3   OH241036   7.557   3.990   7.827
13698TIP3    H141037   7.522   3.986   7.919
13698TIP3    H241038   7.640   3.938   7.838
13699TIP3   OH241039   7.533   3.872   6.729
13699TIP3    H141040   7.585   3.847   6.808
13699TIP3    H241041   7.444   3.846   6.757
13700TIP3   OH241042   7.870   4.343   6.547
13700TIP3    H141043   7.904   4.412   6.487
13700TIP3    H241044   7.792   4.390   6.582
13701TIP3   OH241045   7.691   3.803   6.943
13701TIP3    H141046   7.683   3.738   7.015
13701TIP3    H241047   7.788   3.802   6.930
13702TIP3   OH241048   6.606   4.207   8.044
13702TIP3    H141049   6.660   4.136   8.081
13702TIP3    H241050   6.633   4.282   8.098
13703TIP3   OH241051   6.898   3.851   6.728
13703TIP3    H141052   6.910   3.758   6.701
13703TIP3    H241053   6.877   3.841   6.823
13704TIP3   OH241054   6.841   3.857   7.000
13704TIP3    H141055   6.914   3.830   7.058
13704TIP3    H241056   6.844   3.955   7.008
13705TIP3   OH241057   6.576   3.549   7.205
13705TIP3    H141058   6.509   3.594   7.261
13705TIP3    H241059   6.589   3.618   7.137
13706TIP3   OH241060   7.607   2.953   7.260
13706TIP3    H141061   7.591   2.965   7.165
13706TIP3    H241062   7.631   3.043   7.288
13707TIP3   OH241063   7.109   4.053   6.948
13707TIP3    H141064   7.022   4.078   6.984
13707TIP3    H241065   7.125   4.127   6.888
13708TIP3   OH241066   7.298   3.115   7.367
13708TIP3    H141067   7.355   3.193   7.345
13708TIP3    H241068   7.292   3.123   7.465
13709TIP3   OH241069   7.437   2.864   7.462
13709TIP3    H141070   7.401   2.948   7.497
13709TIP3    H241071   7.500   2.897   7.394
13710TIP3   OH241072   6.854   4.129   7.018
13710TIP3    H141073   6.824   4.199   6.955
13710TIP3    H241074   6.838   4.172   7.105
13711TIP3   OH241075   6.950   2.842   7.253
13711TIP3    H141076   6.946   2.931   7.294
13711TIP3    H241077   7.047   2.826   7.260
13712TIP3   OH241078   7.869   3.486   7.534
13712TIP3    H141079   7.779   3.457   7.560
13712TIP3    H241080   7.904   3.518   7.619
13713TIP3   OH241081   6.571   3.755   7.009
13713TIP3    H141082   6.640   3.824   7.017
13713TIP3    H241083   6.614   3.698   6.942
13714TIP3   OH241084   6.515   3.033   7.141
13714TIP3    H141085   6.513   3.131   7.140
13714TIP3    H241086   6.431   3.012   7.099
13715TIP3   OH241087   7.814   4.496   7.491
13715TIP3    H141088   7.781   4.544   7.412
13715TIP3    H241089   7.908   4.486   7.471
13716TIP3   OH241090   7.055   2.630   7.918
13716TIP3    H141091   6.972   2.674   7.894
13716TIP3    H241092   7.042   2.609   8.011
13717TIP3   OH241093   6.439   3.974   7.394
13717TIP3    H141094   6.373   4.003   7.458
13717TIP3    H241095   6.406   4.017   7.312
13718TIP3   OH241096   6.600   4.504   8.441
13718TIP3    H141097   6.665   4.496   8.512
13718TIP3    H241098   6.558   4.417   8.444
13719TIP3   OH241099   7.060   4.054   6.638
13719TIP3    H141100   7.006   3.982   6.677
13719TIP3    H241101   7.135   4.004   6.603
13720TIP3   OH241102   7.495   4.094   6.552
13720TIP3    H141103   7.540   4.029   6.610
13720TIP3    H241104   7.551   4.093   6.471
13721TIP3   OH241105   6.707   3.569   6.863
13721TIP3    H141106   6.763   3.539   6.936
13721TIP3    H241107   6.773   3.575   6.791
13722TIP3   OH241108   7.221   3.771   6.671
13722TIP3    H141109   7.221   3.783   6.768
13722TIP3    H241110   7.218   3.673   6.665
13723TIP3   OH241111   6.912   3.476   7.083
13723TIP3    H141112   6.883   3.437   7.167
13723TIP3    H241113   6.948   3.398   7.035
13724TIP3   OH241114   7.168   3.564   8.329
13724TIP3    H141115   7.080   3.609   8.325
13724TIP3    H241116   7.206   3.593   8.243
13725TIP3   OH241117   7.016   3.270   6.923
13725TIP3    H141118   6.988   3.277   6.829
13725TIP3    H241119   7.113   3.276   6.913
13726TIP3   OH241120   7.834   3.597   6.591
13726TIP3    H141121   7.815   3.554   6.505
13726TIP3    H241122   7.803   3.688   6.569
13727TIP3   OH241123   7.301   3.643   8.105
13727TIP3    H141124   7.381   3.645   8.051
13727TIP3    H241125   7.245   3.710   8.060
13728TIP3   OH241126   6.824   4.331   6.831
13728TIP3    H141127   6.919   4.325   6.811
13728TIP3    H241128   6.795   4.382   6.753
13729TIP3   OH241129   6.302   3.714   7.044
13729TIP3    H141130   6.397   3.734   7.030
13729TIP3    H241131   6.295   3.625   7.002
13730TIP3   OH241132   6.218   4.325   7.461
13730TIP3    H141133   6.151   4.264   7.423
13730TIP3    H241134   6.262   4.266   7.525
13731TIP3   OH241135   6.352   4.172   7.647
13731TIP3    H141136   6.340   4.102   7.712
13731TIP3    H241137   6.404   4.236   7.699
13732TIP3   OH241138   7.969   3.788   6.919
13732TIP3    H141139   8.031   3.856   6.887
13732TIP3    H241140   8.019   3.750   6.995
13733TIP3   OH241141   8.099   3.659   7.130
13733TIP3    H141142   8.026   3.609   7.173
13733TIP3    H241143   8.122   3.722   7.198
13734TIP3   OH241144   8.076   4.002   7.485
13734TIP3    H141145   8.169   4.010   7.510
13734TIP3    H241146   8.048   4.094   7.480
13735TIP3   OH241147   7.997   4.378   7.710
13735TIP3    H141148   7.956   4.377   7.798
13735TIP3    H241149   7.941   4.312   7.664
13736TIP3   OH241150   8.033   3.560   6.777
13736TIP3    H141151   7.965   3.561   6.705
13736TIP3    H241152   8.007   3.640   6.825
13737TIP3   OH241153   7.904   3.241   6.733
13737TIP3    H141154   7.874   3.285   6.653
13737TIP3    H241155   7.883   3.147   6.712
13738TIP3   OH241156   7.912   3.511   7.263
13738TIP3    H141157   7.918   3.416   7.243
13738TIP3    H241158   7.897   3.511   7.360
13739TIP3   OH241159   6.536   3.585   8.017
13739TIP3    H141160   6.533   3.551   7.925
13739TIP3    H241161   6.633   3.588   8.032
13740TIP3   OH241162   7.860   2.974   6.706
13740TIP3    H141163   7.939   2.943   6.755
13740TIP3    H241164   7.791   2.912   6.734
13741TIP3   OH241165   7.913   3.244   7.150
13741TIP3    H141166   7.947   3.154   7.160
13741TIP3    H241167   7.971   3.277   7.077
13742TIP3   OH241168   6.707   2.977   8.017
13742TIP3    H141169   6.775   2.910   8.038
13742TIP3    H241170   6.766   3.053   8.004
13743TIP3   OH241171   6.518   3.237   8.092
13743TIP3    H141172   6.568   3.232   8.008
13743TIP3    H241173   6.549   3.320   8.129
13744TIP3   OH241174   8.103   2.902   6.840
13744TIP3    H141175   8.147   2.849   6.771
13744TIP3    H241176   8.162   2.981   6.845
13745TIP3   OH241177   6.505   2.738   7.595
13745TIP3    H141178   6.412   2.734   7.625
13745TIP3    H241179   6.499   2.797   7.517
13746TIP3   OH241180   7.664   4.443   7.103
13746TIP3    H141181   7.716   4.432   7.021
13746TIP3    H241182   7.712   4.514   7.149
13747TIP3   OH241183   6.663   2.802   8.405
13747TIP3    H141184   6.641   2.822   8.497
13747TIP3    H241185   6.605   2.865   8.356
13748TIP3   OH241186   6.767   4.245   8.498
13748TIP3    H141187   6.678   4.226   8.463
13748TIP3    H241188   6.757   4.214   8.589
13749TIP3   OH241189   6.945   4.287   8.038
13749TIP3    H141190   6.896   4.362   7.998
13749TIP3    H241191   7.030   4.299   7.991
13750TIP3   OH241192   6.620   4.536   8.063
13750TIP3    H141193   6.529   4.565   8.040
13750TIP3    H241194   6.635   4.590   8.143
13751TIP3   OH241195   6.857   4.520   7.920
13751TIP3    H141196   6.769   4.530   7.964
13751TIP3    H241197   6.837   4.551   7.830
13752TIP3   OH241198   7.269   4.533   7.707
13752TIP3    H141199   7.202   4.558   7.641
13752TIP3    H241200   7.289   4.619   7.749
13753TIP3   OH241201   7.534   4.479   7.772
13753TIP3    H141202   7.444   4.499   7.742
13753TIP3    H241203   7.584   4.556   7.741
13754TIP3   OH241204   7.682   4.688   7.652
13754TIP3    H141205   7.764   4.735   7.672
13754TIP3    H241206   7.717   4.613   7.600
13755TIP3   OH241207   6.529   4.331   7.802
13755TIP3    H141208   6.555   4.303   7.893
13755TIP3    H241209   6.602   4.288   7.751
13756TIP3   OH241210   6.725   4.203   7.663
13756TIP3    H141211   6.740   4.119   7.712
13756TIP3    H241212   6.816   4.239   7.659
13757TIP3   OH241213   6.991   4.296   7.666
13757TIP3    H141214   7.022   4.205   7.654
13757TIP3    H241215   7.038   4.319   7.748
13758TIP3   OH241216   6.796   2.682   7.754
13758TIP3    H141217   6.703   2.655   7.763
13758TIP3    H241218   6.837   2.593   7.750
13759TIP3   OH241219   6.599   2.532   7.414
13759TIP3    H141220   6.629   2.591   7.343
13759TIP3    H241221   6.574   2.595   7.484
13760TIP3   OH241222   7.237   2.709   7.647
13760TIP3    H141223   7.272   2.795   7.620
13760TIP3    H241224   7.208   2.724   7.738
13761TIP3   OH241225   7.800   2.764   7.177
13761TIP3    H141226   7.742   2.828   7.222
13761TIP3    H241227   7.810   2.697   7.248
13762TIP3   OH241228   6.318   4.106   7.192
13762TIP3    H141229   6.232   4.073   7.160
13762TIP3    H241230   6.308   4.200   7.168
13763TIP3   OH241231   6.719   2.692   7.176
13763TIP3    H141232   6.768   2.627   7.122
13763TIP3    H241233   6.792   2.745   7.214
13764TIP3   OH241234   7.227   2.870   7.270
13764TIP3    H141235   7.278   2.820   7.335
13764TIP3    H241236   7.248   2.962   7.299
13765TIP3   OH241237   7.091   4.288   6.778
13765TIP3    H141238   7.179   4.311   6.741
13765TIP3    H241239   7.069   4.213   6.717
13766TIP3   OH241240   7.811   4.410   6.871
13766TIP3    H141241   7.802   4.313   6.859
13766TIP3    H241242   7.764   4.442   6.791
13767TIP3   OH241243   6.394   4.126   6.832
13767TIP3    H141244   6.396   4.148   6.926
13767TIP3    H241245   6.481   4.083   6.818
13768TIP3   OH241246   8.261   3.424   7.134
13768TIP3    H141247   8.222   3.512   7.122
13768TIP3    H241248   8.221   3.377   7.059
13769TIP3   OH241249   8.157   3.969   6.818
13769TIP3    H141250   8.122   3.992   6.730
13769TIP3    H241251   8.194   4.054   6.848
13770TIP3   OH241252   8.531   3.643   6.778
13770TIP3    H141253   8.469   3.716   6.758
13770TIP3    H241254   8.579   3.672   6.857
13771TIP3   OH241255   8.191   4.296   7.403
13771TIP3    H141256   8.284   4.279   7.381
13771TIP3    H241257   8.190   4.277   7.498
13772TIP3   OH241258   8.917   4.626   6.538
13772TIP3    H141259   8.886   4.612   6.447
13772TIP3    H241260   8.881   4.712   6.562
13773TIP3   OH241261   8.383   4.495   6.920
13773TIP3    H141262   8.416   4.472   7.008
13773TIP3    H241263   8.326   4.419   6.901
13774TIP3   OH241264   8.710   3.202   6.476
13774TIP3    H141265   8.747   3.113   6.493
13774TIP3    H241266   8.665   3.190   6.392
13775TIP3   OH241267   8.265   3.124   6.857
13775TIP3    H141268   8.310   3.160   6.778
13775TIP3    H241269   8.213   3.202   6.882
13776TIP3   OH241270   8.604   3.440   6.570
13776TIP3    H141271   8.578   3.351   6.546
13776TIP3    H241272   8.691   3.445   6.526
13777TIP3   OH241273   8.857   3.955   6.604
13777TIP3    H141274   8.810   3.871   6.586
13777TIP3    H241275   8.847   3.963   6.700
13778TIP3   OH241276   9.004   4.077   6.398
13778TIP3    H141277   8.982   4.167   6.428
13778TIP3    H241278   8.975   4.024   6.475
13779TIP3   OH241279   8.699   4.266   6.867
13779TIP3    H141280   8.681   4.347   6.816
13779TIP3    H241281   8.623   4.261   6.927
13780TIP3   OH241282   8.249   3.563   6.597
13780TIP3    H141283   8.311   3.633   6.624
13780TIP3    H241284   8.183   3.566   6.669
13781TIP3   OH241285   8.822   4.026   6.885
13781TIP3    H141286   8.786   4.116   6.867
13781TIP3    H241287   8.756   3.991   6.946
13782TIP3   OH241288   8.607   4.505   6.753
13782TIP3    H141289   8.521   4.515   6.799
13782TIP3    H241290   8.653   4.586   6.779
13783TIP3   OH241291   8.689   4.106   6.216
13783TIP3    H141292   8.694   4.012   6.189
13783TIP3    H241293   8.670   4.098   6.312
13784TIP3   OH241294   8.639   4.112   6.486
13784TIP3    H141295   8.719   4.078   6.531
13784TIP3    H241296   8.646   4.209   6.501
13785TIP3   OH241297   8.350   3.823   6.683
13785TIP3    H141298   8.284   3.867   6.740
13785TIP3    H241299   8.365   3.891   6.615
13786TIP3   OH241300   8.909   4.323   6.458
13786TIP3    H141301   8.817   4.347   6.482
13786TIP3    H241302   8.928   4.396   6.397
13787TIP3   OH241303   8.645   4.386   6.504
13787TIP3    H141304   8.614   4.453   6.438
13787TIP3    H241305   8.629   4.434   6.588
13788TIP3   OH241306   8.367   4.021   6.485
13788TIP3    H141307   8.440   4.084   6.496
13788TIP3    H241308   8.410   3.960   6.421
13789TIP3   OH241309   8.302   3.285   6.639
13789TIP3    H141310   8.340   3.374   6.632
13789TIP3    H241311   8.233   3.288   6.572
13790TIP3   OH241312   8.237   4.235   6.881
13790TIP3    H141313   8.170   4.267   6.943
13790TIP3    H241314   8.204   4.274   6.797
13791TIP3   OH241315   8.853   4.305   6.130
13791TIP3    H141316   8.789   4.238   6.164
13791TIP3    H241317   8.936   4.257   6.142
13792TIP3   OH241318   8.506   3.828   6.346
13792TIP3    H141319   8.551   3.788   6.422
13792TIP3    H241320   8.579   3.831   6.281
13793TIP3   OH241321   8.996   4.009   6.140
13793TIP3    H141322   9.013   4.041   6.233
13793TIP3    H241323   8.924   3.947   6.158
13794TIP3   OH241324   8.707   3.725   6.570
13794TIP3    H141325   8.649   3.677   6.633
13794TIP3    H241326   8.746   3.649   6.522
13795TIP3   OH241327   8.822   3.524   6.415
13795TIP3    H141328   8.786   3.525   6.325
13795TIP3    H241329   8.917   3.511   6.394
13796TIP3   OH241330   8.607   4.585   6.317
13796TIP3    H141331   8.703   4.588   6.304
13796TIP3    H241332   8.579   4.637   6.240
13797TIP3   OH241333   8.100   3.971   6.535
13797TIP3    H141334   8.193   3.995   6.515
13797TIP3    H241335   8.094   3.882   6.493
13798TIP3   OH241336   8.013   4.583   6.944
13798TIP3    H141337   7.946   4.523   6.905
13798TIP3    H241338   8.060   4.520   7.003
13799TIP3   OH241339   8.150   4.419   7.117
13799TIP3    H141340   8.123   4.352   7.182
13799TIP3    H241341   8.195   4.482   7.176
13800TIP3   OH241342   8.112   4.366   6.682
13800TIP3    H141343   8.028   4.331   6.649
13800TIP3    H241344   8.105   4.458   6.650
13801TIP3   OH241345   8.496   2.982   6.653
13801TIP3    H141346   8.577   2.930   6.647
13801TIP3    H241347   8.514   3.037   6.732
13802TIP3   OH241348   8.875   4.542   6.273
13802TIP3    H141349   8.962   4.559   6.230
13802TIP3    H241350   8.845   4.469   6.215
13803TIP3   OH241351   8.188   4.379   6.319
13803TIP3    H141352   8.195   4.410   6.410
13803TIP3    H241353   8.277   4.338   6.304
13804TIP3   OH241354   1.872   5.076   8.289
13804TIP3    H141355   1.902   5.022   8.214
13804TIP3    H241356   1.952   5.126   8.314
13805TIP3   OH241357   1.567   4.347   8.074
13805TIP3    H141358   1.642   4.405   8.096
13805TIP3    H241359   1.612   4.283   8.015
13806TIP3   OH241360   1.783   4.506   8.132
13806TIP3    H141361   1.783   4.600   8.153
13806TIP3    H241362   1.807   4.511   8.036
13807TIP3   OH241363   2.090   5.116   7.741
13807TIP3    H141364   2.098   5.211   7.720
13807TIP3    H241365   2.181   5.084   7.726
13808TIP3   OH241366   1.395   5.428   8.208
13808TIP3    H141367   1.352   5.421   8.121
13808TIP3    H241368   1.370   5.519   8.236
13809TIP3   OH241369   1.604   5.336   7.857
13809TIP3    H141370   1.661   5.264   7.822
13809TIP3    H241371   1.637   5.343   7.949
13810TIP3   OH241372   1.657   5.388   8.129
13810TIP3    H141373   1.567   5.387   8.169
13810TIP3    H241374   1.710   5.350   8.200
13811TIP3   OH241375   1.852   4.562   7.882
13811TIP3    H141376   1.811   4.532   7.798
13811TIP3    H241377   1.938   4.595   7.850
13812TIP3   OH241378   1.515   4.868   8.067
13812TIP3    H141379   1.480   4.959   8.086
13812TIP3    H241380   1.487   4.823   8.148
13813TIP3   OH241381   2.330   4.367   8.074
13813TIP3    H141382   2.259   4.325   8.021
13813TIP3    H241383   2.330   4.455   8.033
13814TIP3   OH241384   2.033   5.185   8.002
13814TIP3    H141385   1.993   5.106   8.040
13814TIP3    H241386   2.048   5.156   7.909
13815TIP3   OH241387   1.774   4.920   7.905
13815TIP3    H141388   1.829   4.898   7.983
13815TIP3    H241389   1.686   4.893   7.936
13816TIP3   OH241390   2.119   5.390   7.723
13816TIP3    H141391   2.156   5.463   7.671
13816TIP3    H241392   2.038   5.435   7.757
13817TIP3   OH241393   1.949   4.874   8.118
13817TIP3    H141394   1.933   4.811   8.189
13817TIP3    H241395   2.045   4.861   8.100
13818TIP3   OH241396   1.148   4.895   7.908
13818TIP3    H141397   1.173   4.806   7.878
13818TIP3    H241398   1.106   4.876   7.994
13819TIP3   OH241399   1.399   5.110   8.114
13819TIP3    H141400   1.345   5.133   8.192
13819TIP3    H241401   1.378   5.183   8.054
13820TIP3   OH241402   0.962   5.209   8.157
13820TIP3    H141403   0.987   5.274   8.088
13820TIP3    H241404   1.032   5.223   8.221
13821TIP3   OH241405   1.306   5.097   7.811
13821TIP3    H141406   1.251   5.028   7.854
13821TIP3    H241407   1.380   5.043   7.778
13822TIP3   OH241408   1.748   5.140   7.730
13822TIP3    H141409   1.785   5.070   7.787
13822TIP3    H241410   1.802   5.134   7.649
13823TIP3   OH241411   0.923   4.648   7.976
13823TIP3    H141412   0.960   4.707   8.045
13823TIP3    H241413   1.006   4.626   7.927
13824TIP3   OH241414   1.452   4.804   7.814
13824TIP3    H141415   1.465   4.826   7.908
13824TIP3    H241416   1.463   4.706   7.818
13825TIP3   OH241417   1.211   4.368   8.080
13825TIP3    H141418   1.213   4.355   7.983
13825TIP3    H241419   1.305   4.371   8.103
13826TIP3   OH241420   2.088   4.645   7.766
13826TIP3    H141421   2.068   4.597   7.683
13826TIP3    H241422   2.053   4.734   7.742
13827TIP3   OH241423   1.079   5.389   7.991
13827TIP3    H141424   1.174   5.377   7.977
13827TIP3    H241425   1.058   5.448   7.917
13828TIP3   OH241426   2.219   4.852   8.094
13828TIP3    H141427   2.289   4.909   8.056
13828TIP3    H241428   2.251   4.842   8.185
13829TIP3   OH241429   2.350   4.661   8.265
13829TIP3    H141430   2.278   4.682   8.326
13829TIP3    H241431   2.307   4.609   8.197
13830TIP3   OH241432   2.281   4.617   7.957
13830TIP3    H141433   2.213   4.610   7.886
13830TIP3    H241434   2.256   4.703   7.995
13831TIP3   OH241435   2.145   4.282   7.894
13831TIP3    H141436   2.105   4.307   7.810
13831TIP3    H241437   2.128   4.185   7.892
13832TIP3   OH241438   2.098   4.014   7.888
13832TIP3    H141439   2.172   3.982   7.943
13832TIP3    H241440   2.020   3.968   7.924
13833TIP3   OH241441   2.344   3.963   8.012
13833TIP3    H141442   2.385   3.889   7.965
13833TIP3    H241443   2.415   4.029   8.011
13834TIP3   OH241444   1.947   5.434   8.300
13834TIP3    H141445   1.974   5.450   8.208
13834TIP3    H241446   1.968   5.519   8.342
13835TIP3   OH241447   1.343   5.335   7.940
13835TIP3    H141448   1.433   5.354   7.906
13835TIP3    H241449   1.319   5.260   7.882
13836TIP3   OH241450   2.059   5.455   8.046
13836TIP3    H141451   2.053   5.358   8.032
13836TIP3    H241452   2.012   5.488   7.967
13837TIP3   OH241453   3.554   4.973   7.995
13837TIP3    H141454   3.522   5.063   7.977
13837TIP3    H241455   3.477   4.921   7.967
13838TIP3   OH241456   3.534   4.980   8.367
13838TIP3    H141457   3.584   4.957   8.448
13838TIP3    H241458   3.494   4.894   8.345
13839TIP3   OH241459   3.795   5.276   8.062
13839TIP3    H141460   3.778   5.205   8.126
13839TIP3    H241461   3.826   5.348   8.119
13840TIP3   OH241462   2.824   5.291   8.464
13840TIP3    H141463   2.812   5.193   8.465
13840TIP3    H241464   2.921   5.294   8.460
13841TIP3   OH241465   2.566   4.503   8.199
13841TIP3    H141466   2.509   4.578   8.224
13841TIP3    H241467   2.509   4.431   8.228
13842TIP3   OH241468   2.718   4.744   8.405
13842TIP3    H141469   2.655   4.755   8.477
13842TIP3    H241470   2.664   4.765   8.329
13843TIP3   OH241471   3.445   5.734   8.079
13843TIP3    H141472   3.489   5.663   8.027
13843TIP3    H241473   3.434   5.691   8.165
13844TIP3   OH241474   3.349   5.201   8.406
13844TIP3    H141475   3.389   5.118   8.372
13844TIP3    H241476   3.428   5.240   8.447
13845TIP3   OH241477   4.364   4.527   8.408
13845TIP3    H141478   4.384   4.614   8.446
13845TIP3    H241479   4.388   4.542   8.314
13846TIP3   OH241480   3.752   4.680   8.461
13846TIP3    H141481   3.797   4.595   8.481
13846TIP3    H241482   3.727   4.667   8.368
13847TIP3   OH241483   3.143   4.340   8.382
13847TIP3    H141484   3.102   4.425   8.355
13847TIP3    H241485   3.073   4.279   8.352
13848TIP3   OH241486   3.794   4.449   8.046
13848TIP3    H141487   3.866   4.435   8.112
13848TIP3    H241488   3.846   4.483   7.971
13849TIP3   OH241489   3.172   4.760   8.329
13849TIP3    H141490   3.266   4.732   8.335
13849TIP3    H241491   3.129   4.678   8.295
13850TIP3   OH241492   4.433   4.732   8.596
13850TIP3    H141493   4.347   4.771   8.568
13850TIP3    H241494   4.420   4.731   8.691
13851TIP3   OH241495   3.445   5.196   7.865
13851TIP3    H141496   3.398   5.172   7.784
13851TIP3    H241497   3.396   5.276   7.892
13852TIP3   OH241498   4.000   4.455   8.223
13852TIP3    H141499   4.000   4.396   8.300
13852TIP3    H241500   4.054   4.530   8.253
13853TIP3   OH241501   2.420   5.006   7.987
13853TIP3    H141502   2.386   5.031   7.899
13853TIP3    H241503   2.454   5.092   8.020
13854TIP3   OH241504   3.868   5.517   8.227
13854TIP3    H141505   3.779   5.506   8.266
13854TIP3    H241506   3.858   5.604   8.182
13855TIP3   OH241507   4.139   4.454   8.574
13855TIP3    H141508   4.050   4.473   8.540
13855TIP3    H241509   4.198   4.485   8.503
13856TIP3   OH241510   3.565   5.563   7.900
13856TIP3    H141511   3.614   5.480   7.882
13856TIP3    H241512   3.627   5.627   7.860
13857TIP3   OH241513   3.710   5.347   7.809
13857TIP3    H141514   3.661   5.269   7.780
13857TIP3    H241515   3.748   5.315   7.894
13858TIP3   OH241516   4.089   5.428   8.572
13858TIP3    H141517   4.076   5.349   8.515
13858TIP3    H241518   4.069   5.501   8.510
13859TIP3   OH241519   3.381   4.823   7.832
13859TIP3    H141520   3.300   4.873   7.811
13859TIP3    H241521   3.425   4.819   7.745
13860TIP3   OH241522   3.340   4.610   7.543
13860TIP3    H141523   3.408   4.660   7.592
13860TIP3    H241524   3.396   4.545   7.497
13861TIP3   OH241525   4.284   5.066   8.422
13861TIP3    H141526   4.200   5.117   8.427
13861TIP3    H241527   4.313   5.090   8.331
13862TIP3   OH241528   3.730   4.907   7.799
13862TIP3    H141529   3.674   4.931   7.876
13862TIP3    H241530   3.813   4.881   7.844
13863TIP3   OH241531   3.959   4.973   8.686
13863TIP3    H141532   3.948   5.069   8.701
13863TIP3    H241533   3.877   4.955   8.638
13864TIP3   OH241534   2.965   4.910   8.210
13864TIP3    H141535   2.920   4.844   8.154
13864TIP3    H241536   3.036   4.855   8.252
13865TIP3   OH241537   3.093   5.319   8.364
13865TIP3    H141538   3.074   5.271   8.283
13865TIP3    H241539   3.179   5.279   8.390
13866TIP3   OH241540   3.093   4.888   8.560
13866TIP3    H141541   3.114   4.835   8.480
13866TIP3    H241542   3.180   4.911   8.592
13867TIP3   OH241543   3.629   5.508   8.347
13867TIP3    H141544   3.602   5.591   8.390
13867TIP3    H241545   3.601   5.438   8.409
13868TIP3   OH241546   3.567   4.764   7.628
13868TIP3    H141547   3.627   4.823   7.679
13868TIP3    H241548   3.593   4.787   7.536
13869TIP3   OH241549   3.314   5.440   7.902
13869TIP3    H141550   3.394   5.495   7.915
13869TIP3    H241551   3.252   5.503   7.863
13870TIP3   OH241552   4.089   4.006   7.679
13870TIP3    H141553   4.005   4.027   7.724
13870TIP3    H241554   4.098   4.081   7.617
13871TIP3   OH241555   2.828   4.743   8.016
13871TIP3    H141556   2.757   4.783   7.964
13871TIP3    H241557   2.787   4.661   8.046
13872TIP3   OH241558   3.882   5.356   7.226
13872TIP3    H141559   3.886   5.452   7.217
13872TIP3    H241560   3.976   5.329   7.211
13873TIP3   OH241561   4.325   5.777   8.622
13873TIP3    H141562   4.326   5.679   8.632
13873TIP3    H241563   4.237   5.796   8.661
13874TIP3   OH241564   3.194   5.688   7.707
13874TIP3    H141565   3.147   5.669   7.624
13874TIP3    H241566   3.162   5.777   7.731
13875TIP3   OH241567   2.628   5.538   8.085
13875TIP3    H141568   2.682   5.528   8.167
13875TIP3    H241569   2.576   5.456   8.088
13876TIP3   OH241570   3.394   5.589   7.346
13876TIP3    H141571   3.453   5.519   7.310
13876TIP3    H241572   3.428   5.598   7.437
13877TIP3   OH241573   3.445   5.634   7.617
13877TIP3    H141574   3.356   5.644   7.658
13877TIP3    H241575   3.494   5.594   7.691
13878TIP3   OH241576   3.646   4.811   7.374
13878TIP3    H141577   3.610   4.785   7.287
13878TIP3    H241578   3.731   4.851   7.348
13879TIP3   OH241579   3.355   4.184   7.675
13879TIP3    H141580   3.320   4.181   7.766
13879TIP3    H241581   3.317   4.102   7.639
13880TIP3   OH241582   3.030   4.547   8.235
13880TIP3    H141583   2.939   4.522   8.261
13880TIP3    H241584   3.036   4.503   8.147
13881TIP3   OH241585   3.521   4.626   7.965
13881TIP3    H141586   3.468   4.697   7.921
13881TIP3    H241587   3.575   4.593   7.890
13882TIP3   OH241588   3.676   4.650   8.198
13882TIP3    H141589   3.614   4.678   8.128
13882TIP3    H241590   3.709   4.569   8.154
13883TIP3   OH241591   3.013   4.159   7.639
13883TIP3    H141592   3.004   4.156   7.736
13883TIP3    H241593   2.935   4.211   7.614
13884TIP3   OH241594   2.537   4.190   8.033
13884TIP3    H141595   2.576   4.228   7.952
13884TIP3    H241596   2.470   4.259   8.052
13885TIP3   OH241597   3.704   4.921   8.575
13885TIP3    H141598   3.720   4.828   8.546
13885TIP3    H241599   3.667   4.910   8.665
13886TIP3   OH241600   3.389   4.374   8.272
13886TIP3    H141601   3.297   4.366   8.308
13886TIP3    H241602   3.439   4.375   8.355
13887TIP3   OH241603   2.801   4.400   8.286
13887TIP3    H141604   2.717   4.443   8.259
13887TIP3    H241605   2.816   4.336   8.214
13888TIP3   OH241606   3.055   4.414   7.995
13888TIP3    H141607   3.149   4.428   7.970
13888TIP3    H241608   3.007   4.433   7.912
13889TIP3   OH241609   3.850   4.429   8.518
13889TIP3    H141610   3.822   4.431   8.610
13889TIP3    H241611   3.781   4.372   8.478
13890TIP3   OH241612   2.902   4.445   7.771
13890TIP3    H141613   2.832   4.399   7.722
13890TIP3    H241614   2.954   4.482   7.697
13891TIP3   OH241615   4.044   6.113   8.702
13891TIP3    H141616   4.032   6.137   8.608
13891TIP3    H241617   4.065   6.199   8.741
13892TIP3   OH241618   3.443   4.695   8.380
13892TIP3    H141619   3.510   4.653   8.324
13892TIP3    H241620   3.465   4.660   8.467
13893TIP3   OH241621   2.983   4.174   8.216
13893TIP3    H141622   2.940   4.112   8.277
13893TIP3    H241623   3.037   4.118   8.160
13894TIP3   OH241624   3.150   4.973   7.777
13894TIP3    H141625   3.078   4.908   7.767
13894TIP3    H241626   3.132   5.008   7.868
13895TIP3   OH241627   4.052   5.211   8.406
13895TIP3    H141628   4.075   5.261   8.326
13895TIP3    H241629   3.966   5.171   8.381
13896TIP3   OH241630   3.609   4.282   7.654
13896TIP3    H141631   3.512   4.264   7.655
13896TIP3    H241632   3.616   4.378   7.670
13897TIP3   OH241633   3.676   4.537   7.749
13897TIP3    H141634   3.773   4.541   7.760
13897TIP3    H241635   3.657   4.615   7.693
13898TIP3   OH241636   2.850   5.021   8.439
13898TIP3    H141637   2.888   4.989   8.355
13898TIP3    H241638   2.855   4.939   8.491
13899TIP3   OH241639   3.296   5.125   7.603
13899TIP3    H141640   3.248   5.210   7.608
13899TIP3    H241641   3.242   5.068   7.662
13900TIP3   OH241642   3.714   5.527   8.714
13900TIP3    H141643   3.640   5.569   8.669
13900TIP3    H241644   3.749   5.598   8.770
13901TIP3   OH241645   4.120   4.628   7.581
13901TIP3    H141646   4.058   4.584   7.519
13901TIP3    H241647   4.116   4.717   7.541
13902TIP3   OH241648   4.331   5.500   8.661
13902TIP3    H141649   4.236   5.481   8.644
13902TIP3    H241650   4.369   5.460   8.581
13903TIP3   OH241651   3.826   5.440   7.492
13903TIP3    H141652   3.795   5.387   7.567
13903TIP3    H241653   3.824   5.376   7.419
13904TIP3   OH241654   3.818   5.080   8.315
13904TIP3    H141655   3.727   5.052   8.335
13904TIP3    H241656   3.852   4.998   8.275
13905TIP3   OH241657   2.944   5.303   8.080
13905TIP3    H141658   2.941   5.384   8.026
13905TIP3    H241659   2.851   5.283   8.090
13906TIP3   OH241660   2.505   4.604   7.790
13906TIP3    H141661   2.555   4.686   7.810
13906TIP3    H241662   2.431   4.611   7.853
13907TIP3   OH241663   3.082   5.070   8.019
13907TIP3    H141664   3.047   5.158   8.043
13907TIP3    H241665   3.048   5.015   8.092
13908TIP3   OH241666   3.206   5.650   8.535
13908TIP3    H141667   3.258   5.721   8.493
13908TIP3    H241668   3.274   5.598   8.580
13909TIP3   OH241669   2.862   5.542   7.932
13909TIP3    H141670   2.776   5.550   7.977
13909TIP3    H241671   2.894   5.635   7.936
13910TIP3   OH241672   3.605   5.282   8.511
13910TIP3    H141673   3.626   5.271   8.605
13910TIP3    H241674   3.678   5.233   8.471
13911TIP3   OH241675   3.578   5.177   7.391
13911TIP3    H141676   3.632   5.150   7.470
13911TIP3    H241677   3.491   5.145   7.418
13912TIP3   OH241678   3.843   5.808   8.554
13912TIP3    H141679   3.757   5.768   8.531
13912TIP3    H241680   3.844   5.881   8.488
13913TIP3   OH241681   3.738   5.106   7.603
13913TIP3    H141682   3.727   5.040   7.675
13913TIP3    H241683   3.836   5.103   7.594
13914TIP3   OH241684   2.941   5.152   7.392
13914TIP3    H141685   2.954   5.059   7.365
13914TIP3    H241686   2.921   5.141   7.488
13915TIP3   OH241687   2.884   5.158   7.665
13915TIP3    H141688   2.957   5.128   7.721
13915TIP3    H241689   2.890   5.256   7.673
13916TIP3   OH241690   2.617   4.849   7.868
13916TIP3    H141691   2.553   4.896   7.925
13916TIP3    H241692   2.635   4.917   7.801
13917TIP3   OH241693   3.655   4.235   7.927
13917TIP3    H141694   3.639   4.255   7.832
13917TIP3    H241695   3.694   4.319   7.959
13918TIP3   OH241696   3.154   5.355   7.612
13918TIP3    H141697   3.066   5.380   7.648
13918TIP3    H241698   3.169   5.429   7.552
13919TIP3   OH241699   3.342   4.422   8.009
13919TIP3    H141700   3.404   4.494   7.989
13919TIP3    H241701   3.354   4.416   8.106
13920TIP3   OH241702   3.486   4.149   8.126
13920TIP3    H141703   3.469   4.232   8.174
13920TIP3    H241704   3.550   4.181   8.058
13921TIP3   OH241705   2.899   5.431   7.681
13921TIP3    H141706   2.869   5.501   7.619
13921TIP3    H241707   2.883   5.474   7.768
13922TIP3   OH241708   2.998   4.142   7.913
13922TIP3    H141709   2.990   4.228   7.959
13922TIP3    H241710   3.096   4.130   7.919
13923TIP3   OH241711   3.902   4.830   8.204
13923TIP3    H141712   3.824   4.772   8.212
13923TIP3    H241713   3.970   4.781   8.253
13924TIP3   OH241714   2.616   5.058   7.671
13924TIP3    H141715   2.688   5.123   7.680
13924TIP3    H241716   2.659   4.998   7.606
13925TIP3   OH241717   2.560   4.333   7.801
13925TIP3    H141718   2.557   4.431   7.803
13925TIP3    H241719   2.477   4.311   7.757
13926TIP3   OH241720   3.872   5.788   8.153
13926TIP3    H141721   3.827   5.834   8.078
13926TIP3    H241722   3.966   5.807   8.130
13927TIP3   OH241723   2.482   5.274   8.057
13927TIP3    H141724   2.415   5.306   8.119
13927TIP3    H241725   2.452   5.317   7.973
13928TIP3   OH241726   3.104   5.355   7.302
13928TIP3    H141727   3.048   5.283   7.342
13928TIP3    H241728   3.180   5.302   7.271
13929TIP3   OH241729   3.540   5.393   7.218
13929TIP3    H141730   3.576   5.322   7.276
13929TIP3    H241731   3.594   5.386   7.137
13930TIP3   OH241732   2.752   4.870   7.528
13930TIP3    H141733   2.808   4.837   7.600
13930TIP3    H241734   2.818   4.875   7.456
13931TIP3   OH241735   3.266   5.072   7.334
13931TIP3    H141736   3.267   5.084   7.431
13931TIP3    H241737   3.267   4.974   7.328
13932TIP3   OH241738   3.864   5.292   8.681
13932TIP3    H141739   3.953   5.330   8.666
13932TIP3    H241740   3.813   5.374   8.696
13933TIP3   OH241741   2.954   4.779   7.745
13933TIP3    H141742   2.929   4.741   7.831
13933TIP3    H241743   2.992   4.701   7.698
13934TIP3   OH241744   3.061   4.573   7.587
13934TIP3    H141745   3.035   4.578   7.492
13934TIP3    H241746   3.158   4.577   7.579
13935TIP3   OH241747   3.881   4.899   7.253
13935TIP3    H141748   3.861   4.852   7.170
13935TIP3    H241749   3.845   4.988   7.229
13936TIP3   OH241750   2.868   5.634   7.494
13936TIP3    H141751   2.963   5.626   7.474
13936TIP3    H241752   2.840   5.684   7.416
13937TIP3   OH241753   2.347   5.014   7.708
13937TIP3    H141754   2.442   5.035   7.693
13937TIP3    H241755   2.341   4.925   7.667
13938TIP3   OH241756   2.264   5.629   8.115
13938TIP3    H141757   2.196   5.566   8.082
13938TIP3    H241758   2.307   5.573   8.184
13939TIP3   OH241759   2.396   5.483   8.305
13939TIP3    H141760   2.386   5.412   8.369
13939TIP3    H241761   2.448   5.548   8.356
13940TIP3   OH241762   4.127   5.874   8.109
13940TIP3    H141763   4.149   5.910   8.197
13940TIP3    H241764   4.185   5.925   8.051
13941TIP3   OH241765   4.150   5.897   8.390
13941TIP3    H141766   4.108   5.809   8.386
13941TIP3    H241767   4.227   5.877   8.444
13942TIP3   OH241768   4.017   5.088   7.585
13942TIP3    H141769   4.087   5.150   7.556
13942TIP3    H241770   4.060   5.048   7.664
13943TIP3   OH241771   4.145   4.955   7.788
13943TIP3    H141772   4.078   4.912   7.846
13943TIP3    H241773   4.209   4.991   7.853
13944TIP3   OH241774   4.203   5.351   8.221
13944TIP3    H141775   4.254   5.283   8.173
13944TIP3    H241776   4.194   5.422   8.154
13945TIP3   OH241777   4.029   5.648   8.413
13945TIP3    H141778   3.955   5.688   8.462
13945TIP3    H241779   3.982   5.600   8.341
13946TIP3   OH241780   4.083   4.865   7.435
13946TIP3    H141781   4.011   4.863   7.368
13946TIP3    H241782   4.053   4.940   7.489
13947TIP3   OH241783   3.953   4.541   7.387
13947TIP3    H141784   3.907   4.564   7.305
13947TIP3    H241785   3.927   4.446   7.394
13948TIP3   OH241786   3.958   4.813   7.933
13948TIP3    H141787   3.963   4.716   7.924
13948TIP3    H241788   3.942   4.824   8.029
13949TIP3   OH241789   4.219   5.226   8.777
13949TIP3    H141790   4.307   5.185   8.789
13949TIP3    H241791   4.241   5.313   8.742
13950TIP3   OH241792   4.420   5.049   8.817
13950TIP3    H141793   4.347   4.989   8.837
13950TIP3    H241794   4.489   4.991   8.785
13951TIP3   OH241795   3.888   4.280   7.401
13951TIP3    H141796   3.967   4.231   7.430
13951TIP3    H241797   3.825   4.209   7.381
13952TIP3   OH241798   3.956   4.531   7.827
13952TIP3    H141799   3.996   4.442   7.842
13952TIP3    H241800   4.012   4.562   7.754
13953TIP3   OH241801   4.115   4.701   8.329
13953TIP3    H141802   4.200   4.726   8.288
13953TIP3    H241803   4.126   4.741   8.417
13954TIP3   OH241804   4.186   4.851   8.564
13954TIP3    H141805   4.108   4.886   8.612
13954TIP3    H241806   4.215   4.931   8.515
13955TIP3   OH241807   4.063   4.280   7.867
13955TIP3    H141808   4.109   4.260   7.951
13955TIP3    H241809   4.002   4.204   7.861
13956TIP3   OH241810   4.149   4.203   7.489
13956TIP3    H141811   4.183   4.145   7.420
13956TIP3    H241812   4.212   4.278   7.487
13957TIP3   OH241813   2.557   4.029   8.246
13957TIP3    H141814   2.487   4.066   8.300
13957TIP3    H241815   2.563   4.096   8.174
13958TIP3   OH241816   3.715   5.742   7.764
13958TIP3    H141817   3.765   5.737   7.680
13958TIP3    H241818   3.759   5.815   7.810
13959TIP3   OH241819   2.984   5.605   8.704
13959TIP3    H141820   2.962   5.681   8.645
13959TIP3    H241821   3.069   5.578   8.666
13960TIP3   OH241822   3.596   5.970   8.667
13960TIP3    H141823   3.687   5.941   8.652
13960TIP3    H241824   3.605   6.016   8.754
13961TIP3   OH241825   2.892   5.829   8.577
13961TIP3    H141826   2.799   5.842   8.602
13961TIP3    H241827   2.889   5.854   8.482
13962TIP3   OH241828   3.331   5.847   8.377
13962TIP3    H141829   3.259   5.861   8.313
13962TIP3    H241830   3.338   5.937   8.416
13963TIP3   OH241831   3.595   5.773   8.428
13963TIP3    H141832   3.501   5.797   8.411
13963TIP3    H241833   3.639   5.851   8.389
13964TIP3   OH241834   3.800   5.974   8.344
13964TIP3    H141835   3.785   6.059   8.297
13964TIP3    H241836   3.826   5.915   8.270
13965TIP3   OH241837   2.590   5.638   8.443
13965TIP3    H141838   2.616   5.601   8.530
13965TIP3    H241839   2.658   5.595   8.387
13966TIP3   OH241840   2.779   5.505   8.306
13966TIP3    H141841   2.792   5.420   8.355
13966TIP3    H241842   2.870   5.541   8.309
13967TIP3   OH241843   3.039   5.594   8.325
13967TIP3    H141844   3.066   5.500   8.318
13967TIP3    H241845   3.089   5.617   8.406
13968TIP3   OH241846   3.635   4.274   8.426
13968TIP3    H141847   3.560   4.221   8.457
13968TIP3    H241848   3.685   4.211   8.371
13969TIP3   OH241849   4.135   4.147   8.327
13969TIP3    H141850   4.169   4.192   8.246
13969TIP3    H241851   4.039   4.151   8.313
13970TIP3   OH241852   4.228   4.231   8.085
13970TIP3    H141853   4.301   4.180   8.043
13970TIP3    H241854   4.261   4.323   8.070
13971TIP3   OH241855   2.624   3.841   8.054
13971TIP3    H141856   2.671   3.897   7.988
13971TIP3    H241857   2.613   3.905   8.128
13972TIP3   OH241858   3.310   4.017   8.298
13972TIP3    H141859   3.370   4.049   8.228
13972TIP3    H241860   3.334   4.079   8.370
13973TIP3   OH241861   3.860   4.137   8.287
13973TIP3    H141862   3.847   4.103   8.198
13973TIP3    H241863   3.833   4.059   8.342
13974TIP3   OH241864   3.881   4.068   7.859
13974TIP3    H141865   3.794   4.110   7.869
13974TIP3    H241866   3.865   3.981   7.902
13975TIP3   OH241867   2.362   5.407   7.856
13975TIP3    H141868   2.276   5.374   7.822
13975TIP3    H241869   2.354   5.501   7.833
13976TIP3   OH241870   2.765   3.990   7.843
13976TIP3    H141871   2.813   3.927   7.785
13976TIP3    H241872   2.839   4.045   7.876
13977TIP3   OH241873   3.273   4.167   7.940
13977TIP3    H141874   3.336   4.123   7.998
13977TIP3    H241875   3.294   4.261   7.960
13978TIP3   OH241876   3.134   5.589   7.441
13978TIP3    H141877   3.222   5.612   7.404
13978TIP3    H241878   3.112   5.514   7.381
13979TIP3   OH241879   3.861   5.708   7.523
13979TIP3    H141880   3.841   5.612   7.516
13979TIP3    H241881   3.807   5.744   7.448
13980TIP3   OH241882   2.439   5.428   7.496
13980TIP3    H141883   2.443   5.448   7.590
13980TIP3    H241884   2.526   5.385   7.480
13981TIP3   OH241885   4.072   5.841   8.716
13981TIP3    H141886   3.995   5.824   8.658
13981TIP3    H241887   4.065   5.938   8.727
13982TIP3   OH241888   5.347   5.228   7.484
13982TIP3    H141889   5.316   5.319   7.463
13982TIP3    H241890   5.272   5.177   7.451
13983TIP3   OH241891   5.345   5.229   7.870
13983TIP3    H141892   5.380   5.204   7.958
13983TIP3    H241893   5.305   5.146   7.841
13984TIP3   OH241894   4.644   5.122   8.232
13984TIP3    H141895   4.674   5.054   8.295
13984TIP3    H241896   4.725   5.173   8.220
13985TIP3   OH241897   5.592   5.530   7.552
13985TIP3    H141898   5.575   5.462   7.619
13985TIP3    H241899   5.621   5.605   7.606
13986TIP3   OH241900   4.618   5.533   7.954
13986TIP3    H141901   4.610   5.436   7.958
13986TIP3    H241902   4.715   5.542   7.948
13987TIP3   OH241903   4.323   4.735   7.741
13987TIP3    H141904   4.272   4.817   7.756
13987TIP3    H241905   4.254   4.681   7.698
13988TIP3   OH241906   4.382   5.023   7.919
13988TIP3    H141907   4.431   4.944   7.952
13988TIP3    H241908   4.439   5.053   7.848
13989TIP3   OH241909   5.241   5.990   7.568
13989TIP3    H141910   5.284   5.919   7.515
13989TIP3    H241911   5.233   5.948   7.654
13990TIP3   OH241912   5.143   5.453   7.917
13990TIP3    H141913   5.184   5.377   7.872
13990TIP3    H241914   5.226   5.500   7.943
13991TIP3   OH241915   6.158   4.771   7.916
13991TIP3    H141916   6.185   4.855   7.960
13991TIP3    H241917   6.181   4.791   7.823
13992TIP3   OH241918   5.556   4.953   7.947
13992TIP3    H141919   5.601   4.868   7.966
13992TIP3    H241920   5.525   4.937   7.856
13993TIP3   OH241921   4.898   4.613   7.912
13993TIP3    H141922   4.877   4.686   7.849
13993TIP3    H241923   4.850   4.539   7.868
13994TIP3   OH241924   5.591   4.707   7.534
13994TIP3    H141925   5.663   4.692   7.599
13994TIP3    H241926   5.642   4.741   7.459
13995TIP3   OH241927   4.527   4.814   8.022
13995TIP3    H141928   4.611   4.795   8.068
13995TIP3    H241929   4.539   4.760   7.941
13996TIP3   OH241930   4.967   5.013   7.817
13996TIP3    H141931   5.062   4.989   7.828
13996TIP3    H241932   4.929   4.929   7.783
13997TIP3   OH241933   6.227   4.979   8.089
13997TIP3    H141934   6.143   5.028   8.074
13997TIP3    H241935   6.260   5.021   8.170
13998TIP3   OH241936   4.893   4.602   8.343
13998TIP3    H141937   4.837   4.633   8.269
13998TIP3    H241938   4.841   4.635   8.419
13999TIP3   OH241939   5.234   5.447   7.356
13999TIP3    H141940   5.196   5.432   7.268
13999TIP3    H241941   5.190   5.531   7.382
14000TIP3   OH241942   4.997   5.373   8.140
14000TIP3    H141943   4.936   5.442   8.176
14000TIP3    H241944   5.042   5.421   8.067
14001TIP3   OH241945   5.797   4.711   7.711
14001TIP3    H141946   5.785   4.664   7.794
14001TIP3    H241947   5.850   4.788   7.738
14002TIP3   OH241948   4.764   4.712   8.128
14002TIP3    H141949   4.825   4.786   8.151
14002TIP3    H241950   4.813   4.672   8.052
14003TIP3   OH241951   4.825   5.569   8.240
14003TIP3    H141952   4.802   5.656   8.202
14003TIP3    H241953   4.745   5.554   8.294
14004TIP3   OH241954   4.220   5.251   7.474
14004TIP3    H141955   4.178   5.275   7.390
14004TIP3    H241956   4.240   5.340   7.511
14005TIP3   OH241957   5.659   5.775   7.719
14005TIP3    H141958   5.569   5.765   7.757
14005TIP3    H241959   5.649   5.860   7.671
14006TIP3   OH241960   5.951   4.668   8.079
14006TIP3    H141961   5.865   4.698   8.046
14006TIP3    H241962   6.012   4.702   8.010
14007TIP3   OH241963   5.247   4.312   8.064
14007TIP3    H141964   5.231   4.217   8.080
14007TIP3    H241965   5.169   4.351   8.110
14008TIP3   OH241966   5.358   5.817   7.388
14008TIP3    H141967   5.409   5.735   7.368
14008TIP3    H241968   5.419   5.883   7.347
14009TIP3   OH241969   5.503   5.603   7.301
14009TIP3    H141970   5.468   5.522   7.260
14009TIP3    H241971   5.540   5.568   7.384
14010TIP3   OH241972   5.872   5.686   8.052
14010TIP3    H141973   5.860   5.608   7.995
14010TIP3    H241974   5.855   5.760   7.991
14011TIP3   OH241975   5.177   5.080   7.319
14011TIP3    H141976   5.097   5.131   7.297
14011TIP3    H241977   5.223   5.076   7.233
14012TIP3   OH241978   5.135   4.866   7.032
14012TIP3    H141979   5.204   4.917   7.080
14012TIP3    H241980   5.192   4.802   6.984
14013TIP3   OH241981   6.085   5.331   7.908
14013TIP3    H141982   5.999   5.378   7.915
14013TIP3    H241983   6.106   5.349   7.814
14014TIP3   OH241984   5.525   5.162   7.288
14014TIP3    H141985   5.470   5.187   7.366
14014TIP3    H241986   5.609   5.137   7.332
14015TIP3   OH241987   5.755   5.186   8.197
14015TIP3    H141988   5.764   5.266   8.255
14015TIP3    H241989   5.670   5.206   8.153
14016TIP3   OH241990   4.756   5.158   7.707
14016TIP3    H141991   4.715   5.100   7.640
14016TIP3    H241992   4.833   5.105   7.736
14017TIP3   OH241993   4.886   5.570   7.854
14017TIP3    H141994   4.868   5.534   7.766
14017TIP3    H241995   4.975   5.534   7.872
14018TIP3   OH241996   4.891   5.131   8.061
14018TIP3    H141997   4.924   5.107   7.972
14018TIP3    H241998   4.936   5.217   8.079
14019TIP3   OH241999   5.418   5.769   7.839
14019TIP3    H142000   5.405   5.847   7.895
14019TIP3    H242001   5.404   5.695   7.901
14020TIP3   OH242002   5.031   5.684   8.386
14020TIP3    H142003   4.968   5.746   8.429
14020TIP3    H242004   4.968   5.631   8.333
14021TIP3   OH242005   5.364   5.020   7.116
14021TIP3    H142006   5.423   5.080   7.166
14021TIP3    H242007   5.390   5.042   7.023
14022TIP3   OH242008   4.789   5.240   8.481
14022TIP3    H142009   4.786   5.328   8.523
14022TIP3    H242010   4.694   5.217   8.485
14023TIP3   OH242011   5.109   5.698   7.393
14023TIP3    H142012   5.192   5.749   7.401
14023TIP3    H242013   5.050   5.761   7.348
14024TIP3   OH242014   4.822   5.837   8.468
14024TIP3    H142015   4.787   5.850   8.378
14024TIP3    H242016   4.741   5.834   8.523
14025TIP3   OH242017   5.881   4.259   7.165
14025TIP3    H142018   5.799   4.280   7.215
14025TIP3    H242019   5.894   4.341   7.114
14026TIP3   OH242020   4.623   5.002   7.513
14026TIP3    H142021   4.556   5.046   7.456
14026TIP3    H242022   4.586   4.913   7.521
14027TIP3   OH242023   5.680   5.627   6.714
14027TIP3    H142024   5.688   5.723   6.698
14027TIP3    H242025   5.773   5.598   6.701
14028TIP3   OH242026   4.402   5.391   8.420
14028TIP3    H142027   4.333   5.371   8.353
14028TIP3    H242028   4.440   5.303   8.438
14029TIP3   OH242029   4.258   5.582   8.046
14029TIP3    H142030   4.354   5.575   8.043
14029TIP3    H242031   4.246   5.659   8.104
14030TIP3   OH242032   5.223   5.815   8.238
14030TIP3    H142033   5.223   5.906   8.273
14030TIP3    H242034   5.155   5.773   8.294
14031TIP3   OH242035   4.990   5.942   7.196
14031TIP3    H142036   4.946   5.925   7.111
14031TIP3    H242037   4.959   6.031   7.219
14032TIP3   OH242038   4.419   5.783   7.583
14032TIP3    H142039   4.486   5.787   7.656
14032TIP3    H242040   4.347   5.740   7.632
14033TIP3   OH242041   5.190   5.846   6.832
14033TIP3    H142042   5.249   5.776   6.796
14033TIP3    H242043   5.226   5.856   6.923
14034TIP3   OH242044   5.242   5.896   7.102
14034TIP3    H142045   5.154   5.904   7.145
14034TIP3    H242046   5.296   5.859   7.174
14035TIP3   OH242047   6.038   5.165   8.351
14035TIP3    H142048   5.945   5.193   8.344
14035TIP3    H242049   6.032   5.068   8.348
14036TIP3   OH242050   4.605   5.572   8.404
14036TIP3    H142051   4.652   5.549   8.487
14036TIP3    H242052   4.529   5.510   8.408
14037TIP3   OH242053   5.008   4.390   8.192
14037TIP3    H142054   4.920   4.360   8.163
14037TIP3    H242055   4.983   4.473   8.237
14038TIP3   OH242056   5.542   4.509   8.387
14038TIP3    H142057   5.605   4.479   8.454
14038TIP3    H242058   5.455   4.490   8.429
14039TIP3   OH242059   5.775   4.932   8.303
14039TIP3    H142060   5.726   4.938   8.388
14039TIP3    H242061   5.760   5.020   8.263
14040TIP3   OH242062   5.442   5.062   6.860
14040TIP3    H142063   5.406   5.040   6.772
14040TIP3    H242064   5.524   5.108   6.835
14041TIP3   OH242065   5.154   4.439   7.163
14041TIP3    H142066   5.119   4.436   7.254
14041TIP3    H242067   5.114   4.357   7.128
14042TIP3   OH242068   4.939   4.908   8.208
14042TIP3    H142069   4.890   4.930   8.290
14042TIP3    H242070   4.924   4.989   8.155
14043TIP3   OH242071   4.823   4.794   7.724
14043TIP3    H142072   4.731   4.768   7.742
14043TIP3    H242073   4.836   4.754   7.635
14044TIP3   OH242074   5.314   4.880   7.453
14044TIP3    H142075   5.262   4.951   7.409
14044TIP3    H242076   5.369   4.847   7.379
14045TIP3   OH242077   5.475   5.157   8.531
14045TIP3    H142078   5.467   5.088   8.600
14045TIP3    H242079   5.561   5.196   8.548
14046TIP3   OH242080   5.470   4.906   7.690
14046TIP3    H142081   5.409   4.935   7.619
14046TIP3    H242082   5.505   4.826   7.646
14047TIP3   OH242083   4.760   4.940   8.418
14047TIP3    H142084   4.793   5.006   8.481
14047TIP3    H242085   4.747   4.861   8.474
14048TIP3   OH242086   4.812   4.416   7.129
14048TIP3    H142087   4.799   4.412   7.226
14048TIP3    H242088   4.732   4.465   7.102
14049TIP3   OH242089   4.350   4.457   8.005
14049TIP3    H142090   4.430   4.489   8.051
14049TIP3    H242091   4.384   4.426   7.919
14050TIP3   OH242092   4.319   4.438   7.519
14050TIP3    H142093   4.364   4.476   7.440
14050TIP3    H242094   4.257   4.510   7.539
14051TIP3   OH242095   5.471   5.152   8.108
14051TIP3    H142096   5.510   5.082   8.051
14051TIP3    H242097   5.445   5.099   8.185
14052TIP3   OH242098   5.156   4.614   7.784
14052TIP3    H142099   5.074   4.613   7.837
14052TIP3    H242100   5.224   4.612   7.853
14053TIP3   OH242101   4.585   4.672   7.793
14053TIP3    H142102   4.490   4.680   7.764
14053TIP3    H242103   4.607   4.581   7.768
14054TIP3   OH242104   4.852   4.668   7.483
14054TIP3    H142105   4.945   4.683   7.459
14054TIP3    H242106   4.804   4.690   7.399
14055TIP3   OH242107   5.644   4.690   7.989
14055TIP3    H142108   5.608   4.705   8.079
14055TIP3    H242109   5.576   4.630   7.952
14056TIP3   OH242110   4.699   4.704   7.259
14056TIP3    H142111   4.629   4.656   7.211
14056TIP3    H242112   4.751   4.739   7.184
14057TIP3   OH242113   4.750   5.483   8.629
14057TIP3    H142114   4.836   5.519   8.656
14057TIP3    H242115   4.712   5.453   8.712
14058TIP3   OH242116   5.234   4.945   7.880
14058TIP3    H142117   5.307   4.907   7.829
14058TIP3    H242118   5.244   4.901   7.967
14059TIP3   OH242119   4.756   4.430   7.764
14059TIP3    H142120   4.720   4.352   7.811
14059TIP3    H242121   4.797   4.390   7.687
14060TIP3   OH242122   5.209   4.840   8.176
14060TIP3    H142123   5.120   4.878   8.186
14060TIP3    H242124   5.267   4.904   8.222
14061TIP3   OH242125   4.946   5.231   7.266
14061TIP3    H142126   4.874   5.165   7.254
14061TIP3    H242127   4.927   5.264   7.357
14062TIP3   OH242128   5.846   5.464   7.892
14062TIP3    H142129   5.870   5.514   7.812
14062TIP3    H242130   5.760   5.423   7.867
14063TIP3   OH242131   5.405   4.541   7.135
14063TIP3    H142132   5.309   4.522   7.142
14063TIP3    H242133   5.412   4.636   7.157
14064TIP3   OH242134   5.340   5.552   8.264
14064TIP3    H142135   5.350   5.529   8.357
14064TIP3    H242136   5.301   5.641   8.268
14065TIP3   OH242137   5.473   4.792   7.236
14065TIP3    H142138   5.569   4.799   7.249
14065TIP3    H242139   5.453   4.872   7.182
14066TIP3   OH242140   4.640   5.256   7.941
14066TIP3    H142141   4.678   5.227   7.856
14066TIP3    H242142   4.682   5.194   8.003
14067TIP3   OH242143   5.094   5.381   7.091
14067TIP3    H142144   5.045   5.467   7.095
14067TIP3    H242145   5.039   5.326   7.151
14068TIP3   OH242146   4.525   5.176   8.542
14068TIP3    H142147   4.556   5.169   8.634
14068TIP3    H242148   4.448   5.118   8.538
14069TIP3   OH242149   5.232   5.289   8.561
14069TIP3    H142150   5.181   5.224   8.512
14069TIP3    H242151   5.323   5.253   8.551
14070TIP3   OH242152   5.501   5.810   8.151
14070TIP3    H142153   5.405   5.805   8.165
14070TIP3    H242154   5.530   5.849   8.236
14071TIP3   OH242155   5.915   4.884   7.069
14071TIP3    H142156   5.853   4.839   7.006
14071TIP3    H242157   5.911   4.973   7.028
14072TIP3   OH242158   6.129   5.692   8.134
14072TIP3    H142159   6.035   5.705   8.110
14072TIP3    H242160   6.170   5.688   8.045
14073TIP3   OH242161   5.620   5.701   6.979
14073TIP3    H142162   5.590   5.631   7.038
14073TIP3    H242163   5.631   5.656   6.893
14074TIP3   OH242164   5.611   5.331   7.810
14074TIP3    H142165   5.518   5.306   7.824
14074TIP3    H242166   5.645   5.250   7.766
14075TIP3   OH242167   4.745   5.560   7.571
14075TIP3    H142168   4.746   5.640   7.515
14075TIP3    H242169   4.651   5.543   7.579
14076TIP3   OH242170   4.307   4.861   7.275
14076TIP3    H142171   4.352   4.946   7.296
14076TIP3    H242172   4.228   4.866   7.334
14077TIP3   OH242173   4.874   5.322   7.511
14077TIP3    H142174   4.843   5.412   7.530
14077TIP3    H242175   4.839   5.272   7.586
14078TIP3   OH242176   5.011   5.901   8.035
14078TIP3    H142177   5.053   5.973   7.984
14078TIP3    H242178   5.088   5.864   8.081
14079TIP3   OH242179   4.659   5.796   7.421
14079TIP3    H142180   4.574   5.808   7.465
14079TIP3    H242181   4.695   5.888   7.423
14080TIP3   OH242182   5.397   5.537   7.997
14080TIP3    H142183   5.387   5.535   8.095
14080TIP3    H242184   5.477   5.484   7.985
14081TIP3   OH242185   5.375   5.430   6.879
14081TIP3    H142186   5.427   5.405   6.959
14081TIP3    H242187   5.286   5.402   6.907
14082TIP3   OH242188   5.631   6.077   8.054
14082TIP3    H142189   5.558   6.014   8.037
14082TIP3    H242190   5.624   6.137   7.977
14083TIP3   OH242191   5.712   5.902   6.698
14083TIP3    H142192   5.747   5.974   6.643
14083TIP3    H242193   5.632   5.947   6.733
14084TIP3   OH242194   4.716   4.677   8.550
14084TIP3    H142195   4.621   4.697   8.556
14084TIP3    H242196   4.714   4.580   8.555
14085TIP3   OH242197   5.535   5.363   7.095
14085TIP3    H142198   5.525   5.296   7.165
14085TIP3    H242199   5.632   5.360   7.082
14086TIP3   OH242200   4.447   5.764   8.193
14086TIP3    H142201   4.502   5.694   8.232
14086TIP3    H242202   4.476   5.841   8.244
14087TIP3   OH242203   4.739   5.408   6.880
14087TIP3    H142204   4.751   5.315   6.851
14087TIP3    H242205   4.716   5.396   6.974
14088TIP3   OH242206   4.679   5.415   7.154
14088TIP3    H142207   4.757   5.387   7.204
14088TIP3    H242208   4.686   5.513   7.159
14089TIP3   OH242209   4.420   5.106   7.355
14089TIP3    H142210   4.352   5.150   7.411
14089TIP3    H242211   4.433   5.174   7.287
14090TIP3   OH242212   5.567   4.747   8.247
14090TIP3    H142213   5.651   4.786   8.279
14090TIP3    H242214   5.558   4.666   8.301
14091TIP3   OH242215   5.450   4.492   7.414
14091TIP3    H142216   5.436   4.514   7.320
14091TIP3    H242217   5.490   4.575   7.448
14092TIP3   OH242218   4.949   5.610   7.100
14092TIP3    H142219   4.862   5.638   7.134
14092TIP3    H242220   4.967   5.683   7.038
14093TIP3   OH242221   5.136   4.676   7.514
14093TIP3    H142222   5.201   4.748   7.496
14093TIP3    H242223   5.143   4.668   7.612
14094TIP3   OH242224   5.403   4.989   8.317
14094TIP3    H142225   5.427   5.044   8.394
14094TIP3    H242226   5.462   4.912   8.325
14095TIP3   OH242227   5.280   4.398   7.615
14095TIP3    H142228   5.268   4.477   7.671
14095TIP3    H242229   5.343   4.432   7.547
14096TIP3   OH242230   4.693   5.687   7.168
14096TIP3    H142231   4.666   5.757   7.105
14096TIP3    H242232   4.680   5.732   7.254
14097TIP3   OH242233   4.793   4.401   7.406
14097TIP3    H142234   4.791   4.491   7.442
14097TIP3    H242235   4.890   4.383   7.412
14098TIP3   OH242236   6.042   4.886   8.309
14098TIP3    H142237   5.944   4.886   8.305
14098TIP3    H242238   6.063   4.856   8.219
14099TIP3   OH242239   5.698   5.087   7.690
14099TIP3    H142240   5.621   5.027   7.701
14099TIP3    H242241   5.769   5.039   7.738
14100TIP3   OH242242   4.413   5.315   7.159
14100TIP3    H142243   4.486   5.379   7.166
14100TIP3    H242244   4.453   5.255   7.093
14101TIP3   OH242245   4.353   4.590   7.295
14101TIP3    H142246   4.352   4.688   7.291
14101TIP3    H242247   4.276   4.567   7.243
14102TIP3   OH242248   5.660   6.040   7.635
14102TIP3    H142249   5.618   6.087   7.560
14102TIP3    H242250   5.755   6.059   7.615
14103TIP3   OH242251   4.743   4.314   8.163
14103TIP3    H142252   4.712   4.281   8.076
14103TIP3    H242253   4.732   4.234   8.219
14104TIP3   OH242254   4.247   5.520   7.527
14104TIP3    H142255   4.218   5.568   7.606
14104TIP3    H242256   4.302   5.584   7.481
14105TIP3   OH242257   4.445   6.062   8.595
14105TIP3    H142258   4.527   6.027   8.632
14105TIP3    H242259   4.388   5.984   8.598
14106TIP3   OH242260   4.901   5.612   6.789
14106TIP3    H142261   4.846   5.539   6.827
14106TIP3    H242262   4.976   5.561   6.753
14107TIP3   OH242263   5.546   5.910   8.404
14107TIP3    H142264   5.554   5.860   8.486
14107TIP3    H242265   5.611   5.982   8.417
14108TIP3   OH242266   5.336   5.651   6.703
14108TIP3    H142267   5.380   5.586   6.761
14108TIP3    H242268   5.392   5.650   6.623
14109TIP3   OH242269   4.547   5.128   7.015
14109TIP3    H142270   4.604   5.095   7.086
14109TIP3    H242271   4.612   5.132   6.942
14110TIP3   OH242272   5.205   5.563   8.578
14110TIP3    H142273   5.141   5.586   8.509
14110TIP3    H242274   5.208   5.465   8.576
14111TIP3   OH242275   5.062   5.328   6.821
14111TIP3    H142276   5.063   5.340   6.918
14111TIP3    H242277   5.062   5.230   6.815
14112TIP3   OH242278   5.664   5.576   8.199
14112TIP3    H142279   5.741   5.617   8.157
14112TIP3    H242280   5.595   5.643   8.181
14113TIP3   OH242281   4.698   5.173   8.771
14113TIP3    H142282   4.792   5.154   8.759
14113TIP3    H242283   4.687   5.161   8.867
14114TIP3   OH242284   4.753   5.034   7.232
14114TIP3    H142285   4.727   4.991   7.315
14114TIP3    H242286   4.790   4.959   7.181
14115TIP3   OH242287   5.023   5.091   8.459
14115TIP3    H142288   4.948   5.155   8.462
14115TIP3    H242289   5.073   5.125   8.380
14116TIP3   OH242290   4.857   4.830   7.073
14116TIP3    H142291   4.831   4.834   6.979
14116TIP3    H242292   4.955   4.834   7.065
14117TIP3   OH242293   5.676   5.156   6.740
14117TIP3    H142294   5.655   5.112   6.656
14117TIP3    H242295   5.644   5.247   6.718
14118TIP3   OH242296   5.150   4.887   8.589
14118TIP3    H142297   5.152   4.809   8.531
14118TIP3    H242298   5.106   4.954   8.532
14119TIP3   OH242299   5.151   4.674   8.398
14119TIP3    H142300   5.180   4.716   8.314
14119TIP3    H242301   5.058   4.650   8.375
14120TIP3   OH242302   5.172   5.203   8.265
14120TIP3    H142303   5.259   5.218   8.225
14120TIP3    H242304   5.118   5.272   8.222
14121TIP3   OH242305   5.791   5.395   8.363
14121TIP3    H142306   5.735   5.464   8.321
14121TIP3    H242307   5.880   5.431   8.343
14122TIP3   OH242308   4.978   5.007   8.797
14122TIP3    H142309   4.932   4.922   8.792
14122TIP3    H242310   5.048   4.994   8.731
14123TIP3   OH242311   5.284   4.437   8.464
14123TIP3    H142312   5.233   4.519   8.444
14123TIP3    H242313   5.215   4.369   8.453
14124TIP3   OH242314   5.409   4.935   8.682
14124TIP3    H142315   5.393   4.924   8.776
14124TIP3    H242316   5.320   4.913   8.646
14125TIP3   OH242317   5.640   4.892   8.538
14125TIP3    H142318   5.555   4.895   8.585
14125TIP3    H242319   5.698   4.854   8.605
14126TIP3   OH242320   4.865   4.755   8.852
14126TIP3    H142321   4.923   4.705   8.793
14126TIP3    H242322   4.909   4.740   8.936
14127TIP3   OH242323   5.391   4.431   8.720
14127TIP3    H142324   5.456   4.361   8.704
14127TIP3    H242325   5.344   4.437   8.634
14128TIP3   OH242326   4.666   5.888   6.982
14128TIP3    H142327   4.761   5.882   6.961
14128TIP3    H242328   4.636   5.939   6.904
14129TIP3   OH242329   4.143   5.274   7.194
14129TIP3    H142330   4.238   5.294   7.179
14129TIP3    H242331   4.136   5.185   7.153
14130TIP3   OH242332   4.074   5.864   7.589
14130TIP3    H142333   3.989   5.819   7.569
14130TIP3    H242334   4.101   5.817   7.671
14131TIP3   OH242335   4.207   5.722   7.789
14131TIP3    H142336   4.184   5.657   7.859
14131TIP3    H242337   4.249   5.790   7.845
14132TIP3   OH242338   5.917   6.118   7.596
14132TIP3    H142339   5.949   6.153   7.681
14132TIP3    H242340   5.973   6.163   7.531
14133TIP3   OH242341   5.983   6.133   7.873
14133TIP3    H142342   5.927   6.051   7.874
14133TIP3    H242343   5.962   6.170   7.960
14134TIP3   OH242344   5.814   5.343   7.071
14134TIP3    H142345   5.880   5.409   7.041
14134TIP3    H242346   5.858   5.305   7.150
14135TIP3   OH242347   5.941   5.211   7.276
14135TIP3    H142348   5.874   5.169   7.333
14135TIP3    H242349   6.004   5.249   7.341
14136TIP3   OH242350   5.996   5.604   7.708
14136TIP3    H142351   6.046   5.537   7.657
14136TIP3    H242352   5.996   5.681   7.647
14137TIP3   OH242353   5.820   5.914   7.901
14137TIP3    H142354   5.750   5.948   7.960
14137TIP3    H242355   5.769   5.867   7.832
14138TIP3   OH242356   5.878   5.120   6.921
14138TIP3    H142357   5.806   5.121   6.854
14138TIP3    H242358   5.850   5.196   6.976
14139TIP3   OH242359   5.749   4.792   6.875
14139TIP3    H142360   5.704   4.829   6.798
14139TIP3    H242361   5.726   4.697   6.865
14140TIP3   OH242362   5.753   5.069   7.420
14140TIP3    H142363   5.761   4.973   7.413
14140TIP3    H242364   5.739   5.082   7.516
14141TIP3   OH242365   4.378   5.138   8.171
14141TIP3    H142366   4.376   5.107   8.078
14141TIP3    H242367   4.476   5.142   8.185
14142TIP3   OH242368   6.032   5.475   8.268
14142TIP3    H142369   6.116   5.435   8.296
14142TIP3    H242370   6.063   5.553   8.218
14143TIP3   OH242371   6.257   5.316   8.324
14143TIP3    H142372   6.172   5.269   8.341
14143TIP3    H242373   6.315   5.236   8.321
14144TIP3   OH242374   5.692   4.525   6.858
14144TIP3    H142375   5.764   4.493   6.916
14144TIP3    H242376   5.617   4.468   6.881
14145TIP3   OH242377   5.751   4.786   7.314
14145TIP3    H142378   5.792   4.698   7.329
14145TIP3    H242379   5.808   4.819   7.242
14146TIP3   OH242380   5.910   4.955   7.811
14146TIP3    H142381   5.996   4.981   7.769
14146TIP3    H242382   5.924   4.995   7.899
14147TIP3   OH242383   5.980   5.104   8.039
14147TIP3    H142384   5.904   5.135   8.092
14147TIP3    H242385   6.012   5.187   7.999
14148TIP3   OH242386   5.859   4.536   7.353
14148TIP3    H142387   5.907   4.518   7.437
14148TIP3    H242388   5.798   4.459   7.351
14149TIP3   OH242389   4.560   4.523   8.178
14149TIP3    H142390   4.621   4.447   8.182
14149TIP3    H242391   4.623   4.596   8.164
14150TIP3   OH242392   4.364   4.793   8.251
14150TIP3    H142393   4.410   4.786   8.165
14150TIP3    H242394   4.384   4.884   8.276
14151TIP3   OH242395   6.289   4.834   8.412
14151TIP3    H142396   6.196   4.860   8.397
14151TIP3    H242397   6.293   4.751   8.363
14152TIP3   OH242398   5.938   4.467   6.988
14152TIP3    H142399   5.977   4.397   6.932
14152TIP3    H242400   6.004   4.538   6.982
14153TIP3   OH242401   4.345   4.306   7.754
14153TIP3    H142402   4.251   4.293   7.774
14153TIP3    H242403   4.341   4.358   7.671
14154TIP3   OH242404   5.503   5.999   7.253
14154TIP3    H142405   5.557   5.990   7.171
14154TIP3    H242406   5.550   6.068   7.301
14155TIP3   OH242407   4.580   4.418   8.535
14155TIP3    H142408   4.533   4.359   8.595
14155TIP3    H242409   4.505   4.450   8.479
14156TIP3   OH242410   4.600   5.817   8.647
14156TIP3    H142411   4.512   5.791   8.615
14156TIP3    H242412   4.609   5.763   8.725
14157TIP3   OH242413   4.784   5.840   8.183
14157TIP3    H142414   4.737   5.917   8.145
14157TIP3    H242415   4.870   5.853   8.139
14158TIP3   OH242416   5.240   6.083   8.332
14158TIP3    H142417   5.296   6.063   8.408
14158TIP3    H242418   5.302   6.134   8.277
14159TIP3   OH242419   5.432   6.230   8.196
14159TIP3    H142420   5.489   6.171   8.142
14159TIP3    H242421   5.472   6.316   8.179
14160TIP3   OH242422   6.203   4.593   8.277
14160TIP3    H142423   6.114   4.589   8.239
14160TIP3    H242424   6.235   4.501   8.264
14161TIP3   OH242425   4.459   6.090   8.213
14161TIP3    H142426   4.369   6.123   8.188
14161TIP3    H242427   4.472   6.139   8.295
14162TIP3   OH242428   4.696   6.075   8.069
14162TIP3    H142429   4.609   6.087   8.113
14162TIP3    H242430   4.678   6.109   7.980
14163TIP3   OH242431   5.119   6.101   7.867
14163TIP3    H142432   5.051   6.119   7.799
14163TIP3    H242433   5.132   6.190   7.905
14164TIP3   OH242434   5.387   6.041   7.920
14164TIP3    H142435   5.294   6.059   7.896
14164TIP3    H242436   5.434   6.110   7.870
14165TIP3   OH242437   5.591   6.225   7.828
14165TIP3    H142438   5.576   6.311   7.782
14165TIP3    H242439   5.617   6.167   7.753
14166TIP3   OH242440   4.370   5.886   7.949
14166TIP3    H142441   4.393   5.860   8.041
14166TIP3    H242442   4.446   5.845   7.902
14167TIP3   OH242443   4.568   5.761   7.809
14167TIP3    H142444   4.582   5.678   7.860
14167TIP3    H242445   4.659   5.798   7.809
14168TIP3   OH242446   4.831   5.852   7.818
14168TIP3    H142447   4.863   5.761   7.806
14168TIP3    H242448   4.879   5.876   7.900
14169TIP3   OH242449   5.409   4.511   7.906
14169TIP3    H142450   5.366   4.439   7.954
14169TIP3    H242451   5.480   4.465   7.858
14170TIP3   OH242452   5.927   4.393   7.807
14170TIP3    H142453   5.964   4.444   7.732
14170TIP3    H242454   5.832   4.411   7.799
14171TIP3   OH242455   6.024   4.489   7.571
14171TIP3    H142456   6.097   4.438   7.531
14171TIP3    H242457   6.057   4.581   7.556
14172TIP3   OH242458   4.655   4.218   7.919
14172TIP3    H142459   4.562   4.187   7.919
14172TIP3    H242460   4.702   4.133   7.913
14173TIP3   OH242461   4.447   4.089   7.567
14173TIP3    H142462   4.476   4.144   7.492
14173TIP3    H242463   4.414   4.155   7.629
14174TIP3   OH242464   5.102   4.250   7.798
14174TIP3    H142465   5.158   4.298   7.735
14174TIP3    H242466   5.128   4.290   7.882
14175TIP3   OH242467   5.643   4.399   7.782
14175TIP3    H142468   5.644   4.360   7.693
14175TIP3    H242469   5.633   4.319   7.838
14176TIP3   OH242470   5.676   4.323   7.345
14176TIP3    H142471   5.590   4.366   7.359
14176TIP3    H242472   5.662   4.237   7.389
14177TIP3   OH242473   4.082   5.704   7.294
14177TIP3    H142474   4.056   5.628   7.349
14177TIP3    H242475   4.120   5.761   7.363
14178TIP3   OH242476   4.561   4.247   7.331
14178TIP3    H142477   4.606   4.183   7.273
14178TIP3    H242478   4.636   4.299   7.364
14179TIP3   OH242479   5.070   4.426   7.427
14179TIP3    H142480   5.130   4.378   7.486
14179TIP3    H242481   5.092   4.518   7.452
14180TIP3   OH242482   4.932   5.845   6.929
14180TIP3    H142483   5.019   5.869   6.891
14180TIP3    H242484   4.910   5.771   6.868
14181TIP3   OH242485   5.652   5.969   7.021
14181TIP3    H142486   5.644   5.871   7.009
14181TIP3    H242487   5.605   6.001   6.941
14182TIP3   OH242488   7.132   5.489   6.975
14182TIP3    H142489   7.097   5.577   6.949
14182TIP3    H242490   7.062   5.432   6.938
14183TIP3   OH242491   7.110   5.477   7.390
14183TIP3    H142492   7.182   5.420   7.419
14183TIP3    H242493   7.085   5.432   7.308
14184TIP3   OH242494   6.437   5.348   7.700
14184TIP3    H142495   6.465   5.286   7.769
14184TIP3    H242496   6.508   5.413   7.705
14185TIP3   OH242497   6.416   5.790   7.443
14185TIP3    H142498   6.403   5.693   7.447
14185TIP3    H242499   6.512   5.793   7.432
14186TIP3   OH242500   6.119   4.992   7.226
14186TIP3    H142501   6.069   5.074   7.244
14186TIP3    H242502   6.050   4.938   7.184
14187TIP3   OH242503   6.179   5.279   7.404
14187TIP3    H142504   6.228   5.201   7.440
14187TIP3    H242505   6.232   5.302   7.327
14188TIP3   OH242506   6.911   5.700   7.341
14188TIP3    H142507   6.925   5.607   7.316
14188TIP3    H242508   6.999   5.722   7.374
14189TIP3   OH242509   7.326   5.199   7.425
14189TIP3    H142510   7.367   5.110   7.430
14189TIP3    H242511   7.301   5.199   7.330
14190TIP3   OH242512   6.694   4.871   7.398
14190TIP3    H142513   6.673   4.943   7.336
14190TIP3    H242514   6.645   4.797   7.356
14191TIP3   OH242515   7.388   4.964   7.021
14191TIP3    H142516   7.459   4.942   7.086
14191TIP3    H242517   7.442   4.999   6.948
14192TIP3   OH242518   6.323   5.071   7.507
14192TIP3    H142519   6.406   5.053   7.555
14192TIP3    H242520   6.337   5.015   7.428
14193TIP3   OH242521   6.765   5.269   7.295
14193TIP3    H142522   6.858   5.240   7.313
14193TIP3    H242523   6.725   5.185   7.265
14194TIP3   OH242524   6.685   4.852   7.834
14194TIP3    H142525   6.625   4.889   7.767
14194TIP3    H242526   6.633   4.870   7.915
14195TIP3   OH242527   7.043   5.714   6.844
14195TIP3    H142528   7.012   5.690   6.756
14195TIP3    H242529   6.992   5.796   6.859
14196TIP3   OH242530   6.788   5.621   7.592
14196TIP3    H142531   6.728   5.673   7.649
14196TIP3    H242532   6.826   5.690   7.536
14197TIP3   OH242533   7.591   4.944   7.203
14197TIP3    H142534   7.551   4.915   7.287
14197TIP3    H242535   7.638   5.024   7.231
14198TIP3   OH242536   6.557   4.967   7.616
14198TIP3    H142537   6.620   5.038   7.641
14198TIP3    H242538   6.607   4.926   7.542
14199TIP3   OH242539   6.014   5.514   6.963
14199TIP3    H142540   5.973   5.539   6.878
14199TIP3    H242541   6.044   5.602   6.997
14200TIP3   OH242542   7.035   4.570   7.544
14200TIP3    H142543   7.023   4.475   7.565
14200TIP3    H242544   6.959   4.608   7.593
14201TIP3   OH242545   6.976   5.341   6.804
14201TIP3    H142546   6.893   5.388   6.782
14201TIP3    H242547   7.017   5.332   6.716
14202TIP3   OH242548   6.934   5.121   6.522
14202TIP3    H142549   7.004   5.172   6.566
14202TIP3    H242550   6.989   5.058   6.471
14203TIP3   OH242551   7.336   5.456   6.801
14203TIP3    H142552   7.266   5.441   6.868
14203TIP3    H242553   7.405   5.391   6.830
14204TIP3   OH242554   6.553   5.416   7.192
14204TIP3    H142555   6.509   5.358   7.126
14204TIP3    H242556   6.629   5.361   7.220
14205TIP3   OH242557   6.678   5.839   7.321
14205TIP3    H142558   6.635   5.811   7.237
14205TIP3    H242559   6.758   5.781   7.322
14206TIP3   OH242560   6.698   5.370   7.543
14206TIP3    H142561   6.722   5.346   7.452
14206TIP3    H242562   6.738   5.460   7.552
14207TIP3   OH242563   7.164   5.283   6.605
14207TIP3    H142564   7.225   5.345   6.647
14207TIP3    H242565   7.186   5.298   6.510
14208TIP3   OH242566   6.514   5.533   7.913
14208TIP3    H142567   6.451   5.598   7.878
14208TIP3    H242568   6.455   5.475   7.964
14209TIP3   OH242569   6.910   5.955   6.858
14209TIP3    H142570   6.965   6.010   6.917
14209TIP3    H242571   6.845   6.018   6.824
14210TIP3   OH242572   7.678   4.515   6.653
14210TIP3    H142573   7.595   4.538   6.701
14210TIP3    H242574   7.692   4.596   6.599
14211TIP3   OH242575   6.417   5.261   7.001
14211TIP3    H142576   6.350   5.304   6.944
14211TIP3    H242577   6.381   5.172   7.008
14212TIP3   OH242578   7.476   5.894   6.207
14212TIP3    H142579   7.491   5.991   6.202
14212TIP3    H242580   7.564   5.860   6.180
14213TIP3   OH242581   6.218   5.630   7.882
14213TIP3    H142582   6.143   5.619   7.821
14213TIP3    H242583   6.229   5.540   7.918
14214TIP3   OH242584   6.055   5.833   7.553
14214TIP3    H142585   6.144   5.846   7.518
14214TIP3    H242586   6.024   5.923   7.572
14215TIP3   OH242587   6.797   6.206   6.679
14215TIP3    H142588   6.739   6.195   6.602
14215TIP3    H242589   6.773   6.296   6.711
14216TIP3   OH242590   6.221   6.048   7.056
14216TIP3    H142591   6.262   6.038   7.145
14216TIP3    H242592   6.163   5.970   7.054
14217TIP3   OH242593   6.991   6.106   6.319
14217TIP3    H142594   7.045   6.034   6.281
14217TIP3    H242595   7.031   6.118   6.406
14218TIP3   OH242596   7.047   6.135   6.602
14218TIP3    H142597   6.960   6.177   6.623
14218TIP3    H242598   7.030   6.046   6.636
14219TIP3   OH242599   6.803   4.649   7.681
14219TIP3    H142600   6.715   4.618   7.652
14219TIP3    H242601   6.776   4.729   7.729
14220TIP3   OH242602   7.329   4.750   7.855
14220TIP3    H142603   7.392   4.776   7.924
14220TIP3    H242604   7.244   4.747   7.902
14221TIP3   OH242605   7.240   5.327   6.352
14221TIP3    H142606   7.200   5.300   6.267
14221TIP3    H242607   7.325   5.363   6.321
14222TIP3   OH242608   6.948   4.695   6.649
14222TIP3    H142609   6.914   4.693   6.741
14222TIP3    H242610   6.908   4.613   6.615
14223TIP3   OH242611   6.740   5.153   7.695
14223TIP3    H142612   6.693   5.176   7.778
14223TIP3    H242613   6.722   5.234   7.641
14224TIP3   OH242614   6.619   5.052   7.210
14224TIP3    H142615   6.526   5.024   7.229
14224TIP3    H242616   6.632   5.011   7.122
14225TIP3   OH242617   7.108   5.137   6.934
14225TIP3    H142618   7.056   5.206   6.888
14225TIP3    H242619   7.164   5.102   6.861
14226TIP3   OH242620   7.254   5.160   7.167
14226TIP3    H142621   7.192   5.178   7.093
14226TIP3    H242622   7.299   5.082   7.128
14227TIP3   OH242623   6.566   5.187   7.908
14227TIP3    H142624   6.612   5.239   7.977
14227TIP3    H242625   6.546   5.105   7.957
14228TIP3   OH242626   6.605   4.671   6.616
14228TIP3    H142627   6.595   4.669   6.713
14228TIP3    H242628   6.527   4.723   6.590
14229TIP3   OH242629   6.148   4.714   7.487
14229TIP3    H142630   6.223   4.745   7.541
14229TIP3    H242631   6.188   4.682   7.405
14230TIP3   OH242632   6.115   4.695   7.005
14230TIP3    H142633   6.160   4.733   6.926
14230TIP3    H242634   6.054   4.768   7.026
14231TIP3   OH242635   6.949   4.870   7.269
14231TIP3    H142636   6.868   4.870   7.323
14231TIP3    H242637   7.018   4.868   7.337
14232TIP3   OH242638   6.382   4.930   7.278
14232TIP3    H142639   6.287   4.936   7.250
14232TIP3    H242640   6.405   4.838   7.256
14233TIP3   OH242641   6.648   4.925   6.970
14233TIP3    H142642   6.742   4.939   6.948
14233TIP3    H242643   6.601   4.947   6.886
14234TIP3   OH242644   7.401   4.936   7.435
14234TIP3    H142645   7.395   4.921   7.530
14234TIP3    H242646   7.335   4.872   7.402
14235TIP3   OH242647   6.496   4.961   6.746
14235TIP3    H142648   6.426   4.914   6.697
14235TIP3    H242649   6.548   4.997   6.671
14236TIP3   OH242650   7.019   5.187   7.363
14236TIP3    H142651   7.099   5.160   7.316
14236TIP3    H242652   7.036   5.155   7.453
14237TIP3   OH242653   6.550   4.688   7.251
14237TIP3    H142654   6.515   4.609   7.299
14237TIP3    H242655   6.596   4.646   7.177
14238TIP3   OH242656   7.009   5.098   7.656
14238TIP3    H142657   6.915   5.124   7.669
14238TIP3    H242658   7.052   5.133   7.735
14239TIP3   OH242659   6.743   5.489   6.756
14239TIP3    H142660   6.671   5.423   6.743
14239TIP3    H242661   6.722   5.522   6.847
14240TIP3   OH242662   7.202   4.793   6.630
14240TIP3    H142663   7.105   4.776   6.629
14240TIP3    H242664   7.207   4.890   6.639
14241TIP3   OH242665   7.270   5.051   6.724
14241TIP3    H142666   7.367   5.051   6.732
14241TIP3    H242667   7.254   5.124   6.661
14242TIP3   OH242668   6.444   5.517   7.431
14242TIP3    H142669   6.480   5.484   7.346
14242TIP3    H242670   6.466   5.444   7.491
14243TIP3   OH242671   6.894   5.640   6.583
14243TIP3    H142672   6.844   5.725   6.584
14243TIP3    H242673   6.836   5.584   6.641
14244TIP3   OH242674   6.307   5.401   8.057
14244TIP3    H142675   6.286   5.384   8.151
14244TIP3    H242676   6.231   5.359   8.013
14245TIP3   OH242677   7.710   5.138   6.555
14245TIP3    H142678   7.648   5.094   6.492
14245TIP3    H242679   7.707   5.227   6.514
14246TIP3   OH242680   7.360   5.941   6.456
14246TIP3    H142681   7.399   5.873   6.513
14246TIP3    H242682   7.403   5.921   6.371
14247TIP3   OH242683   6.538   5.822   7.068
14247TIP3    H142684   6.535   5.899   7.008
14247TIP3    H242685   6.445   5.795   7.066
14248TIP3   OH242686   6.103   5.118   6.761
14248TIP3    H142687   6.147   5.203   6.782
14248TIP3    H242688   6.025   5.123   6.821
14249TIP3   OH242689   6.675   5.584   7.002
14249TIP3    H142690   6.639   5.672   7.022
14249TIP3    H242691   6.636   5.530   7.074
14250TIP3   OH242692   6.463   6.054   6.912
14250TIP3    H142693   6.375   6.066   6.952
14250TIP3    H242694   6.497   6.146   6.913
14251TIP3   OH242695   7.172   5.684   6.369
14251TIP3    H142696   7.218   5.678   6.455
14251TIP3    H242697   7.083   5.652   6.392
14252TIP3   OH242698   7.497   6.172   6.197
14252TIP3    H142699   7.559   6.206   6.132
14252TIP3    H242700   7.415   6.216   6.169
14253TIP3   OH242701   6.526   4.933   8.049
14253TIP3    H142702   6.430   4.937   8.066
14253TIP3    H242703   6.556   4.875   8.121
14254TIP3   OH242704   7.335   5.648   6.616
14254TIP3    H142705   7.312   5.560   6.650
14254TIP3    H242706   7.424   5.629   6.576
14255TIP3   OH242707   6.266   6.032   7.693
14255TIP3    H142708   6.258   5.939   7.718
14255TIP3    H242709   6.223   6.077   7.767
14256TIP3   OH242710   6.536   5.665   6.365
14256TIP3    H142711   6.547   5.573   6.337
14256TIP3    H242712   6.513   5.654   6.459
14257TIP3   OH242713   6.478   5.671   6.637
14257TIP3    H142714   6.554   5.645   6.692
14257TIP3    H242715   6.481   5.769   6.644
14258TIP3   OH242716   6.214   5.364   6.842
14258TIP3    H142717   6.146   5.409   6.898
14258TIP3    H242718   6.226   5.432   6.773
14259TIP3   OH242719   7.247   4.749   6.903
14259TIP3    H142720   7.231   4.769   6.808
14259TIP3    H242721   7.287   4.832   6.935
14260TIP3   OH242722   6.748   5.869   6.586
14260TIP3    H142723   6.660   5.894   6.621
14260TIP3    H242724   6.759   5.940   6.521
14261TIP3   OH242725   6.931   4.933   7.000
14261TIP3    H142726   6.997   5.004   6.983
14261TIP3    H242727   6.938   4.924   7.098
14262TIP3   OH242728   7.076   4.653   7.101
14262TIP3    H142729   7.068   4.730   7.160
14262TIP3    H242730   7.139   4.688   7.033
14263TIP3   OH242731   6.492   5.943   6.656
14263TIP3    H142732   6.463   6.012   6.592
14263TIP3    H242733   6.476   5.989   6.741
14264TIP3   OH242734   6.589   4.657   6.893
14264TIP3    H142735   6.586   4.748   6.930
14264TIP3    H242736   6.686   4.640   6.900
14265TIP3   OH242737   7.541   5.263   7.169
14265TIP3    H142738   7.445   5.257   7.182
14265TIP3    H242739   7.574   5.242   7.258
14266TIP3   OH242740   6.208   5.569   6.646
14266TIP3    H142741   6.275   5.639   6.653
14266TIP3    H242742   6.251   5.512   6.579
14267TIP3   OH242743   6.150   4.847   6.781
14267TIP3    H142744   6.151   4.945   6.778
14267TIP3    H242745   6.070   4.827   6.732
14268TIP3   OH242746   6.540   4.568   7.651
14268TIP3    H142747   6.508   4.535   7.564
14268TIP3    H242748   6.528   4.490   7.708
14269TIP3   OH242749   6.074   5.784   7.031
14269TIP3    H142750   6.011   5.818   7.097
14269TIP3    H242751   6.041   5.828   6.949
14270TIP3   OH242752   6.699   5.868   6.276
14270TIP3    H142753   6.644   5.795   6.313
14270TIP3    H242754   6.773   5.817   6.238
14271TIP3   OH242755   7.133   5.909   6.190
14271TIP3    H142756   7.181   5.852   6.253
14271TIP3    H242757   7.189   5.903   6.109
14272TIP3   OH242758   6.343   5.384   6.499
14272TIP3    H142759   6.400   5.352   6.572
14272TIP3    H242760   6.409   5.389   6.427
14273TIP3   OH242761   6.860   5.585   6.310
14273TIP3    H142762   6.858   5.596   6.407
14273TIP3    H242763   6.861   5.487   6.303
14274TIP3   OH242764   6.553   5.290   6.721
14274TIP3    H142765   6.523   5.245   6.801
14274TIP3    H242766   6.589   5.216   6.668
14275TIP3   OH242767   6.833   5.339   7.928
14275TIP3    H142768   6.777   5.387   7.992
14275TIP3    H242769   6.833   5.397   7.852
14276TIP3   OH242770   6.654   5.086   6.560
14276TIP3    H142771   6.628   5.090   6.466
14276TIP3    H242772   6.752   5.089   6.552
14277TIP3   OH242773   7.469   5.416   6.229
14277TIP3    H142774   7.453   5.369   6.144
14277TIP3    H242775   7.439   5.506   6.203
14278TIP3   OH242776   2.013   0.226   3.188
14278TIP3    H142777   2.035   0.156   3.124
14278TIP3    H242778   1.986   0.299   3.128
14279TIP3   OH242779   6.945   4.919   7.878
14279TIP3    H142780   6.972   4.957   7.793
14279TIP3    H242781   6.849   4.902   7.863
14280TIP3   OH242782   7.079   4.699   7.972
14280TIP3    H142783   7.029   4.778   7.939
14280TIP3    H242784   7.014   4.628   7.952
14281TIP3   OH242785   6.646   5.029   8.363
14281TIP3    H142786   6.658   4.947   8.312
14281TIP3    H242787   6.706   5.014   8.437
14282TIP3   OH242788   7.176   4.697   8.231
14282TIP3    H142789   7.243   4.637   8.197
14282TIP3    H242790   7.124   4.709   8.148
14283TIP3   OH242791   6.461   6.142   6.466
14283TIP3    H142792   6.557   6.139   6.446
14283TIP3    H242793   6.431   6.195   6.390
14284TIP3   OH242794   5.939   5.527   6.683
14284TIP3    H142795   6.033   5.548   6.668
14284TIP3    H242796   5.932   5.439   6.640
14285TIP3   OH242797   5.855   6.141   7.094
14285TIP3    H142798   5.787   6.082   7.056
14285TIP3    H242799   5.899   6.079   7.156
14286TIP3   OH242800   5.985   5.975   7.271
14286TIP3    H142801   5.959   5.909   7.336
14286TIP3    H242802   6.035   6.039   7.326
14287TIP3   OH242803   7.591   5.589   6.569
14287TIP3    H142804   7.650   5.646   6.514
14287TIP3    H242805   7.655   5.552   6.632
14288TIP3   OH242806   7.735   5.453   6.755
14288TIP3    H142807   7.665   5.404   6.802
14288TIP3    H242808   7.741   5.531   6.814
14289TIP3   OH242809   7.666   5.372   6.414
14289TIP3    H142810   7.599   5.375   6.342
14289TIP3    H242811   7.638   5.450   6.466
14290TIP3   OH242812   7.538   5.051   6.365
14290TIP3    H142813   7.508   5.084   6.280
14290TIP3    H242814   7.515   4.955   6.356
14291TIP3   OH242815   7.541   5.304   6.894
14291TIP3    H142816   7.552   5.209   6.874
14291TIP3    H242817   7.555   5.303   6.992
14292TIP3   OH242818   6.171   5.395   7.652
14292TIP3    H142819   6.164   5.362   7.560
14292TIP3    H242820   6.269   5.388   7.664
14293TIP3   OH242821   7.488   4.784   6.351
14293TIP3    H142822   7.559   4.747   6.405
14293TIP3    H242823   7.412   4.725   6.367
14294TIP3   OH242824   7.550   5.042   6.794
14294TIP3    H142825   7.587   4.952   6.811
14294TIP3    H242826   7.607   5.070   6.720
14295TIP3   OH242827   6.381   5.074   8.312
14295TIP3    H142828   6.478   5.070   8.325
14295TIP3    H242829   6.354   4.996   8.366
14296TIP3   OH242830   7.652   4.792   6.841
14296TIP3    H142831   7.701   4.775   6.924
14296TIP3    H242832   7.591   4.715   6.838
14297TIP3   OH242833   6.355   4.777   7.661
14297TIP3    H142834   6.417   4.702   7.669
14297TIP3    H242835   6.417   4.851   7.652
14298TIP3   OH242836   6.155   5.051   7.731
14298TIP3    H142837   6.204   5.044   7.647
14298TIP3    H242838   6.188   5.135   7.765
14299TIP3   OH242839   7.738   4.721   6.479
14299TIP3    H142840   7.774   4.655   6.417
14299TIP3    H242841   7.801   4.796   6.468
14300TIP3   OH242842   6.142   4.555   7.235
14300TIP3    H142843   6.048   4.549   7.261
14300TIP3    H242844   6.137   4.613   7.156
14301TIP3   OH242845   6.362   4.629   8.045
14301TIP3    H142846   6.314   4.630   8.129
14301TIP3    H242847   6.295   4.670   7.986
14302TIP3   OH242848   6.148   6.123   7.441
14302TIP3    H142849   6.197   6.126   7.525
14302TIP3    H242850   6.221   6.091   7.383
14303TIP3   OH242851   6.341   6.007   7.295
14303TIP3    H142852   6.366   5.926   7.347
14303TIP3    H242853   6.429   6.048   7.280
14304TIP3   OH242854   6.589   6.108   7.271
14304TIP3    H142855   6.638   6.027   7.247
14304TIP3    H242856   6.658   6.162   7.311
14305TIP3   OH242857   7.195   4.753   7.383
14305TIP3    H142858   7.150   4.685   7.436
14305TIP3    H242859   7.267   4.701   7.340
14306TIP3   OH242860   7.726   4.647   7.287
14306TIP3    H142861   7.760   4.704   7.215
14306TIP3    H242862   7.632   4.673   7.289
14307TIP3   OH242863   7.824   4.749   7.053
14307TIP3    H142864   7.894   4.694   7.013
14307TIP3    H242865   7.867   4.837   7.049
14308TIP3   OH242866   6.451   4.475   7.404
14308TIP3    H142867   6.359   4.442   7.406
14308TIP3    H242868   6.500   4.390   7.400
14309TIP3   OH242869   6.242   4.347   7.055
14309TIP3    H142870   6.270   4.403   6.981
14309TIP3    H242871   6.212   4.413   7.120
14310TIP3   OH242872   6.897   4.507   7.285
14310TIP3    H142873   6.953   4.555   7.222
14310TIP3    H242874   6.925   4.545   7.370
14311TIP3   OH242875   7.437   4.652   7.268
14311TIP3    H142876   7.445   4.611   7.180
14311TIP3    H242877   7.429   4.572   7.326
14312TIP3   OH242878   7.472   4.579   6.832
14312TIP3    H142879   7.386   4.622   6.845
14312TIP3    H242880   7.457   4.493   6.877
14313TIP3   OH242881   5.955   5.921   6.831
14313TIP3    H142882   5.869   5.888   6.798
14313TIP3    H242883   5.947   6.014   6.806
14314TIP3   OH242884   6.357   4.504   6.816
14314TIP3    H142885   6.405   4.441   6.758
14314TIP3    H242886   6.431   4.558   6.851
14315TIP3   OH242887   6.866   4.682   6.915
14315TIP3    H142888   6.927   4.636   6.974
14315TIP3    H242889   6.887   4.775   6.939
14316TIP3   OH242890   6.729   6.102   6.412
14316TIP3    H142891   6.816   6.127   6.375
14316TIP3    H242892   6.707   6.028   6.352
14317TIP3   OH242893   7.441   6.207   6.473
14317TIP3    H142894   7.415   6.114   6.486
14317TIP3    H242895   7.492   6.198   6.391
14318TIP3   OH242896   6.649   4.748   8.279
14318TIP3    H142897   6.613   4.682   8.340
14318TIP3    H242898   6.743   4.747   8.307
14319TIP3   OH242899   6.900   4.735   8.385
14319TIP3    H142900   6.990   4.730   8.351
14319TIP3    H242901   6.907   4.700   8.475
14320TIP3   OH242902   6.030   5.939   6.468
14320TIP3    H142903   6.033   5.966   6.561
14320TIP3    H242904   6.119   5.897   6.456
14321TIP3   OH242905   7.906   5.245   6.726
14321TIP3    H142906   7.854   5.328   6.724
14321TIP3    H242907   7.848   5.190   6.670
14322TIP3   OH242908   7.746   5.733   6.406
14322TIP3    H142909   7.729   5.764   6.315
14322TIP3    H242910   7.739   5.816   6.457
14323TIP3   OH242911   8.785   4.909   6.112
14323TIP3    H142912   8.729   4.985   6.130
14323TIP3    H242913   8.719   4.838   6.096
14324TIP3   OH242914   8.401   4.925   6.109
14324TIP3    H142915   8.382   4.926   6.204
14324TIP3    H242916   8.327   4.981   6.075
14325TIP3   OH242917   7.976   4.961   6.979
14325TIP3    H142918   8.025   5.036   6.938
14325TIP3    H242919   7.961   4.910   6.897
14326TIP3   OH242920   7.912   4.947   6.498
14326TIP3    H142921   7.955   4.982   6.416
14326TIP3    H242922   7.850   5.021   6.513
14327TIP3   OH242923   8.129   5.119   6.830
14327TIP3    H142924   8.069   5.167   6.769
14327TIP3    H242925   8.194   5.080   6.768
14328TIP3   OH242926   8.487   5.153   6.423
14328TIP3    H142927   8.543   5.232   6.417
14328TIP3    H242928   8.419   5.175   6.356
14329TIP3   OH242929   8.284   5.198   6.249
14329TIP3    H142930   8.215   5.148   6.203
14329TIP3    H242931   8.292   5.270   6.183
14330TIP3   OH242932   8.344   4.952   6.730
14330TIP3    H142933   8.307   4.869   6.768
14330TIP3    H242934   8.379   4.922   6.645
14331TIP3   OH242935   7.882   5.351   6.242
14331TIP3    H142936   7.927   5.439   6.241
14331TIP3    H242937   7.812   5.366   6.308
14332TIP3   OH242938   8.351   5.882   5.813
14332TIP3    H142939   8.313   5.811   5.758
14332TIP3    H242940   8.420   5.829   5.856
14333TIP3   OH242941   7.951   5.611   6.272
14333TIP3    H142942   7.884   5.637   6.338
14333TIP3    H242943   8.016   5.682   6.285
14334TIP3   OH242944   8.369   4.902   6.386
14334TIP3    H142945   8.383   4.997   6.404
14334TIP3    H242946   8.461   4.871   6.393
14335TIP3   OH242947   7.984   5.882   6.103
14335TIP3    H142948   8.020   5.864   6.191
14335TIP3    H242949   8.040   5.824   6.046
14336TIP3   OH242950   7.947   5.089   6.270
14336TIP3    H142951   7.951   5.187   6.265
14336TIP3    H242952   7.877   5.071   6.207
14337TIP3   OH242953   8.160   5.715   5.978
14337TIP3    H142954   8.166   5.624   6.016
14337TIP3    H242955   8.209   5.696   5.895
14338TIP3   OH242956   8.442   5.483   6.240
14338TIP3    H142957   8.390   5.452   6.317
14338TIP3    H242958   8.376   5.473   6.168
14339TIP3   OH242959   8.508   5.267   6.009
14339TIP3    H142960   8.422   5.299   5.977
14339TIP3    H242961   8.528   5.331   6.078
14340TIP3   OH242962   7.723   5.791   6.134
14340TIP3    H142963   7.816   5.820   6.124
14340TIP3    H242964   7.728   5.699   6.101
14341TIP3   OH242965   7.927   4.829   6.741
14341TIP3    H142966   7.832   4.808   6.745
14341TIP3    H242967   7.933   4.877   6.656
14342TIP3   OH242968   8.250   4.742   6.894
14342TIP3    H142969   8.157   4.714   6.897
14342TIP3    H242970   8.295   4.655   6.898
14343TIP3   OH242971   8.046   4.602   6.541
14343TIP3    H142972   8.071   4.655   6.463
14343TIP3    H242973   8.011   4.670   6.600
14344TIP3   OH242974   8.146   4.752   6.307
14344TIP3    H142975   8.196   4.696   6.245
14344TIP3    H242976   8.217   4.811   6.341
14345TIP3   OH242977   8.637   4.901   6.447
14345TIP3    H142978   8.705   4.866   6.506
14345TIP3    H242979   8.619   4.989   6.484
14346TIP3   OH242980   7.783   6.152   5.961
14346TIP3    H142981   7.812   6.229   6.013
14346TIP3    H242982   7.869   6.117   5.930
14347TIP3   OH242983   2.126   6.115   8.496
14347TIP3    H142984   2.151   6.141   8.586
14347TIP3    H242985   2.212   6.111   8.451
14348TIP3   OH242986   1.643   5.992   8.189
14348TIP3    H142987   1.700   5.999   8.268
14348TIP3    H242988   1.694   6.043   8.124
14349TIP3   OH242989   1.841   6.026   8.388
14349TIP3    H142990   1.839   5.944   8.439
14349TIP3    H242991   1.931   6.057   8.408
14350TIP3   OH242992   1.201   6.280   7.920
14350TIP3    H142993   1.110   6.318   7.924
14350TIP3    H242994   1.241   6.324   7.843
14351TIP3   OH242995   1.187   6.151   7.671
14351TIP3    H142996   1.240   6.174   7.749
14351TIP3    H242997   1.251   6.097   7.620
14352TIP3   OH242998   1.593   6.421   7.944
14352TIP3    H142999   1.574   6.488   8.013
14352TIP3    H243000   1.678   6.388   7.977
14353TIP3   OH243001   1.418   6.315   7.764
14353TIP3    H143002   1.488   6.365   7.811
14353TIP3    H243003   1.437   6.339   7.670
14354TIP3   OH243004   1.925   5.561   7.829
14354TIP3    H143005   1.843   5.581   7.878
14354TIP3    H243006   1.937   5.643   7.777
14355TIP3   OH243007   1.739   6.916   7.337
14355TIP3    H143008   1.744   7.012   7.345
14355TIP3    H243009   1.833   6.889   7.348
14356TIP3   OH243010   1.485   6.353   7.508
14356TIP3    H143011   1.455   6.333   7.418
14356TIP3    H243012   1.562   6.411   7.492
14357TIP3   OH243013   1.188   5.753   7.803
14357TIP3    H143014   1.173   5.748   7.901
14357TIP3    H243015   1.160   5.662   7.780
14358TIP3   OH243016   1.352   6.175   8.112
14358TIP3    H143017   1.298   6.207   8.037
14358TIP3    H243018   1.428   6.137   8.064
14359TIP3   OH243019   1.446   5.846   7.793
14359TIP3    H143020   1.349   5.829   7.798
14359TIP3    H243021   1.454   5.940   7.820
14360TIP3   OH243022   1.520   6.092   7.899
14360TIP3    H143023   1.617   6.100   7.910
14360TIP3    H243024   1.498   6.170   7.843
14361TIP3   OH243025   1.956   6.185   7.734
14361TIP3    H143026   1.897   6.139   7.670
14361TIP3    H243027   1.955   6.274   7.691
14362TIP3   OH243028   1.408   6.734   7.516
14362TIP3    H143029   1.458   6.687   7.587
14362TIP3    H243030   1.318   6.704   7.538
14363TIP3   OH243031   1.820   7.249   7.326
14363TIP3    H143032   1.796   7.297   7.243
14363TIP3    H243033   1.732   7.230   7.362
14364TIP3   OH243034   1.554   6.592   7.704
14364TIP3    H143035   1.556   6.551   7.792
14364TIP3    H243036   1.642   6.631   7.699
14365TIP3   OH243037   1.505   5.788   8.069
14365TIP3    H143038   1.484   5.816   7.977
14365TIP3    H243039   1.547   5.869   8.107
14366TIP3   OH243040   1.194   5.968   8.197
14366TIP3    H143041   1.257   6.033   8.162
14366TIP3    H243042   1.185   5.995   8.289
14367TIP3   OH243043   1.345   5.688   8.271
14367TIP3    H143044   1.339   5.755   8.341
14367TIP3    H243045   1.395   5.736   8.201
14368TIP3   OH243046   1.386   6.959   7.349
14368TIP3    H143047   1.417   6.892   7.413
14368TIP3    H243048   1.443   6.943   7.271
14369TIP3   OH243049   1.125   6.640   7.487
14369TIP3    H143050   1.127   6.642   7.585
14369TIP3    H243051   1.106   6.545   7.473
14370TIP3   OH243052   0.938   6.164   7.793
14370TIP3    H143053   0.906   6.148   7.701
14370TIP3    H243054   1.033   6.150   7.775
14371TIP3   OH243055   1.726   6.458   7.401
14371TIP3    H143056   1.702   6.411   7.318
14371TIP3    H243057   1.692   6.548   7.378
14372TIP3   OH243058   1.864   6.646   7.732
14372TIP3    H143059   1.934   6.704   7.695
14372TIP3    H243060   1.914   6.598   7.803
14373TIP3   OH243061   1.980   6.503   7.930
14373TIP3    H143062   1.929   6.463   8.004
14373TIP3    H243063   2.059   6.540   7.977
14374TIP3   OH243064   1.923   6.418   7.583
14374TIP3    H143065   1.852   6.419   7.515
14374TIP3    H243066   1.894   6.495   7.637
14375TIP3   OH243067   1.793   6.093   7.538
14375TIP3    H143068   1.747   6.129   7.461
14375TIP3    H243069   1.771   5.997   7.529
14376TIP3   OH243070   1.811   6.347   8.104
14376TIP3    H143071   1.820   6.254   8.074
14376TIP3    H243072   1.763   6.337   8.187
14377TIP3   OH243073   1.737   5.827   7.523
14377TIP3    H143074   1.810   5.795   7.579
14377TIP3    H243075   1.662   5.768   7.545
14378TIP3   OH243076   1.800   6.098   7.974
14378TIP3    H143077   1.832   6.005   7.987
14378TIP3    H243078   1.857   6.123   7.898
14379TIP3   OH243079   1.892   5.844   8.002
14379TIP3    H143080   1.948   5.826   8.081
14379TIP3    H243081   1.833   5.766   8.005
14380TIP3   OH243082   1.983   5.768   7.651
14380TIP3    H143083   2.022   5.698   7.596
14380TIP3    H243084   2.049   5.840   7.645
14381TIP3   OH243085   1.992   5.695   8.421
14381TIP3    H143086   2.031   5.741   8.343
14381TIP3    H243087   1.897   5.692   8.397
14382TIP3   OH243088   2.077   5.811   8.196
14382TIP3    H143089   2.150   5.755   8.162
14382TIP3    H243090   2.115   5.901   8.187
14383TIP3   OH243091   1.731   5.668   8.391
14383TIP3    H143092   1.663   5.668   8.323
14383TIP3    H243093   1.704   5.592   8.445
14384TIP3   OH243094   1.721   5.625   8.007
14384TIP3    H143095   1.635   5.670   8.023
14384TIP3    H243096   1.704   5.538   8.050
14385TIP3   OH243097   1.156   5.730   8.069
14385TIP3    H143098   1.195   5.684   8.145
14385TIP3    H243099   1.146   5.820   8.108
14386TIP3   OH243100   3.185   6.784   7.640
14386TIP3    H143101   3.156   6.875   7.618
14386TIP3    H243102   3.110   6.734   7.604
14387TIP3   OH243103   3.197   6.769   8.008
14387TIP3    H143104   3.219   6.751   8.101
14387TIP3    H243105   3.153   6.686   7.982
14388TIP3   OH243106   3.431   7.087   7.697
14388TIP3    H143107   3.417   7.018   7.763
14388TIP3    H243108   3.467   7.160   7.750
14389TIP3   OH243109   2.167   6.281   7.889
14389TIP3    H143110   2.133   6.370   7.907
14389TIP3    H243111   2.090   6.239   7.847
14390TIP3   OH243112   2.226   6.572   8.029
14390TIP3    H143113   2.278   6.516   8.089
14390TIP3    H243114   2.283   6.650   8.023
14391TIP3   OH243115   3.086   7.529   7.724
14391TIP3    H143116   3.130   7.470   7.658
14391TIP3    H243117   3.113   7.485   7.806
14392TIP3   OH243118   3.017   6.974   8.045
14392TIP3    H143119   3.064   6.900   8.003
14392TIP3    H243120   3.095   7.024   8.078
14393TIP3   OH243121   4.000   6.328   8.066
14393TIP3    H143122   4.027   6.412   8.107
14393TIP3    H243123   4.020   6.346   7.972
14394TIP3   OH243124   3.391   6.512   8.103
14394TIP3    H143125   3.440   6.430   8.119
14394TIP3    H243126   3.365   6.500   8.009
14395TIP3   OH243127   2.737   6.170   8.063
14395TIP3    H143128   2.718   6.242   7.999
14395TIP3    H243129   2.690   6.096   8.018
14396TIP3   OH243130   3.438   6.266   7.677
14396TIP3    H143131   3.510   6.253   7.743
14396TIP3    H243132   3.493   6.301   7.603
14397TIP3   OH243133   2.384   6.388   8.169
14397TIP3    H143134   2.466   6.354   8.210
14397TIP3    H243135   2.386   6.338   8.085
14398TIP3   OH243136   2.809   6.562   7.974
14398TIP3    H143137   2.905   6.540   7.978
14398TIP3    H243138   2.771   6.480   7.935
14399TIP3   OH243139   4.072   6.535   8.240
14399TIP3    H143140   3.990   6.585   8.222
14399TIP3    H243141   4.106   6.581   8.319
14400TIP3   OH243142   2.745   6.147   8.491
14400TIP3    H143143   2.679   6.187   8.432
14400TIP3    H243144   2.700   6.146   8.577
14401TIP3   OH243145   3.075   7.002   7.507
14401TIP3    H143146   3.038   6.987   7.419
14401TIP3    H243147   3.032   7.087   7.531
14402TIP3   OH243148   3.636   6.262   7.864
14402TIP3    H143149   3.633   6.224   7.952
14402TIP3    H243150   3.692   6.341   7.878
14403TIP3   OH243151   2.606   6.264   8.282
14403TIP3    H143152   2.668   6.338   8.302
14403TIP3    H243153   2.653   6.223   8.206
14404TIP3   OH243154   2.056   6.811   7.625
14404TIP3    H143155   2.030   6.838   7.535
14404TIP3    H243156   2.112   6.885   7.656
14405TIP3   OH243157   3.515   7.319   7.850
14405TIP3    H143158   3.427   7.306   7.891
14405TIP3    H243159   3.502   7.408   7.809
14406TIP3   OH243160   3.792   6.225   8.228
14406TIP3    H143161   3.705   6.256   8.196
14406TIP3    H243162   3.853   6.260   8.160
14407TIP3   OH243163   3.090   5.867   8.214
14407TIP3    H143164   3.075   5.772   8.231
14407TIP3    H243165   3.012   5.906   8.258
14408TIP3   OH243166   3.204   7.376   7.531
14408TIP3    H143167   3.252   7.292   7.513
14408TIP3    H243168   3.268   7.440   7.493
14409TIP3   OH243169   3.345   7.158   7.445
14409TIP3    H143170   3.319   7.075   7.403
14409TIP3    H243171   3.381   7.125   7.531
14410TIP3   OH243172   3.723   7.250   8.169
14410TIP3    H143173   3.716   7.158   8.135
14410TIP3    H243174   3.741   7.300   8.087
14411TIP3   OH243175   3.019   6.636   7.469
14411TIP3    H143176   2.940   6.689   7.445
14411TIP3    H243177   3.069   6.634   7.385
14412TIP3   OH243178   2.975   6.426   7.180
14412TIP3    H143179   3.042   6.475   7.231
14412TIP3    H243180   3.033   6.362   7.134
14413TIP3   OH243181   3.928   6.878   8.056
14413TIP3    H143182   3.843   6.927   8.064
14413TIP3    H243183   3.953   6.902   7.964
14414TIP3   OH243184   3.360   6.722   7.437
14414TIP3    H143185   3.309   6.745   7.518
14414TIP3    H243186   3.446   6.699   7.478
14415TIP3   OH243187   3.594   6.730   8.334
14415TIP3    H143188   3.608   6.809   8.391
14415TIP3    H243189   3.517   6.759   8.282
14416TIP3   OH243190   2.604   6.711   7.853
14416TIP3    H143191   2.559   6.655   7.786
14416TIP3    H243192   2.677   6.653   7.883
14417TIP3   OH243193   2.772   7.086   8.033
14417TIP3    H143194   2.726   7.028   7.971
14417TIP3    H243195   2.864   7.051   8.027
14418TIP3   OH243196   2.750   6.698   8.204
14418TIP3    H143197   2.772   6.657   8.117
14418TIP3    H243198   2.837   6.734   8.230
14419TIP3   OH243199   3.271   7.294   7.964
14419TIP3    H143200   3.274   7.355   8.041
14419TIP3    H243201   3.255   7.208   8.008
14420TIP3   OH243202   3.202   6.578   7.266
14420TIP3    H143203   3.264   6.634   7.318
14420TIP3    H243204   3.229   6.600   7.174
14421TIP3   OH243205   2.953   7.251   7.534
14421TIP3    H143206   3.032   7.304   7.553
14421TIP3    H243207   2.887   7.317   7.510
14422TIP3   OH243208   3.725   5.809   7.304
14422TIP3    H143209   3.645   5.830   7.356
14422TIP3    H243210   3.747   5.897   7.269
14423TIP3   OH243211   2.470   6.557   7.655
14423TIP3    H143212   2.400   6.603   7.604
14423TIP3    H243213   2.426   6.474   7.677
14424TIP3   OH243214   3.522   7.184   6.864
14424TIP3    H143215   3.531   7.280   6.848
14424TIP3    H243216   3.614   7.154   6.850
14425TIP3   OH243217   2.839   7.503   7.331
14425TIP3    H143218   2.794   7.472   7.251
14425TIP3    H243219   2.798   7.589   7.347
14426TIP3   OH243220   3.030   7.402   6.983
14426TIP3    H143221   3.089   7.332   6.946
14426TIP3    H243222   3.068   7.413   7.073
14427TIP3   OH243223   3.090   7.447   7.252
14427TIP3    H143224   3.002   7.458   7.294
14427TIP3    H243225   3.140   7.405   7.324
14428TIP3   OH243226   3.874   6.716   8.524
14428TIP3    H143227   3.787   6.749   8.495
14428TIP3    H243228   3.870   6.621   8.504
14429TIP3   OH243229   2.850   5.945   8.332
14429TIP3    H143230   2.760   5.920   8.305
14429TIP3    H243231   2.830   6.028   8.379
14430TIP3   OH243232   3.386   6.074   8.529
14430TIP3    H143233   3.458   6.033   8.582
14430TIP3    H243234   3.304   6.043   8.575
14431TIP3   OH243235   3.616   6.486   8.461
14431TIP3    H143236   3.576   6.505   8.548
14431TIP3    H243237   3.602   6.570   8.413
14432TIP3   OH243238   3.271   6.618   7.006
14432TIP3    H143239   3.246   6.595   6.914
14432TIP3    H243240   3.358   6.660   6.990
14433TIP3   OH243241   2.993   6.000   7.312
14433TIP3    H143242   2.961   5.997   7.405
14433TIP3    H243243   2.956   5.916   7.279
14434TIP3   OH243244   2.777   6.466   8.355
14434TIP3    H143245   2.779   6.497   8.446
14434TIP3    H243246   2.763   6.549   8.304
14435TIP3   OH243247   2.665   6.351   7.874
14435TIP3    H143248   2.572   6.326   7.891
14435TIP3    H243249   2.677   6.311   7.785
14436TIP3   OH243250   3.157   6.433   7.599
14436TIP3    H143251   3.108   6.506   7.556
14436TIP3    H243252   3.221   6.408   7.529
14437TIP3   OH243253   3.311   6.461   7.841
14437TIP3    H143254   3.254   6.494   7.769
14437TIP3    H243255   3.349   6.384   7.794
14438TIP3   OH243256   2.649   5.971   7.279
14438TIP3    H143257   2.641   5.970   7.376
14438TIP3    H243258   2.571   6.025   7.255
14439TIP3   OH243259   2.204   6.040   8.141
14439TIP3    H143260   2.282   6.059   8.196
14439TIP3    H243261   2.241   6.004   8.059
14440TIP3   OH243262   2.160   5.995   7.668
14440TIP3    H143263   2.205   6.033   7.590
14440TIP3    H243264   2.101   6.070   7.690
14441TIP3   OH243265   3.303   6.710   8.263
14441TIP3    H143266   3.344   6.644   8.203
14441TIP3    H243267   3.281   6.651   8.338
14442TIP3   OH243268   2.996   6.172   7.934
14442TIP3    H143269   2.916   6.170   7.990
14442TIP3    H243270   3.067   6.167   8.000
14443TIP3   OH243271   2.427   6.230   7.946
14443TIP3    H143272   2.333   6.236   7.917
14443TIP3    H243273   2.452   6.140   7.919
14444TIP3   OH243274   2.692   6.224   7.633
14444TIP3    H143275   2.787   6.240   7.613
14444TIP3    H243276   2.647   6.248   7.550
14445TIP3   OH243277   3.485   6.252   8.147
14445TIP3    H143278   3.441   6.264   8.233
14445TIP3    H243279   3.423   6.192   8.102
14446TIP3   OH243280   2.540   6.259   7.408
14446TIP3    H143281   2.469   6.215   7.358
14446TIP3    H243282   2.593   6.297   7.335
14447TIP3   OH243283   3.078   6.500   8.028
14447TIP3    H143284   3.151   6.464   7.975
14447TIP3    H243285   3.090   6.454   8.113
14448TIP3   OH243286   2.595   5.988   7.913
14448TIP3    H143287   2.560   5.909   7.960
14448TIP3    H243288   2.643   5.948   7.840
14449TIP3   OH243289   3.053   6.395   8.317
14449TIP3    H143290   2.965   6.434   8.327
14449TIP3    H243291   3.110   6.454   8.370
14450TIP3   OH243292   2.789   6.786   7.410
14450TIP3    H143293   2.714   6.723   7.402
14450TIP3    H243294   2.779   6.814   7.505
14451TIP3   OH243295   3.691   7.013   8.038
14451TIP3    H143296   3.712   7.063   7.957
14451TIP3    H243297   3.603   6.975   8.017
14452TIP3   OH243298   3.248   6.104   7.279
14452TIP3    H143299   3.151   6.094   7.293
14452TIP3    H243300   3.267   6.196   7.306
14453TIP3   OH243301   3.331   6.348   7.374
14453TIP3    H143302   3.429   6.352   7.386
14453TIP3    H243303   3.315   6.431   7.326
14454TIP3   OH243304   2.464   6.750   8.083
14454TIP3    H143305   2.506   6.763   7.996
14454TIP3    H243306   2.536   6.708   8.132
14455TIP3   OH243307   2.932   6.938   7.235
14455TIP3    H143308   2.884   7.023   7.243
14455TIP3    H243309   2.880   6.882   7.296
14456TIP3   OH243310   3.976   7.248   8.276
14456TIP3    H143311   3.884   7.259   8.244
14456TIP3    H243312   4.023   7.236   8.191
14457TIP3   OH243313   3.456   7.259   7.127
14457TIP3    H143314   3.436   7.189   7.191
14457TIP3    H243315   3.472   7.211   7.044
14458TIP3   OH243316   3.451   6.887   7.964
14458TIP3    H143317   3.358   6.860   7.971
14458TIP3    H243318   3.488   6.807   7.920
14459TIP3   OH243319   2.574   7.064   7.669
14459TIP3    H143320   2.615   7.141   7.714
14459TIP3    H243321   2.486   7.063   7.708
14460TIP3   OH243322   2.146   6.419   7.422
14460TIP3    H143323   2.193   6.502   7.445
14460TIP3    H243324   2.070   6.424   7.483
14461TIP3   OH243325   2.741   6.855   7.664
14461TIP3    H143326   2.689   6.938   7.661
14461TIP3    H243327   2.699   6.811   7.741
14462TIP3   OH243328   3.259   7.076   8.129
14462TIP3    H143329   3.266   7.133   8.209
14462TIP3    H243330   3.343   7.028   8.132
14463TIP3   OH243331   3.216   6.988   7.032
14463TIP3    H143332   3.272   6.964   7.109
14463TIP3    H243333   3.129   6.960   7.064
14464TIP3   OH243334   3.555   7.459   6.845
14464TIP3    H143335   3.593   7.534   6.797
14464TIP3    H243336   3.474   7.503   6.879
14465TIP3   OH243337   3.373   6.922   7.247
14465TIP3    H143338   3.363   6.853   7.315
14465TIP3    H243339   3.471   6.920   7.236
14466TIP3   OH243340   2.575   6.969   7.030
14466TIP3    H143341   2.592   6.876   7.004
14466TIP3    H243342   2.560   6.959   7.126
14467TIP3   OH243343   2.522   6.976   7.303
14467TIP3    H143344   2.590   6.947   7.365
14467TIP3    H243345   2.526   7.074   7.315
14468TIP3   OH243346   2.259   6.661   7.505
14468TIP3    H143347   2.194   6.705   7.563
14468TIP3    H243348   2.277   6.731   7.440
14469TIP3   OH243349   3.400   6.319   8.408
14469TIP3    H143350   3.491   6.350   8.426
14469TIP3    H243351   3.396   6.232   8.454
14470TIP3   OH243352   3.293   6.053   7.563
14470TIP3    H143353   3.282   6.076   7.469
14470TIP3    H243354   3.337   6.134   7.598
14471TIP3   OH243355   2.788   7.166   7.246
14471TIP3    H143356   2.703   7.193   7.286
14471TIP3    H243357   2.807   7.242   7.190
14472TIP3   OH243358   2.974   6.234   7.663
14472TIP3    H143359   3.041   6.304   7.643
14472TIP3    H243360   2.984   6.227   7.761
14473TIP3   OH243361   3.232   6.547   8.473
14473TIP3    H143362   3.270   6.609   8.537
14473TIP3    H243363   3.297   6.473   8.471
14474TIP3   OH243364   3.122   5.956   7.763
14474TIP3    H143365   3.114   6.034   7.822
14474TIP3    H243366   3.184   5.992   7.695
14475TIP3   OH243367   2.534   7.251   7.320
14475TIP3    H143368   2.505   7.317   7.252
14475TIP3    H243369   2.533   7.307   7.400
14476TIP3   OH243370   2.635   5.958   7.555
14476TIP3    H143371   2.632   6.049   7.592
14476TIP3    H243372   2.731   5.941   7.563
14477TIP3   OH243373   3.885   6.444   8.458
14477TIP3    H143374   3.787   6.439   8.456
14477TIP3    H243375   3.907   6.420   8.367
14478TIP3   OH243376   3.539   6.645   7.849
14478TIP3    H143377   3.465   6.581   7.850
14478TIP3    H243378   3.611   6.594   7.892
14479TIP3   OH243379   2.260   6.873   7.311
14479TIP3    H143380   2.335   6.937   7.319
14479TIP3    H243381   2.300   6.814   7.243
14480TIP3   OH243382   2.194   6.148   7.444
14480TIP3    H143383   2.196   6.246   7.440
14480TIP3    H243384   2.113   6.128   7.396
14481TIP3   OH243385   3.514   7.582   7.772
14481TIP3    H143386   3.462   7.643   7.717
14481TIP3    H243387   3.602   7.623   7.763
14482TIP3   OH243388   2.577   5.881   8.312
14482TIP3    H143389   2.551   5.846   8.224
14482TIP3    H243390   2.570   5.800   8.367
14483TIP3   OH243391   2.741   7.169   6.938
14483TIP3    H143392   2.686   7.098   6.979
14483TIP3    H243393   2.818   7.117   6.910
14484TIP3   OH243394   3.176   7.207   6.853
14484TIP3    H143395   3.218   7.144   6.914
14484TIP3    H243396   3.236   7.205   6.776
14485TIP3   OH243397   2.389   6.684   7.165
14485TIP3    H143398   2.446   6.653   7.238
14485TIP3    H243399   2.456   6.690   7.093
14486TIP3   OH243400   2.897   6.884   6.967
14486TIP3    H143401   2.902   6.898   7.064
14486TIP3    H243402   2.898   6.786   6.964
14487TIP3   OH243403   3.509   7.094   8.304
14487TIP3    H143404   3.584   7.149   8.276
14487TIP3    H243405   3.449   7.160   8.340
14488TIP3   OH243406   2.588   6.593   7.380
14488TIP3    H143407   2.567   6.555   7.467
14488TIP3    H243408   2.629   6.517   7.334
14489TIP3   OH243409   2.698   6.387   7.225
14489TIP3    H143410   2.673   6.393   7.130
14489TIP3    H243411   2.796   6.392   7.218
14490TIP3   OH243412   3.501   6.714   6.889
14490TIP3    H143413   3.490   6.669   6.804
14490TIP3    H243414   3.473   6.805   6.865
14491TIP3   OH243415   2.932   6.439   8.684
14491TIP3    H143416   2.961   6.346   8.677
14491TIP3    H243417   3.011   6.486   8.656
14492TIP3   OH243418   3.008   6.211   8.529
14492TIP3    H143419   3.034   6.258   8.448
14492TIP3    H243420   2.913   6.194   8.513
14493TIP3   OH243421   2.995   6.768   8.355
14493TIP3    H143422   3.089   6.743   8.353
14493TIP3    H243423   3.001   6.861   8.377
14494TIP3   OH243424   3.644   6.935   8.496
14494TIP3    H143425   3.597   7.009   8.454
14494TIP3    H243426   3.736   6.968   8.486
14495TIP3   OH243427   3.141   5.984   8.611
14495TIP3    H143428   3.093   6.068   8.595
14495TIP3    H243429   3.067   5.921   8.611
14496TIP3   OH243430   3.496   6.452   8.718
14496TIP3    H143431   3.413   6.421   8.760
14496TIP3    H243432   3.553   6.376   8.736
14497TIP3   OH243433   2.511   7.461   7.138
14497TIP3    H143434   2.603   7.444   7.112
14497TIP3    H243435   2.478   7.501   7.056
14498TIP3   OH243436   1.997   6.824   7.351
14498TIP3    H143437   2.091   6.846   7.329
14498TIP3    H243438   1.986   6.738   7.305
14499TIP3   OH243439   3.744   7.730   7.752
14499TIP3    H143440   3.810   7.764   7.815
14499TIP3    H243441   3.799   7.723   7.672
14500TIP3   OH243442   3.649   6.910   7.227
14500TIP3    H143443   3.721   6.966   7.193
14500TIP3    H243444   3.695   6.866   7.303
14501TIP3   OH243445   3.785   6.776   7.421
14501TIP3    H143446   3.715   6.736   7.477
14501TIP3    H243447   3.850   6.805   7.488
14502TIP3   OH243448   3.834   7.161   7.853
14502TIP3    H143449   3.886   7.093   7.806
14502TIP3    H243450   3.822   7.230   7.785
14503TIP3   OH243451   3.730   7.449   7.970
14503TIP3    H143452   3.695   7.539   7.970
14503TIP3    H243453   3.660   7.401   7.919
14504TIP3   OH243454   3.728   6.707   7.047
14504TIP3    H143455   3.646   6.696   6.995
14504TIP3    H243456   3.694   6.758   7.122
14505TIP3   OH243457   3.595   6.344   6.990
14505TIP3    H143458   3.538   6.387   6.926
14505TIP3    H243459   3.562   6.253   6.991
14506TIP3   OH243460   3.592   6.656   7.570
14506TIP3    H143461   3.609   6.564   7.537
14506TIP3    H243462   3.584   6.642   7.666
14507TIP3   OH243463   3.882   7.011   8.383
14507TIP3    H143464   3.961   6.971   8.424
14507TIP3    H243465   3.915   7.099   8.356
14508TIP3   OH243466   4.095   6.865   8.477
14508TIP3    H143467   4.013   6.820   8.508
14508TIP3    H243468   4.153   6.786   8.469
14509TIP3   OH243469   3.540   6.068   7.003
14509TIP3    H143470   3.598   6.060   7.080
14509TIP3    H243471   3.455   6.034   7.036
14510TIP3   OH243472   3.753   6.512   7.963
14510TIP3    H143473   3.837   6.536   7.919
14510TIP3    H243474   3.770   6.553   8.050
14511TIP3   OH243475   3.827   6.658   8.192
14511TIP3    H143476   3.747   6.690   8.238
14511TIP3    H243477   3.859   6.740   8.150
14512TIP3   OH243478   3.743   6.032   7.488
14512TIP3    H143479   3.747   6.082   7.571
14512TIP3    H243480   3.652   5.997   7.492
14513TIP3   OH243481   2.395   6.090   8.339
14513TIP3    H143482   2.450   6.009   8.341
14513TIP3    H243483   2.464   6.156   8.318
14514TIP3   OH243484   2.217   6.379   8.390
14514TIP3    H143485   2.199   6.297   8.341
14514TIP3    H243486   2.286   6.416   8.333
14515TIP3   OH243487   4.129   6.391   8.569
14515TIP3    H143488   4.037   6.419   8.548
14515TIP3    H243489   4.134   6.310   8.518
14516TIP3   OH243490   3.815   6.016   7.119
14516TIP3    H143491   3.815   6.036   7.025
14516TIP3    H243492   3.840   6.104   7.156
14517TIP3   OH243493   2.185   5.862   7.901
14517TIP3    H143494   2.090   5.853   7.920
14517TIP3    H243495   2.184   5.917   7.820
14518TIP3   OH243496   3.357   7.559   7.404
14518TIP3    H143497   3.398   7.541   7.316
14518TIP3    H243498   3.415   7.627   7.438
14519TIP3   OH243499   4.043   6.153   8.425
14519TIP3    H143500   3.953   6.149   8.388
14519TIP3    H243501   4.073   6.060   8.413
14520TIP3   OH243502   3.245   6.068   8.053
14520TIP3    H143503   3.206   5.994   8.104
14520TIP3    H243504   3.321   6.025   8.008
14521TIP3   OH243505   3.765   5.945   7.961
14521TIP3    H143506   3.808   5.996   7.888
14521TIP3    H243507   3.672   5.972   7.951
14522TIP3   OH243508   3.882   6.042   7.739
14522TIP3    H143509   3.940   6.003   7.672
14522TIP3    H243510   3.902   6.137   7.723
14523TIP3   OH243511   2.496   5.778   8.067
14523TIP3    H143512   2.404   5.743   8.068
14523TIP3    H243513   2.546   5.693   8.064
14524TIP3   OH243514   2.285   5.648   7.718
14524TIP3    H143515   2.315   5.704   7.644
14524TIP3    H243516   2.258   5.715   7.784
14525TIP3   OH243517   2.941   5.811   7.949
14525TIP3    H143518   2.998   5.857   7.886
14525TIP3    H243519   2.973   5.846   8.034
14526TIP3   OH243520   3.480   5.959   7.936
14526TIP3    H143521   3.481   5.924   7.846
14526TIP3    H243522   3.471   5.876   7.989
14527TIP3   OH243523   3.510   5.873   7.489
14527TIP3    H143524   3.428   5.921   7.507
14527TIP3    H243525   3.494   5.789   7.537
14528TIP3   OH243526   2.403   5.806   7.479
14528TIP3    H143527   2.450   5.743   7.422
14528TIP3    H243528   2.476   5.860   7.514
14529TIP3   OH243529   2.911   5.983   7.577
14529TIP3    H143530   2.973   5.937   7.637
14529TIP3    H243531   2.932   6.076   7.602
14530TIP3   OH243532   2.772   7.403   7.076
14530TIP3    H143533   2.861   7.424   7.040
14530TIP3    H243534   2.750   7.327   7.017
14531TIP3   OH243535   3.493   7.525   7.168
14531TIP3    H143536   3.483   7.427   7.156
14531TIP3    H243537   3.448   7.557   7.087
14532TIP3   OH243538   2.081   7.235   7.125
14532TIP3    H143539   2.073   7.254   7.219
14532TIP3    H243540   2.171   7.196   7.117
14533TIP3   OH243541   4.982   7.041   7.122
14533TIP3    H143542   4.953   7.132   7.101
14533TIP3    H243543   4.907   6.991   7.087
14534TIP3   OH243544   4.958   7.035   7.512
14534TIP3    H143545   5.001   7.009   7.595
14534TIP3    H243546   4.923   6.950   7.481
14535TIP3   OH243547   4.279   6.936   7.871
14535TIP3    H143548   4.309   6.866   7.932
14535TIP3    H243549   4.359   6.991   7.865
14536TIP3   OH243550   5.230   7.334   7.193
14536TIP3    H143551   5.216   7.259   7.254
14536TIP3    H243552   5.235   7.406   7.257
14537TIP3   OH243553   4.249   7.347   7.595
14537TIP3    H143554   4.240   7.250   7.591
14537TIP3    H243555   4.344   7.354   7.612
14538TIP3   OH243556   3.936   6.528   7.378
14538TIP3    H143557   3.894   6.616   7.372
14538TIP3    H243558   3.858   6.475   7.404
14539TIP3   OH243559   4.019   6.838   7.559
14539TIP3    H143560   4.068   6.759   7.591
14539TIP3    H243561   4.074   6.865   7.484
14540TIP3   OH243562   4.856   7.800   7.201
14540TIP3    H143563   4.897   7.727   7.150
14540TIP3    H243564   4.900   7.788   7.288
14541TIP3   OH243565   4.776   7.268   7.547
14541TIP3    H143566   4.813   7.186   7.510
14541TIP3    H243567   4.859   7.316   7.565
14542TIP3   OH243568   5.731   6.559   7.497
14542TIP3    H143569   5.805   6.584   7.556
14542TIP3    H243570   5.770   6.577   7.411
14543TIP3   OH243571   5.190   6.769   7.584
14543TIP3    H143572   5.239   6.687   7.603
14543TIP3    H243573   5.161   6.752   7.492
14544TIP3   OH243574   4.535   6.429   7.550
14544TIP3    H143575   4.514   6.502   7.488
14544TIP3    H243576   4.486   6.356   7.506
14545TIP3   OH243577   5.229   6.520   7.173
14545TIP3    H143578   5.301   6.507   7.239
14545TIP3    H243579   5.280   6.556   7.098
14546TIP3   OH243580   4.165   6.628   7.659
14546TIP3    H143581   4.249   6.609   7.705
14546TIP3    H243582   4.177   6.574   7.578
14547TIP3   OH243583   4.605   6.827   7.451
14547TIP3    H143584   4.699   6.801   7.464
14547TIP3    H243585   4.566   6.743   7.419
14548TIP3   OH243586   4.528   6.412   7.986
14548TIP3    H143587   4.471   6.450   7.917
14548TIP3    H243588   4.475   6.431   8.066
14549TIP3   OH243589   4.872   7.263   6.993
14549TIP3    H143590   4.834   7.246   6.905
14549TIP3    H243591   4.826   7.345   7.017
14550TIP3   OH243592   4.635   7.186   7.777
14550TIP3    H143593   4.571   7.250   7.816
14550TIP3    H243594   4.675   7.239   7.705
14551TIP3   OH243595   5.436   6.523   7.349
14551TIP3    H143596   5.423   6.480   7.435
14551TIP3    H243597   5.498   6.594   7.372
14552TIP3   OH243598   4.401   6.526   7.768
14552TIP3    H143599   4.461   6.601   7.792
14552TIP3    H243600   4.452   6.488   7.693
14553TIP3   OH243601   4.445   7.366   7.858
14553TIP3    H143602   4.455   7.463   7.858
14553TIP3    H243603   4.376   7.358   7.926
14554TIP3   OH243604   3.856   7.072   7.113
14554TIP3    H143605   3.815   7.097   7.028
14554TIP3    H243606   3.888   7.157   7.147
14555TIP3   OH243607   5.563   6.466   7.700
14555TIP3    H143608   5.475   6.497   7.673
14555TIP3    H243609   5.620   6.502   7.629
14556TIP3   OH243610   4.883   6.128   7.701
14556TIP3    H143611   4.867   6.034   7.718
14556TIP3    H243612   4.806   6.168   7.747
14557TIP3   OH243613   4.991   7.629   7.031
14557TIP3    H143614   5.042   7.547   7.011
14557TIP3    H243615   5.050   7.693   6.986
14558TIP3   OH243616   5.141   7.417   6.943
14558TIP3    H143617   5.106   7.340   6.897
14558TIP3    H243618   5.176   7.377   7.026
14559TIP3   OH243619   4.813   6.893   6.956
14559TIP3    H143620   4.733   6.945   6.934
14559TIP3    H243621   4.859   6.891   6.870
14560TIP3   OH243622   4.773   6.679   6.670
14560TIP3    H143623   4.840   6.731   6.718
14560TIP3    H243624   4.830   6.616   6.622
14561TIP3   OH243625   5.162   6.977   6.925
14561TIP3    H143626   5.108   7.001   7.004
14561TIP3    H243627   5.246   6.951   6.968
14562TIP3   OH243628   4.393   6.972   7.344
14562TIP3    H143629   4.353   6.914   7.276
14562TIP3    H243630   4.470   6.919   7.373
14563TIP3   OH243631   4.530   7.403   7.491
14563TIP3    H143632   4.500   7.361   7.408
14563TIP3    H243633   4.614   7.356   7.506
14564TIP3   OH243634   4.529   6.944   7.697
14564TIP3    H143635   4.563   6.922   7.608
14564TIP3    H243636   4.573   7.030   7.717
14565TIP3   OH243637   5.001   6.834   6.753
14565TIP3    H143638   5.060   6.894   6.804
14565TIP3    H243639   5.027   6.856   6.661
14566TIP3   OH243640   4.421   7.052   8.124
14566TIP3    H143641   4.421   7.142   8.160
14566TIP3    H243642   4.327   7.028   8.134
14567TIP3   OH243643   4.742   7.508   7.030
14567TIP3    H143644   4.822   7.562   7.044
14567TIP3    H243645   4.683   7.570   6.985
14568TIP3   OH243646   5.518   6.073   6.803
14568TIP3    H143647   5.436   6.095   6.852
14568TIP3    H243648   5.532   6.155   6.751
14569TIP3   OH243649   4.261   6.815   7.148
14569TIP3    H143650   4.194   6.861   7.092
14569TIP3    H243651   4.219   6.730   7.160
14570TIP3   OH243652   5.317   7.441   6.352
14570TIP3    H143653   5.325   7.538   6.336
14570TIP3    H243654   5.409   7.412   6.337
14571TIP3   OH243655   4.064   7.191   8.023
14571TIP3    H143656   3.990   7.170   7.963
14571TIP3    H243657   4.097   7.103   8.047
14572TIP3   OH243658   3.891   7.397   7.681
14572TIP3    H143659   3.987   7.383   7.674
14572TIP3    H243660   3.882   7.449   7.762
14573TIP3   OH243661   4.625   7.755   6.832
14573TIP3    H143662   4.583   7.738   6.746
14573TIP3    H243663   4.596   7.846   6.853
14574TIP3   OH243664   4.063   7.605   7.214
14574TIP3    H143665   4.109   7.597   7.300
14574TIP3    H243666   4.016   7.520   7.210
14575TIP3   OH243667   4.828   7.660   6.469
14575TIP3    H143668   4.886   7.589   6.433
14575TIP3    H243669   4.861   7.668   6.561
14576TIP3   OH243670   4.878   7.709   6.736
14576TIP3    H143671   4.791   7.717   6.783
14576TIP3    H243672   4.934   7.673   6.807
14577TIP3   OH243673   4.246   7.392   8.044
14577TIP3    H143674   4.289   7.371   8.130
14577TIP3    H243675   4.177   7.322   8.039
14578TIP3   OH243676   4.646   6.206   7.831
14578TIP3    H143677   4.557   6.177   7.804
14578TIP3    H243678   4.622   6.289   7.876
14579TIP3   OH243679   5.174   6.321   8.027
14579TIP3    H143680   5.236   6.290   8.095
14579TIP3    H243681   5.087   6.305   8.069
14580TIP3   OH243682   5.080   6.877   6.498
14580TIP3    H143683   5.043   6.855   6.410
14580TIP3    H243684   5.162   6.923   6.473
14581TIP3   OH243685   4.790   6.254   6.800
14581TIP3    H143686   4.756   6.251   6.892
14581TIP3    H243687   4.750   6.171   6.766
14582TIP3   OH243688   4.576   6.722   7.844
14582TIP3    H143689   4.532   6.746   7.929
14582TIP3    H243690   4.561   6.804   7.792
14583TIP3   OH243691   4.458   6.607   7.362
14583TIP3    H143692   4.364   6.584   7.377
14583TIP3    H243693   4.471   6.567   7.273
14584TIP3   OH243694   4.950   6.693   7.089
14584TIP3    H143695   4.899   6.765   7.046
14584TIP3    H243696   5.006   6.661   7.015
14585TIP3   OH243697   5.101   6.717   7.329
14585TIP3    H143698   5.043   6.747   7.256
14585TIP3    H243699   5.140   6.639   7.284
14586TIP3   OH243700   4.393   6.750   8.054
14586TIP3    H143701   4.433   6.815   8.115
14586TIP3    H243702   4.384   6.671   8.110
14587TIP3   OH243703   4.444   6.225   6.767
14587TIP3    H143704   4.434   6.228   6.864
14587TIP3    H243705   4.369   6.281   6.738
14588TIP3   OH243706   3.987   6.271   7.653
14588TIP3    H143707   4.069   6.307   7.692
14588TIP3    H243708   4.009   6.254   7.560
14589TIP3   OH243709   3.936   6.262   7.163
14589TIP3    H143710   3.979   6.302   7.084
14589TIP3    H243711   3.884   6.338   7.195
14590TIP3   OH243712   5.089   6.962   7.748
14590TIP3    H143713   5.137   6.897   7.692
14590TIP3    H243714   5.066   6.905   7.824
14591TIP3   OH243715   4.791   6.424   7.421
14591TIP3    H143716   4.710   6.427   7.475
14591TIP3    H243717   4.860   6.429   7.489
14592TIP3   OH243718   4.211   6.490   7.425
14592TIP3    H143719   4.116   6.492   7.398
14592TIP3    H243720   4.236   6.398   7.404
14593TIP3   OH243721   4.489   6.480   7.120
14593TIP3    H143722   4.583   6.498   7.099
14593TIP3    H243723   4.442   6.504   7.037
14594TIP3   OH243724   5.279   6.505   7.624
14594TIP3    H143725   5.246   6.520   7.715
14594TIP3    H243726   5.209   6.448   7.588
14595TIP3   OH243727   4.339   6.515   6.896
14595TIP3    H143728   4.267   6.471   6.846
14595TIP3    H243729   4.390   6.554   6.822
14596TIP3   OH243730   4.386   7.300   8.272
14596TIP3    H143731   4.475   7.321   8.303
14596TIP3    H243732   4.351   7.245   8.344
14597TIP3   OH243733   4.871   6.756   7.516
14597TIP3    H143734   4.947   6.721   7.467
14597TIP3    H243735   4.880   6.713   7.603
14598TIP3   OH243736   4.393   6.248   7.401
14598TIP3    H143737   4.357   6.170   7.448
14598TIP3    H243738   4.436   6.208   7.325
14599TIP3   OH243739   4.842   6.650   7.807
14599TIP3    H143740   4.754   6.689   7.821
14599TIP3    H243741   4.901   6.711   7.857
14600TIP3   OH243742   4.583   7.045   6.903
14600TIP3    H143743   4.511   6.980   6.892
14600TIP3    H243744   4.564   7.080   6.994
14601TIP3   OH243745   5.042   6.355   6.774
14601TIP3    H143746   4.945   6.338   6.779
14601TIP3    H243747   5.051   6.450   6.793
14602TIP3   OH243748   5.110   6.606   6.872
14602TIP3    H143749   5.207   6.613   6.886
14602TIP3    H243750   5.091   6.686   6.819
14603TIP3   OH243751   4.277   7.072   7.578
14603TIP3    H143752   4.315   7.041   7.494
14603TIP3    H243753   4.318   7.011   7.642
14604TIP3   OH243754   4.732   7.195   6.730
14604TIP3    H143755   4.684   7.281   6.735
14604TIP3    H243756   4.677   7.139   6.788
14605TIP3   OH243757   4.160   6.981   8.189
14605TIP3    H143758   4.157   6.977   8.286
14605TIP3    H243759   4.080   6.929   8.165
14606TIP3   OH243760   5.552   6.699   6.705
14606TIP3    H143761   5.490   6.654   6.642
14606TIP3    H243762   5.548   6.788   6.664
14607TIP3   OH243763   5.256   7.527   6.614
14607TIP3    H143764   5.231   7.457   6.676
14607TIP3    H243765   5.268   7.477   6.531
14608TIP3   OH243766   5.191   7.171   7.422
14608TIP3    H143767   5.115   7.110   7.427
14608TIP3    H243768   5.266   7.110   7.416
14609TIP3   OH243769   4.379   7.375   7.211
14609TIP3    H143770   4.380   7.455   7.155
14609TIP3    H243771   4.285   7.354   7.212
14610TIP3   OH243772   3.955   6.676   6.906
14610TIP3    H143773   3.998   6.761   6.929
14610TIP3    H243774   3.873   6.685   6.961
14611TIP3   OH243775   4.510   7.137   7.148
14611TIP3    H143776   4.480   7.228   7.169
14611TIP3    H243777   4.476   7.087   7.224
14612TIP3   OH243778   4.295   7.612   7.057
14612TIP3    H143779   4.210   7.621   7.103
14612TIP3    H243780   4.327   7.705   7.060
14613TIP3   OH243781   5.042   7.328   7.631
14613TIP3    H143782   5.044   7.263   7.701
14613TIP3    H243783   5.100   7.287   7.563
14614TIP3   OH243784   5.012   7.246   6.516
14614TIP3    H143785   5.064   7.221   6.596
14614TIP3    H243786   4.924   7.216   6.543
14615TIP3   OH243787   5.346   7.717   6.331
14615TIP3    H143788   5.384   7.792   6.282
14615TIP3    H243789   5.263   7.758   6.362
14616TIP3   OH243790   4.369   6.491   8.202
14616TIP3    H143791   4.272   6.495   8.213
14616TIP3    H243792   4.394   6.430   8.273
14617TIP3   OH243793   5.171   7.179   6.734
14617TIP3    H143794   5.161   7.111   6.803
14617TIP3    H243795   5.268   7.176   6.719
14618TIP3   OH243796   4.113   7.593   7.857
14618TIP3    H143797   4.127   7.498   7.849
14618TIP3    H243798   4.179   7.611   7.925
14619TIP3   OH243799   4.373   7.226   6.518
14619TIP3    H143800   4.387   7.135   6.486
14619TIP3    H243801   4.353   7.211   6.612
14620TIP3   OH243802   4.317   7.229   6.792
14620TIP3    H143803   4.394   7.201   6.843
14620TIP3    H243804   4.323   7.327   6.797
14621TIP3   OH243805   4.058   6.922   6.992
14621TIP3    H143806   3.988   6.963   7.048
14621TIP3    H243807   4.069   6.992   6.925
14622TIP3   OH243808   5.213   6.556   7.884
14622TIP3    H143809   5.297   6.582   7.929
14622TIP3    H243810   5.190   6.476   7.934
14623TIP3   OH243811   5.089   6.306   7.052
14623TIP3    H143812   5.074   6.329   6.958
14623TIP3    H243813   5.129   6.389   7.087
14624TIP3   OH243814   4.587   7.422   6.740
14624TIP3    H143815   4.501   7.455   6.774
14624TIP3    H243816   4.600   7.480   6.664
14625TIP3   OH243817   4.773   6.490   7.151
14625TIP3    H143818   4.837   6.562   7.132
14625TIP3    H243819   4.780   6.482   7.248
14626TIP3   OH243820   5.027   6.794   7.957
14626TIP3    H143821   5.016   6.813   8.052
14626TIP3    H243822   5.102   6.732   7.960
14627TIP3   OH243823   4.917   6.211   7.251
14627TIP3    H143824   4.906   6.289   7.309
14627TIP3    H243825   4.980   6.247   7.184
14628TIP3   OH243826   4.331   7.502   6.805
14628TIP3    H143827   4.302   7.573   6.743
14628TIP3    H243828   4.316   7.545   6.892
14629TIP3   OH243829   4.429   6.214   7.044
14629TIP3    H143830   4.427   6.306   7.079
14629TIP3    H243831   4.526   6.198   7.050
14630TIP3   OH243832   5.327   6.904   7.315
14630TIP3    H143833   5.254   6.845   7.338
14630TIP3    H243834   5.401   6.868   7.369
14631TIP3   OH243835   4.050   7.129   6.796
14631TIP3    H143836   4.123   7.192   6.806
14631TIP3    H243837   4.090   7.069   6.729
14632TIP3   OH243838   3.987   6.404   6.934
14632TIP3    H143839   3.998   6.501   6.929
14632TIP3    H243840   3.896   6.394   6.903
14633TIP3   OH243841   4.384   6.126   7.802
14633TIP3    H143842   4.351   6.096   7.715
14633TIP3    H243843   4.370   6.047   7.858
14634TIP3   OH243844   3.920   7.352   7.182
14634TIP3    H143845   3.850   7.376   7.244
14634TIP3    H243846   3.886   7.391   7.099
14635TIP3   OH243847   4.543   7.429   6.436
14635TIP3    H143848   4.485   7.356   6.466
14635TIP3    H243849   4.612   7.379   6.388
14636TIP3   OH243850   4.976   7.467   6.341
14636TIP3    H143851   5.017   7.401   6.400
14636TIP3    H243852   5.032   7.463   6.262
14637TIP3   OH243853   4.183   6.942   6.650
14637TIP3    H143854   4.240   6.910   6.723
14637TIP3    H243855   4.250   6.946   6.578
14638TIP3   OH243856   4.699   7.142   6.459
14638TIP3    H143857   4.700   7.154   6.556
14638TIP3    H243858   4.699   7.044   6.454
14639TIP3   OH243859   4.369   7.053   8.449
14639TIP3    H143860   4.420   6.979   8.414
14639TIP3    H243861   4.326   7.013   8.526
14640TIP3   OH243862   4.390   6.849   6.869
14640TIP3    H143863   4.363   6.807   6.953
14640TIP3    H243864   4.427   6.773   6.819
14641TIP3   OH243865   4.653   6.898   8.091
14641TIP3    H143866   4.585   6.968   8.098
14641TIP3    H243867   4.716   6.941   8.029
14642TIP3   OH243868   4.494   6.643   6.711
14642TIP3    H143869   4.468   6.649   6.617
14642TIP3    H243870   4.592   6.648   6.702
14643TIP3   OH243871   5.314   6.971   6.377
14643TIP3    H143872   5.293   6.926   6.293
14643TIP3    H243873   5.281   7.062   6.355
14644TIP3   OH243874   4.771   6.696   8.229
14644TIP3    H143875   4.776   6.619   8.168
14644TIP3    H243876   4.730   6.764   8.171
14645TIP3   OH243877   4.787   6.485   8.032
14645TIP3    H143878   4.815   6.529   7.949
14645TIP3    H243879   4.693   6.464   8.013
14646TIP3   OH243880   4.809   7.015   7.902
14646TIP3    H143881   4.890   7.021   7.850
14646TIP3    H243882   4.752   7.084   7.861
14647TIP3   OH243883   4.642   6.824   8.443
14647TIP3    H143884   4.586   6.748   8.465
14647TIP3    H243885   4.692   6.788   8.367
14648TIP3   OH243886   4.920   6.256   8.117
14648TIP3    H143887   4.871   6.336   8.088
14648TIP3    H243888   4.854   6.186   8.099
14649TIP3   OH243889   5.042   6.756   8.241
14649TIP3    H143890   5.068   6.769   8.333
14649TIP3    H243891   4.948   6.731   8.250
14650TIP3   OH243892   4.499   6.591   8.504
14650TIP3    H143893   4.503   6.504   8.460
14650TIP3    H243894   4.538   6.571   8.590
14651TIP3   OH243895   5.004   6.248   8.387
14651TIP3    H143896   5.076   6.185   8.370
14651TIP3    H243897   4.970   6.260   8.295
14652TIP3   OH243898   4.302   7.706   6.617
14652TIP3    H143899   4.398   7.699   6.600
14652TIP3    H243900   4.273   7.748   6.534
14653TIP3   OH243901   3.780   7.087   6.830
14653TIP3    H143902   3.875   7.108   6.817
14653TIP3    H243903   3.775   6.997   6.791
14654TIP3   OH243904   3.693   7.698   7.250
14654TIP3    H143905   3.628   7.636   7.210
14654TIP3    H243906   3.737   7.639   7.314
14655TIP3   OH243907   3.825   7.547   7.438
14655TIP3    H143908   3.819   7.472   7.501
14655TIP3    H243909   3.887   7.604   7.487
14656TIP3   OH243910   5.449   7.158   6.709
14656TIP3    H143911   5.516   7.222   6.677
14656TIP3    H243912   5.495   7.121   6.787
14657TIP3   OH243913   5.578   7.029   6.913
14657TIP3    H143914   5.511   6.985   6.969
14657TIP3    H243915   5.640   7.065   6.980
14658TIP3   OH243916   5.515   6.934   6.559
14658TIP3    H143917   5.443   6.936   6.491
14658TIP3    H243918   5.487   7.011   6.613
14659TIP3   OH243919   5.387   6.606   6.511
14659TIP3    H143920   5.341   6.644   6.435
14659TIP3    H243921   5.363   6.511   6.502
14660TIP3   OH243922   5.391   6.883   7.052
14660TIP3    H143923   5.399   6.786   7.048
14660TIP3    H243924   5.373   6.899   7.147
14661TIP3   OH243925   4.015   6.958   7.806
14661TIP3    H143926   4.012   6.922   7.714
14661TIP3    H243927   4.113   6.958   7.821
14662TIP3   OH243928   5.329   6.341   6.497
14662TIP3    H143929   5.401   6.308   6.554
14662TIP3    H243930   5.254   6.282   6.518
14663TIP3   OH243931   5.387   6.600   6.950
14663TIP3    H143932   5.429   6.512   6.965
14663TIP3    H243933   5.445   6.634   6.880
14664TIP3   OH243934   5.541   6.795   7.445
14664TIP3    H143935   5.630   6.809   7.407
14664TIP3    H243936   5.559   6.826   7.536
14665TIP3   OH243937   4.227   6.627   8.463
14665TIP3    H143938   4.324   6.627   8.473
14665TIP3    H243939   4.202   6.549   8.517
14666TIP3   OH243940   5.497   6.350   6.989
14666TIP3    H143941   5.544   6.333   7.074
14666TIP3    H243942   5.436   6.274   6.988
14667TIP3   OH243943   4.202   6.336   7.816
14667TIP3    H143944   4.266   6.262   7.823
14667TIP3    H243945   4.263   6.412   7.806
14668TIP3   OH243946   3.998   6.606   7.885
14668TIP3    H143947   4.046   6.601   7.800
14668TIP3    H243948   4.026   6.693   7.917
14669TIP3   OH243949   5.575   6.281   6.626
14669TIP3    H143950   5.615   6.212   6.569
14669TIP3    H243951   5.641   6.353   6.620
14670TIP3   OH243952   3.988   6.135   7.402
14670TIP3    H143953   3.896   6.109   7.425
14670TIP3    H243954   3.974   6.182   7.317
14671TIP3   OH243955   5.148   7.786   6.876
14671TIP3    H143956   5.192   7.798   6.789
14671TIP3    H243957   5.092   7.865   6.886
14672TIP3   OH243958   4.203   6.188   8.195
14672TIP3    H143959   4.152   6.189   8.278
14672TIP3    H243960   4.139   6.230   8.134
14673TIP3   OH243961   4.446   7.639   7.813
14673TIP3    H143962   4.382   7.711   7.798
14673TIP3    H243963   4.459   7.609   7.723
14674TIP3   OH243964   5.852   6.392   7.889
14674TIP3    H143965   5.758   6.410   7.875
14674TIP3    H243966   5.860   6.301   7.861
14675TIP3   OH243967   4.337   7.834   7.652
14675TIP3    H143968   4.305   7.881   7.732
14675TIP3    H243969   4.323   7.903   7.585
14676TIP3   OH243970   4.005   7.695   7.596
14676TIP3    H143971   4.040   7.683   7.686
14676TIP3    H243972   4.079   7.656   7.544
14677TIP3   OH243973   4.198   7.574   7.448
14677TIP3    H143974   4.217   7.488   7.494
14677TIP3    H243975   4.289   7.607   7.430
14678TIP3   OH243976   4.461   7.672   7.430
14678TIP3    H143977   4.504   7.584   7.443
14678TIP3    H243978   4.456   7.708   7.520
14679TIP3   OH243979   5.047   6.326   7.543
14679TIP3    H143980   5.003   6.253   7.590
14679TIP3    H243981   5.119   6.280   7.496
14680TIP3   OH243982   5.563   6.199   7.439
14680TIP3    H143983   5.602   6.256   7.369
14680TIP3    H243984   5.470   6.228   7.438
14681TIP3   OH243985   5.662   6.304   7.207
14681TIP3    H143986   5.736   6.253   7.167
14681TIP3    H243987   5.693   6.396   7.192
14682TIP3   OH243988   4.297   6.034   7.554
14682TIP3    H143989   4.203   6.007   7.552
14682TIP3    H243990   4.341   5.947   7.550
14683TIP3   OH243991   4.739   6.063   7.437
14683TIP3    H143992   4.793   6.111   7.372
14683TIP3    H243993   4.763   6.107   7.519
14684TIP3   OH243994   5.278   6.214   7.421
14684TIP3    H143995   5.281   6.177   7.331
14684TIP3    H243996   5.268   6.132   7.475
14685TIP3   OH243997   5.313   6.138   6.982
14685TIP3    H143998   5.228   6.182   6.997
14685TIP3    H243999   5.297   6.052   7.026
14686TIP3   OH244000   3.795   7.477   6.979
14686TIP3    H144001   3.710   7.444   6.946
14686TIP3    H244002   3.785   7.571   6.957
14687TIP3   OH244003   4.194   6.046   6.954
14687TIP3    H144004   4.258   5.992   6.903
14687TIP3    H244005   4.253   6.110   6.997
14688TIP3   OH244006   4.707   6.239   7.065
14688TIP3    H144007   4.770   6.195   7.125
14688TIP3    H244008   4.726   6.332   7.089
14689TIP3   OH244009   4.568   7.669   6.563
14689TIP3    H144010   4.657   7.689   6.528
14689TIP3    H244011   4.548   7.590   6.507
14690TIP3   OH244012   5.295   7.800   6.647
14690TIP3    H144013   5.294   7.701   6.641
14690TIP3    H244014   5.252   7.822   6.562
14691TIP3   OH244015   4.492   6.314   8.441
14691TIP3    H144016   4.454   6.245   8.499
14691TIP3    H244017   4.587   6.307   8.466
14692TIP3   OH244018   4.750   6.291   8.537
14692TIP3    H144019   4.831   6.295   8.482
14692TIP3    H244020   4.783   6.250   8.617
14693TIP3   OH244021   3.875   7.506   6.619
14693TIP3    H144022   3.877   7.515   6.715
14693TIP3    H244023   3.960   7.460   6.601
14694TIP3   OH244024   5.748   6.807   6.866
14694TIP3    H144025   5.699   6.889   6.882
14694TIP3    H244026   5.680   6.754   6.821
14695TIP3   OH244027   5.812   7.095   7.045
14695TIP3    H144028   5.866   7.031   7.096
14695TIP3    H244029   5.860   7.101   6.962
14696TIP3   OH244030   6.281   6.712   7.073
14696TIP3    H144031   6.294   6.772   6.997
14696TIP3    H244032   6.255   6.631   7.025
14697TIP3   OH244033   5.974   6.889   7.146
14697TIP3    H144034   6.068   6.869   7.159
14697TIP3    H244035   5.956   6.830   7.070
14698TIP3   OH244036   5.647   7.319   6.597
14698TIP3    H144037   5.604   7.348   6.514
14698TIP3    H244038   5.677   7.407   6.632
14699TIP3   OH244039   6.577   6.941   6.162
14699TIP3    H144040   6.651   6.989   6.201
14699TIP3    H244041   6.626   6.875   6.109
14700TIP3   OH244042   6.056   7.069   6.621
14700TIP3    H144043   5.984   7.115   6.573
14700TIP3    H244044   6.017   6.983   6.639
14701TIP3   OH244045   6.874   7.152   5.932
14701TIP3    H144046   6.832   7.111   5.854
14701TIP3    H244047   6.967   7.129   5.916
14702TIP3   OH244048   6.590   6.510   6.284
14702TIP3    H144049   6.559   6.506   6.377
14702TIP3    H244050   6.549   6.428   6.251
14703TIP3   OH244051   6.240   6.859   6.837
14703TIP3    H144052   6.152   6.828   6.865
14703TIP3    H244053   6.249   6.812   6.751
14704TIP3   OH244054   6.246   6.488   6.252
14704TIP3    H144055   6.235   6.484   6.349
14704TIP3    H244056   6.166   6.537   6.226
14705TIP3   OH244057   5.779   6.528   7.118
14705TIP3    H144058   5.854   6.565   7.170
14705TIP3    H244059   5.822   6.496   7.037
14706TIP3   OH244060   5.752   6.510   6.642
14706TIP3    H144061   5.797   6.548   6.563
14706TIP3    H244062   5.691   6.583   6.662
14707TIP3   OH244063   6.008   6.738   6.915
14707TIP3    H144064   5.914   6.741   6.886
14707TIP3    H244065   6.036   6.647   6.896
14708TIP3   OH244066   6.284   6.729   6.602
14708TIP3    H144067   6.378   6.749   6.587
14708TIP3    H244068   6.240   6.758   6.519
14709TIP3   OH244069   6.130   6.778   6.382
14709TIP3    H144070   6.060   6.729   6.336
14709TIP3    H244071   6.183   6.810   6.305
14710TIP3   OH244072   6.186   6.509   6.892
14710TIP3    H144073   6.154   6.428   6.938
14710TIP3    H244074   6.236   6.472   6.818
14711TIP3   OH244075   6.350   7.321   6.398
14711TIP3    H144076   6.292   7.242   6.388
14711TIP3    H244077   6.330   7.349   6.489
14712TIP3   OH244078   6.825   6.639   6.251
14712TIP3    H144079   6.732   6.607   6.258
14712TIP3    H244080   6.814   6.732   6.227
14713TIP3   OH244081   5.740   6.932   6.400
14713TIP3    H144082   5.782   7.019   6.420
14713TIP3    H244083   5.661   6.937   6.459
14714TIP3   OH244084   6.165   7.474   5.986
14714TIP3    H144085   6.182   7.385   5.951
14714TIP3    H244086   6.143   7.451   6.079
14715TIP3   OH244087   6.157   7.473   6.262
14715TIP3    H144088   6.232   7.420   6.296
14715TIP3    H244089   6.197   7.559   6.244
14716TIP3   OH244090   5.847   7.178   6.476
14716TIP3    H144091   5.781   7.221   6.534
14716TIP3    H244092   5.857   7.248   6.409
14717TIP3   OH244093   6.941   6.555   6.487
14717TIP3    H144094   6.890   6.589   6.411
14717TIP3    H244095   6.879   6.564   6.561
14718TIP3   OH244096   6.569   6.745   6.627
14718TIP3    H144097   6.624   6.825   6.633
14718TIP3    H244098   6.610   6.693   6.700
14719TIP3   OH244099   6.229   6.468   6.527
14719TIP3    H144100   6.226   6.558   6.565
14719TIP3    H244101   6.325   6.450   6.536
14720TIP3   OH244102   5.841   7.384   6.287
14720TIP3    H144103   5.893   7.464   6.301
14720TIP3    H244104   5.894   7.338   6.218
14721TIP3   OH244105   5.788   6.662   6.417
14721TIP3    H144106   5.788   6.759   6.416
14721TIP3    H244107   5.706   6.641   6.370
14722TIP3   OH244108   6.136   6.378   7.301
14722TIP3    H144109   6.136   6.352   7.207
14722TIP3    H244110   6.160   6.295   7.345
14723TIP3   OH244111   5.696   7.578   6.651
14723TIP3    H144112   5.640   7.627   6.714
14723TIP3    H244113   5.699   7.639   6.575
14724TIP3   OH244114   6.332   7.680   5.918
14724TIP3    H144115   6.274   7.606   5.946
14724TIP3    H244116   6.411   7.631   5.892
14725TIP3   OH244117   5.982   7.204   6.133
14725TIP3    H144118   6.032   7.165   6.206
14725TIP3    H244119   6.050   7.203   6.061
14726TIP3   OH244120   6.475   7.393   5.952
14726TIP3    H144121   6.485   7.401   6.048
14726TIP3    H244122   6.485   7.295   5.942
14727TIP3   OH244123   6.197   7.099   6.368
14727TIP3    H144124   6.152   7.060   6.445
14727TIP3    H244125   6.224   7.020   6.317
14728TIP3   OH244126   6.291   6.900   6.196
14728TIP3    H144127   6.264   6.905   6.102
14728TIP3    H244128   6.388   6.903   6.187
14729TIP3   OH244129   5.572   7.342   6.313
14729TIP3    H144130   5.668   7.361   6.305
14729TIP3    H244131   5.567   7.252   6.273
14730TIP3   OH244132   7.113   6.853   6.047
14730TIP3    H144133   7.137   6.923   5.983
14730TIP3    H244134   7.129   6.772   5.997
14731TIP3   OH244135   7.131   6.580   5.962
14731TIP3    H144136   7.197   6.562   6.032
14731TIP3    H244137   7.050   6.538   5.996
14732TIP3   OH244138   5.979   6.599   7.288
14732TIP3    H144139   6.035   6.519   7.293
14732TIP3    H244140   6.039   6.668   7.316
14733TIP3   OH244141   5.797   6.886   7.383
14733TIP3    H144142   5.857   6.877   7.307
14733TIP3    H244143   5.778   6.983   7.381
14734TIP3   OH244144   7.388   6.540   6.097
14734TIP3    H144145   7.417   6.461   6.048
14734TIP3    H244146   7.457   6.604   6.075
14735TIP3   OH244147   5.778   6.367   6.869
14735TIP3    H144148   5.685   6.363   6.898
14735TIP3    H244149   5.774   6.426   6.791
14736TIP3   OH244150   6.091   6.291   7.036
14736TIP3    H144151   5.998   6.259   7.039
14736TIP3    H244152   6.138   6.205   7.031
14737TIP3   OH244153   5.881   6.161   6.692
14737TIP3    H144154   5.908   6.218   6.618
14737TIP3    H244155   5.850   6.226   6.758
14738TIP3   OH244156   6.544   6.321   6.930
14738TIP3    H144157   6.607   6.381   6.883
14738TIP3    H244158   6.520   6.377   7.005
14739TIP3   OH244159   5.608   7.735   6.432
14739TIP3    H144160   5.519   7.699   6.413
14739TIP3    H244161   5.585   7.828   6.448
14740TIP3   OH244162   5.994   6.318   6.453
14740TIP3    H144163   6.042   6.256   6.395
14740TIP3    H244164   6.067   6.372   6.489
14741TIP3   OH244165   6.510   6.489   6.550
14741TIP3    H144166   6.568   6.449   6.618
14741TIP3    H244167   6.527   6.583   6.570
14742TIP3   OH244168   5.672   7.754   6.111
14742TIP3    H144169   5.658   7.756   6.207
14742TIP3    H244170   5.760   7.711   6.103
14743TIP3   OH244171   2.637   8.238   6.793
14743TIP3    H144172   2.691   8.307   6.833
14743TIP3    H244173   2.701   8.192   6.735
14744TIP3   OH244174   3.363   7.628   6.945
14744TIP3    H144175   3.285   7.647   7.001
14744TIP3    H244176   3.374   7.714   6.899
14745TIP3   OH244177   2.912   8.400   6.632
14745TIP3    H144178   2.885   8.390   6.540
14745TIP3    H244179   2.980   8.469   6.626
14746TIP3   OH244180   2.612   7.828   6.944
14746TIP3    H144181   2.613   7.811   7.039
14746TIP3    H244182   2.578   7.743   6.910
14747TIP3   OH244183   2.289   7.781   6.894
14747TIP3    H144184   2.276   7.795   6.990
14747TIP3    H244185   2.209   7.824   6.858
14748TIP3   OH244186   2.881   7.898   6.920
14748TIP3    H144187   2.783   7.899   6.917
14748TIP3    H244188   2.906   7.989   6.893
14749TIP3   OH244189   2.983   8.145   6.866
14749TIP3    H144190   3.037   8.147   6.946
14749TIP3    H244191   2.945   8.234   6.866
14750TIP3   OH244192   3.386   8.245   6.833
14750TIP3    H144193   3.324   8.200   6.770
14750TIP3    H244194   3.382   8.335   6.794
14751TIP3   OH244195   2.980   7.869   7.174
14751TIP3    H144196   2.946   7.875   7.082
14751TIP3    H244197   2.968   7.961   7.203
14752TIP3   OH244198   3.152   8.543   6.524
14752TIP3    H144199   3.126   8.492   6.445
14752TIP3    H244200   3.156   8.633   6.488
14753TIP3   OH244201   3.353   8.503   6.704
14753TIP3    H144202   3.278   8.491   6.641
14753TIP3    H244203   3.363   8.599   6.699
14754TIP3   OH244204   3.228   8.161   6.630
14754TIP3    H144205   3.159   8.192   6.571
14754TIP3    H244206   3.205   8.066   6.635
14755TIP3   OH244207   3.173   7.893   6.642
14755TIP3    H144208   3.247   7.869   6.701
14755TIP3    H244209   3.100   7.837   6.674
14756TIP3   OH244210   3.254   8.150   7.065
14756TIP3    H144211   3.299   8.070   7.100
14756TIP3    H244212   3.310   8.173   6.989
14757TIP3   OH244213   3.356   7.900   7.130
14757TIP3    H144214   3.390   7.893   7.221
14757TIP3    H244215   3.290   7.828   7.130
14758TIP3   OH244216   3.415   7.842   6.772
14758TIP3    H144217   3.456   7.770   6.721
14758TIP3    H244218   3.483   7.912   6.769
14759TIP3   OH244219   3.418   7.789   7.600
14759TIP3    H144220   3.455   7.820   7.514
14759TIP3    H244221   3.324   7.775   7.577
14760TIP3   OH244222   3.509   7.872   7.359
14760TIP3    H144223   3.580   7.821   7.316
14760TIP3    H244224   3.538   7.964   7.341
14761TIP3   OH244225   3.155   7.751   7.573
14761TIP3    H144226   3.105   7.744   7.491
14761TIP3    H244227   3.118   7.677   7.626
14762TIP3   OH244228   3.173   7.685   7.130
14762TIP3    H144229   3.097   7.744   7.151
14762TIP3    H244230   3.147   7.603   7.177
14763TIP3   OH244231   2.045   7.611   7.092
14763TIP3    H144232   2.077   7.536   7.038
14763TIP3    H244233   2.123   7.629   7.145
14764TIP3   OH244234   3.598   8.324   6.993
14764TIP3    H144235   3.582   8.420   6.993
14764TIP3    H244236   3.512   8.289   6.965
14765TIP3   OH244237   4.173   8.242   7.178
14765TIP3    H144238   4.147   8.314   7.116
14765TIP3    H244239   4.126   8.166   7.137
14766TIP3   OH244240   4.863   8.295   6.803
14766TIP3    H144241   4.922   8.309   6.879
14766TIP3    H244242   4.872   8.380   6.758
14767TIP3   OH244243   4.255   8.627   7.106
14767TIP3    H144244   4.341   8.595   7.078
14767TIP3    H244245   4.195   8.557   7.071
14768TIP3   OH244246   4.042   8.349   7.395
14768TIP3    H144247   4.087   8.434   7.385
14768TIP3    H244248   4.089   8.297   7.326
14769TIP3   OH244249   4.495   7.937   7.313
14769TIP3    H144250   4.502   7.844   7.344
14769TIP3    H244251   4.428   7.973   7.375
14770TIP3   OH244252   4.446   8.688   6.581
14770TIP3    H144253   4.371   8.749   6.568
14770TIP3    H244254   4.502   8.706   6.504
14771TIP3   OH244255   4.406   8.491   6.307
14771TIP3    H144256   4.462   8.535   6.373
14771TIP3    H244257   4.473   8.436   6.260
14772TIP3   OH244258   4.052   8.771   6.929
14772TIP3    H144259   4.052   8.679   6.899
14772TIP3    H244260   4.119   8.771   6.999
14773TIP3   OH244261   4.648   8.667   6.391
14773TIP3    H144262   4.716   8.728   6.420
14773TIP3    H244263   4.662   8.669   6.293
14774TIP3   OH244264   5.148   7.888   6.432
14774TIP3    H144265   5.068   7.908   6.484
14774TIP3    H244266   5.160   7.970   6.380
14775TIP3   OH244267   3.915   8.588   6.752
14775TIP3    H144268   3.864   8.670   6.762
14775TIP3    H244269   3.859   8.522   6.794
14776TIP3   OH244270   4.284   8.031   7.467
14776TIP3    H144271   4.191   8.006   7.448
14776TIP3    H244272   4.273   8.119   7.505
14777TIP3   OH244273   4.713   8.672   6.133
14777TIP3    H144274   4.685   8.649   6.042
14777TIP3    H244275   4.766   8.752   6.116
14778TIP3   OH244276   4.420   8.067   6.431
14778TIP3    H144277   4.389   8.068   6.524
14778TIP3    H244278   4.389   7.980   6.403
14779TIP3   OH244279   4.102   8.431   6.991
14779TIP3    H144280   4.011   8.394   7.004
14779TIP3    H244281   4.120   8.390   6.903
14780TIP3   OH244282   4.581   8.499   6.722
14780TIP3    H144283   4.530   8.574   6.682
14780TIP3    H244284   4.631   8.468   6.644
14781TIP3   OH244285   3.636   8.100   7.268
14781TIP3    H144286   3.718   8.115   7.319
14781TIP3    H244287   3.667   8.058   7.186
14782TIP3   OH244288   3.594   8.061   6.784
14782TIP3    H144289   3.658   8.099   6.721
14782TIP3    H244290   3.539   8.138   6.805
14783TIP3   OH244291   4.429   8.258   7.061
14783TIP3    H144292   4.343   8.248   7.108
14783TIP3    H244293   4.491   8.221   7.125
14784TIP3   OH244294   3.872   8.304   7.035
14784TIP3    H144295   3.774   8.309   7.041
14784TIP3    H244296   3.888   8.208   7.032
14785TIP3   OH244297   4.132   8.296   6.756
14785TIP3    H144298   4.227   8.306   6.733
14785TIP3    H244299   4.086   8.312   6.671
14786TIP3   OH244300   3.978   8.308   6.533
14786TIP3    H144301   3.884   8.313   6.516
14786TIP3    H244302   4.019   8.357   6.458
14787TIP3   OH244303   4.032   8.053   7.039
14787TIP3    H144304   3.998   7.975   7.087
14787TIP3    H244305   4.074   8.014   6.961
14788TIP3   OH244306   4.222   8.844   6.547
14788TIP3    H144307   4.143   8.787   6.533
14788TIP3    H244308   4.201   8.887   6.632
14789TIP3   OH244309   4.673   8.165   6.404
14789TIP3    H144310   4.577   8.147   6.410
14789TIP3    H244311   4.679   8.261   6.424
14790TIP3   OH244312   4.714   8.419   6.492
14790TIP3    H144313   4.810   8.416   6.512
14790TIP3    H244314   4.706   8.504   6.445
14791TIP3   OH244315   4.324   9.015   6.360
14791TIP3    H144316   4.295   9.092   6.414
14791TIP3    H244317   4.298   8.943   6.421
14792TIP3   OH244318   5.204   8.458   6.293
14792TIP3    H144319   5.117   8.434   6.253
14792TIP3    H244320   5.209   8.550   6.257
14793TIP3   OH244321   3.588   8.486   6.551
14793TIP3    H144322   3.629   8.574   6.568
14793TIP3    H244323   3.509   8.492   6.607
14794TIP3   OH244324   4.699   8.981   6.157
14794TIP3    H144325   4.748   9.055   6.196
14794TIP3    H244326   4.609   9.021   6.147
14795TIP3   OH244327   3.994   8.988   6.201
14795TIP3    H144328   4.038   8.904   6.177
14795TIP3    H244329   4.037   9.012   6.283
14796TIP3   OH244330   3.680   8.735   6.625
14796TIP3    H144331   3.716   8.781   6.703
14796TIP3    H244332   3.690   8.804   6.556
14797TIP3   OH244333   4.714   8.106   6.679
14797TIP3    H144334   4.702   8.135   6.586
14797TIP3    H244335   4.765   8.181   6.718
14798TIP3   OH244336   4.412   8.299   6.789
14798TIP3    H144337   4.475   8.371   6.766
14798TIP3    H244338   4.416   8.302   6.887
14799TIP3   OH244339   4.556   8.031   6.892
14799TIP3    H144340   4.534   8.119   6.929
14799TIP3    H244341   4.615   8.057   6.818
14800TIP3   OH244342   4.063   8.020   6.688
14800TIP3    H144343   4.061   8.115   6.707
14800TIP3    H244344   4.160   8.007   6.681
14801TIP3   OH244345   3.697   8.957   6.445
14801TIP3    H144346   3.728   9.048   6.429
14801TIP3    H244347   3.745   8.908   6.375
14802TIP3   OH244348   3.643   8.219   6.540
14802TIP3    H144349   3.634   8.315   6.552
14802TIP3    H244350   3.551   8.190   6.535
14803TIP3   OH244351   4.026   7.933   7.438
14803TIP3    H144352   3.996   7.898   7.352
14803TIP3    H244353   4.013   7.856   7.497
14804TIP3   OH244354   3.816   8.749   6.296
14804TIP3    H144355   3.872   8.720   6.370
14804TIP3    H244356   3.885   8.756   6.227
14805TIP3   OH244357   4.261   8.920   6.101
14805TIP3    H144358   4.288   8.941   6.191
14805TIP3    H244359   4.296   8.829   6.089
14806TIP3   OH244360   4.016   8.662   6.503
14806TIP3    H144361   3.988   8.623   6.589
14806TIP3    H244362   4.059   8.585   6.459
14807TIP3   OH244363   4.126   8.454   6.350
14807TIP3    H144364   4.104   8.461   6.254
14807TIP3    H244365   4.223   8.460   6.345
14808TIP3   OH244366   4.953   8.796   6.019
14808TIP3    H144367   4.926   8.746   5.939
14808TIP3    H244368   4.940   8.887   5.986
14809TIP3   OH244369   3.436   8.869   6.501
14809TIP3    H144370   3.515   8.913   6.465
14809TIP3    H244371   3.421   8.798   6.436
14810TIP3   OH244372   5.174   8.689   6.159
14810TIP3    H144373   5.093   8.705   6.107
14810TIP3    H244374   5.222   8.772   6.141
14811TIP3   OH244375   4.986   8.419   6.136
14811TIP3    H144376   4.948   8.448   6.052
14811TIP3    H244377   4.969   8.323   6.131
14812TIP3   OH244378   4.952   8.153   6.121
14812TIP3    H144379   5.030   8.122   6.172
14812TIP3    H244380   4.882   8.090   6.147
14813TIP3   OH244381   4.972   8.405   6.566
14813TIP3    H144382   5.012   8.325   6.604
14813TIP3    H244383   5.037   8.474   6.586
14814TIP3   OH244384   5.116   8.172   6.644
14814TIP3    H144385   5.140   8.159   6.737
14814TIP3    H244386   5.054   8.097   6.632
14815TIP3   OH244387   3.855   8.146   7.431
14815TIP3    H144388   3.919   8.073   7.438
14815TIP3    H244389   3.915   8.221   7.411
14816TIP3   OH244390   5.192   8.090   6.239
14816TIP3    H144391   5.231   8.014   6.191
14816TIP3    H244392   5.265   8.155   6.237
14817TIP3   OH244393   3.620   7.928   7.022
14817TIP3    H144394   3.527   7.918   7.049
14817TIP3    H244395   3.613   7.985   6.943
14818TIP3   OH244396   4.644   8.117   7.177
14818TIP3    H144397   4.597   8.043   7.221
14818TIP3    H244398   4.686   8.072   7.103
14819TIP3   OH244399   3.928   7.844   7.193
14819TIP3    H144400   3.836   7.811   7.195
14819TIP3    H244401   3.977   7.758   7.188
14820TIP3   OH244402   3.714   7.720   6.842
14820TIP3    H144403   3.746   7.778   6.771
14820TIP3    H244404   3.688   7.785   6.911
14821TIP3   OH244405   4.371   7.880   7.070
14821TIP3    H144406   4.433   7.925   7.012
14821TIP3    H244407   4.405   7.905   7.158
14822TIP3   OH244408   4.960   7.946   6.992
14822TIP3    H144409   4.934   8.039   7.008
14822TIP3    H244410   4.926   7.902   7.072
14823TIP3   OH244411   4.948   7.952   6.620
14823TIP3    H144412   4.859   7.991   6.632
14823TIP3    H244413   4.933   7.864   6.662
14824TIP3   OH244414   3.837   7.886   6.596
14824TIP3    H144415   3.886   7.814   6.552
14824TIP3    H244416   3.911   7.936   6.637
14825TIP3   OH244417   4.344   8.053   6.695
14825TIP3    H144418   4.399   8.001   6.756
14825TIP3    H244419   4.367   8.144   6.725
14826TIP3   OH244420   5.866   8.310   5.908
14826TIP3    H144421   5.835   8.293   5.997
14826TIP3    H244422   5.787   8.350   5.867
14827TIP3   OH244423   5.401   8.277   6.262
14827TIP3    H144424   5.464   8.315   6.198
14827TIP3    H244425   5.341   8.354   6.275
14828TIP3   OH244426   5.375   8.450   6.006
14828TIP3    H144427   5.430   8.522   6.045
14828TIP3    H244428   5.292   8.457   6.055
14829TIP3   OH244429   5.354   8.121   6.478
14829TIP3    H144430   5.269   8.151   6.515
14829TIP3    H244431   5.375   8.195   6.416
14830TIP3   OH244432   5.490   7.967   6.291
14830TIP3    H144433   5.512   8.036   6.226
14830TIP3    H244434   5.442   8.018   6.360
14831TIP3   OH244435   5.628   8.139   6.086
14831TIP3    H144436   5.668   8.069   6.029
14831TIP3    H244437   5.700   8.159   6.146
   8.50000   8.01388   6.94022   0.00000   0.00000  -2.83333   0.00000  -2.83333  -4.00694
