Title t= 163.00000 step= 81500
19942
    1ASP      N    1   1.070   1.921   3.438
    1ASP    HT1    2   1.097   1.952   3.343
    1ASP    HT2    3   1.124   1.978   3.506
    1ASP    HT3    4   0.970   1.945   3.453
    1ASP     CA    5   1.102   1.780   3.455
    1ASP     HA    6   1.210   1.776   3.457
    1ASP     CB    7   1.046   1.712   3.590
    1ASP    HB1    8   0.937   1.726   3.602
    1ASP    HB2    9   1.100   1.755   3.676
    1ASP     CG   10   1.090   1.571   3.608
    1ASP    OD1   11   1.024   1.509   3.691
    1ASP    OD2   12   1.189   1.524   3.550
    1ASP      C   13   1.071   1.695   3.336
    1ASP      O   14   1.150   1.671   3.242
    2ALA      N   15   0.951   1.643   3.333
    2ALA     HN   16   0.872   1.682   3.380
    2ALA     CA   17   0.913   1.539   3.242
    2ALA     HA   18   1.002   1.483   3.221
    2ALA     CB   19   0.817   1.439   3.296
    2ALA    HB1   20   0.755   1.381   3.225
    2ALA    HB2   21   0.737   1.490   3.354
    2ALA    HB3   22   0.855   1.365   3.371
    2ALA      C   23   0.858   1.608   3.115
    2ALA      O   24   0.790   1.711   3.129
    3ASP      N   25   0.896   1.557   2.995
    3ASP     HN   26   0.932   1.465   2.998
    3ASP     CA   27   0.866   1.609   2.860
    3ASP     HA   28   0.799   1.693   2.871
    3ASP     CB   29   1.003   1.642   2.790
    3ASP    HB1   30   0.988   1.645   2.680
    3ASP    HB2   31   1.071   1.557   2.813
    3ASP     CG   32   1.043   1.781   2.842
    3ASP    OD1   33   1.155   1.798   2.896
    3ASP    OD2   34   0.957   1.873   2.823
    3ASP      C   35   0.785   1.506   2.778
    3ASP      O   36   0.771   1.387   2.808
    4GLY      N   37   0.702   1.551   2.678
    4GLY     HN   38   0.699   1.647   2.652
    4GLY     CA   39   0.619   1.454   2.602
    4GLY    HA1   40   0.571   1.506   2.520
    4GLY    HA2   41   0.548   1.413   2.673
    4GLY      C   42   0.686   1.346   2.534
    4GLY      O   43   0.806   1.351   2.498
    5PRO      N   44   0.617   1.231   2.506
    5PRO     CD   45   0.475   1.221   2.528
    5PRO    HD1   46   0.423   1.314   2.495
    5PRO    HD2   47   0.450   1.204   2.635
    5PRO     CA   48   0.660   1.134   2.404
    5PRO     HA   49   0.759   1.101   2.431
    5PRO     CB   50   0.550   1.026   2.414
    5PRO    HB1   51   0.575   0.958   2.499
    5PRO    HB2   52   0.555   0.966   2.321
    5PRO     CG   53   0.419   1.100   2.444
    5PRO    HG1   54   0.372   1.132   2.349
    5PRO    HG2   55   0.353   1.033   2.503
    5PRO      C   56   0.667   1.188   2.260
    5PRO      O   57   0.607   1.288   2.231
    6GLY      N   58   0.746   1.118   2.175
    6GLY     HN   59   0.784   1.034   2.212
    6GLY     CA   60   0.757   1.158   2.033
    6GLY    HA1   61   0.853   1.121   1.998
    6GLY    HA2   62   0.745   1.263   2.016
    6GLY      C   63   0.653   1.096   1.937
    6GLY      O   64   0.535   1.085   1.970
    7ASP      N   65   0.689   1.051   1.819
    7ASP     HN   66   0.786   1.056   1.793
    7ASP     CA   67   0.611   0.972   1.723
    7ASP     HA   68   0.514   1.017   1.733
    7ASP     CB   69   0.669   0.976   1.580
    7ASP    HB1   70   0.743   0.896   1.558
    7ASP    HB2   71   0.705   1.080   1.567
    7ASP     CG   72   0.558   0.968   1.474
    7ASP    OD1   73   0.578   0.888   1.379
    7ASP    OD2   74   0.466   1.051   1.481
    7ASP      C   75   0.594   0.832   1.763
    7ASP      O   76   0.691   0.785   1.823
    8PRO      N   77   0.480   0.760   1.734
    8PRO     CD   78   0.348   0.812   1.708
    8PRO    HD1   79   0.337   0.805   1.597
    8PRO    HD2   80   0.336   0.915   1.747
    8PRO     CA   81   0.466   0.623   1.777
    8PRO     HA   82   0.493   0.620   1.881
    8PRO     CB   83   0.315   0.584   1.749
    8PRO    HB1   84   0.280   0.503   1.816
    8PRO    HB2   85   0.298   0.558   1.642
    8PRO     CG   86   0.251   0.722   1.778
    8PRO    HG1   87   0.151   0.737   1.732
    8PRO    HG2   88   0.259   0.760   1.882
    8PRO      C   89   0.552   0.527   1.704
    8PRO      O   90   0.567   0.415   1.750
    9ASP      N   91   0.627   0.568   1.599
    9ASP     HN   92   0.618   0.665   1.576
    9ASP     CA   93   0.730   0.490   1.538
    9ASP     HA   94   0.728   0.383   1.555
    9ASP     CB   95   0.735   0.511   1.389
    9ASP    HB1   96   0.828   0.474   1.342
    9ASP    HB2   97   0.731   0.620   1.366
    9ASP     CG   98   0.633   0.425   1.316
    9ASP    OD1   99   0.594   0.471   1.204
    9ASP    OD2  100   0.601   0.313   1.361
    9ASP      C  101   0.872   0.520   1.590
    9ASP      O  102   0.968   0.455   1.560
   10ALA      N  103   0.887   0.607   1.699
   10ALA     HN  104   0.803   0.627   1.749
   10ALA     CA  105   1.011   0.641   1.767
   10ALA     HA  106   1.086   0.571   1.735
   10ALA     CB  107   1.060   0.779   1.745
   10ALA    HB1  108   1.152   0.804   1.801
   10ALA    HB2  109   0.988   0.858   1.774
   10ALA    HB3  110   1.088   0.800   1.639
   10ALA      C  111   0.992   0.613   1.916
   10ALA      O  112   0.882   0.621   1.971
   11GLY      N  113   1.098   0.569   1.981
   11GLY     HN  114   1.182   0.547   1.933
   11GLY     CA  115   1.085   0.533   2.122
   11GLY    HA1  116   1.165   0.465   2.147
   11GLY    HA2  117   0.990   0.484   2.138
   11GLY      C  118   1.095   0.647   2.221
   11GLY    OT1  119   1.014   0.664   2.314
   11GLY    OT2  120   1.192   0.723   2.209
   12LIT    LIT  121   4.310   4.278   4.454
   13LIT    LIT  122   1.164   3.137   2.279
   14LIT    LIT  123   0.728   5.794   3.944
   15LIT    LIT  124   2.187   1.971   0.238
   16LIT    LIT  125   3.627   5.685   3.234
   17LIT    LIT  126   2.645   4.665   3.854
   18LIT    LIT  127   6.038   5.613   2.901
   19LIT    LIT  128   0.694   0.472   1.052
   20LIT    LIT  129   4.048   5.215   0.043
   21LIT    LIT  130   3.671   0.232   2.750
   22LIT    LIT  131   3.821   3.557   1.476
   23LIT    LIT  132   1.739   1.553   2.011
   24LIT    LIT  133   2.509   5.177   4.456
   25LIT    LIT  134   2.709   5.811   0.959
   26LIT    LIT  135   4.920   4.954   0.137
   27LIT    LIT  136   3.497   5.811   2.651
   28LIT    LIT  137   1.391   1.581   3.835
   29LIT    LIT  138   3.289   3.793   2.962
   30LIT    LIT  139   1.326   2.025   1.838
   31LIT    LIT  140   4.658   2.416   3.922
   32LIT    LIT  141   2.589   5.635   1.278
   33LIT    LIT  142   5.200   1.518   2.287
   34CLA    CLA  143   5.489   2.066   2.187
   35CLA    CLA  144   0.222   0.354   4.700
   36CLA    CLA  145   3.881   0.038   4.365
   37CLA    CLA  146   5.646   5.636   4.673
   38CLA    CLA  147   4.509   4.703   0.146
   39CLA    CLA  148   3.699   4.403   4.268
   40CLA    CLA  149   3.830   2.706   0.389
   41CLA    CLA  150   2.327   2.573   1.341
   42CLA    CLA  151   4.375   4.262   1.407
   43CLA    CLA  152   1.742   3.398   1.587
   44CLA    CLA  153   3.314   0.533   0.136
   45CLA    CLA  154   2.490   0.642   3.448
   46CLA    CLA  155   4.675   5.305   3.317
   47CLA    CLA  156   5.103   4.841   0.078
   48CLA    CLA  157   3.269   4.356   4.807
   49CLA    CLA  158   0.003   4.450   1.635
   50CLA    CLA  159   2.590   2.076   1.760
   51CLA    CLA  160   1.177   5.366   1.812
   52TIP3   OH2  161   5.978   2.412   0.969
   52TIP3    H1  162   5.932   2.411   1.053
   52TIP3    H2  163   6.052   2.471   0.983
   53TIP3   OH2  164   6.016   0.980   2.011
   53TIP3    H1  165   6.033   1.063   2.055
   53TIP3    H2  166   5.942   0.998   1.953
   54TIP3   OH2  167   6.023   2.071   3.585
   54TIP3    H1  168   5.938   2.052   3.625
   54TIP3    H2  169   6.003   2.132   3.514
   55TIP3   OH2  170   2.521   4.984   1.742
   55TIP3    H1  171   2.573   4.906   1.728
   55TIP3    H2  172   2.523   4.998   1.837
   56TIP3   OH2  173   2.774   1.911   1.576
   56TIP3    H1  174   2.712   1.968   1.622
   56TIP3    H2  175   2.771   1.941   1.485
   57TIP3   OH2  176   4.583   2.264   4.532
   57TIP3    H1  177   4.636   2.260   4.452
   57TIP3    H2  178   4.493   2.257   4.502
   58TIP3   OH2  179   0.741   3.440   0.855
   58TIP3    H1  180   0.672   3.379   0.828
   58TIP3    H2  181   0.695   3.524   0.867
   59TIP3   OH2  182   4.237   2.608   3.396
   59TIP3    H1  183   4.248   2.701   3.373
   59TIP3    H2  184   4.209   2.609   3.487
   60TIP3   OH2  185   2.426   5.210   4.834
   60TIP3    H1  186   2.331   5.212   4.848
   60TIP3    H2  187   2.450   5.119   4.849
   61TIP3   OH2  188   5.907   2.488   2.085
   61TIP3    H1  189   5.841   2.419   2.089
   61TIP3    H2  190   5.963   2.472   2.161
   62TIP3   OH2  191   3.823   4.899   3.860
   62TIP3    H1  192   3.737   4.859   3.851
   62TIP3    H2  193   3.856   4.865   3.944
   63TIP3   OH2  194   2.772   2.649   1.792
   63TIP3    H1  195   2.707   2.686   1.732
   63TIP3    H2  196   2.722   2.590   1.848
   64TIP3   OH2  197   3.133   5.350   2.080
   64TIP3    H1  198   3.104   5.265   2.112
   64TIP3    H2  199   3.211   5.331   2.027
   65TIP3   OH2  200   0.147   5.763   0.177
   65TIP3    H1  201   0.183   5.715   0.102
   65TIP3    H2  202   0.063   5.798   0.145
   66TIP3   OH2  203   0.855   2.816   3.928
   66TIP3    H1  204   0.799   2.753   3.973
   66TIP3    H2  205   0.801   2.895   3.922
   67TIP3   OH2  206   3.973   0.734   0.220
   67TIP3    H1  207   4.028   0.812   0.230
   67TIP3    H2  208   3.885   0.764   0.245
   68TIP3   OH2  209   3.325   3.576   5.120
   68TIP3    H1  210   3.354   3.573   5.028
   68TIP3    H2  211   3.295   3.487   5.138
   69TIP3   OH2  212   5.281   3.793   0.435
   69TIP3    H1  213   5.307   3.712   0.478
   69TIP3    H2  214   5.190   3.777   0.407
   70TIP3   OH2  215   5.511   0.463   4.417
   70TIP3    H1  216   5.561   0.395   4.464
   70TIP3    H2  217   5.438   0.484   4.475
   71TIP3   OH2  218   4.518   5.086   1.436
   71TIP3    H1  219   4.427   5.092   1.465
   71TIP3    H2  220   4.512   5.055   1.345
   72TIP3   OH2  221   1.500  -0.039   0.502
   72TIP3    H1  222   1.488  -0.133   0.519
   72TIP3    H2  223   1.550  -0.008   0.577
   73TIP3   OH2  224   2.942   0.398   2.574
   73TIP3    H1  225   2.971   0.481   2.611
   73TIP3    H2  226   2.882   0.362   2.639
   74TIP3   OH2  227   5.131   1.368   3.516
   74TIP3    H1  228   5.092   1.401   3.436
   74TIP3    H2  229   5.069   1.301   3.547
   75TIP3   OH2  230   6.152   3.360   0.990
   75TIP3    H1  231   6.113   3.300   1.053
   75TIP3    H2  232   6.181   3.303   0.918
   76TIP3   OH2  233   4.783   4.803   1.176
   76TIP3    H1  234   4.740   4.718   1.168
   76TIP3    H2  235   4.876   4.782   1.186
   77TIP3   OH2  236   0.744   1.459   3.664
   77TIP3    H1  237   0.838   1.466   3.681
   77TIP3    H2  238   0.711   1.548   3.673
   78TIP3   OH2  239   1.805   2.419   3.259
   78TIP3    H1  240   1.747   2.352   3.294
   78TIP3    H2  241   1.791   2.495   3.315
   79TIP3   OH2  242   0.896  -0.052   2.314
   79TIP3    H1  243   0.834  -0.090   2.252
   79TIP3    H2  244   0.951   0.006   2.260
   80TIP3   OH2  245   0.108   2.176   4.856
   80TIP3    H1  246   0.150   2.198   4.772
   80TIP3    H2  247   0.067   2.091   4.841
   81TIP3   OH2  248   1.554   3.670   2.833
   81TIP3    H1  249   1.545   3.659   2.738
   81TIP3    H2  250   1.482   3.620   2.870
   82TIP3   OH2  251  -0.003   0.191   4.965
   82TIP3    H1  252  -0.043   0.273   4.995
   82TIP3    H2  253   0.072   0.179   5.022
   83TIP3   OH2  254   0.585   1.075   3.115
   83TIP3    H1  255   0.571   1.136   3.043
   83TIP3    H2  256   0.679   1.056   3.113
   84TIP3   OH2  257   1.871   3.299   1.036
   84TIP3    H1  258   1.865   3.342   1.121
   84TIP3    H2  259   1.831   3.213   1.049
   85TIP3   OH2  260   5.713   0.109   4.472
   85TIP3    H1  261   5.774   0.051   4.516
   85TIP3    H2  262   5.759   0.137   4.392
   86TIP3   OH2  263   5.167   1.678   1.551
   86TIP3    H1  264   5.242   1.670   1.610
   86TIP3    H2  265   5.205   1.705   1.468
   87TIP3   OH2  266   4.420   4.769   2.430
   87TIP3    H1  267   4.430   4.698   2.494
   87TIP3    H2  268   4.381   4.841   2.479
   88TIP3   OH2  269   5.654   2.497   1.779
   88TIP3    H1  270   5.577   2.443   1.762
   88TIP3    H2  271   5.666   2.492   1.874
   89TIP3   OH2  272   2.312   4.364   4.296
   89TIP3    H1  273   2.301   4.281   4.250
   89TIP3    H2  274   2.388   4.350   4.353
   90TIP3   OH2  275   4.888   3.606   0.615
   90TIP3    H1  276   4.958   3.669   0.601
   90TIP3    H2  277   4.887   3.553   0.536
   91TIP3   OH2  278   5.492   0.211   4.899
   91TIP3    H1  279   5.448   0.132   4.869
   91TIP3    H2  280   5.440   0.283   4.864
   92TIP3   OH2  281   5.390   1.728   0.193
   92TIP3    H1  282   5.443   1.722   0.114
   92TIP3    H2  283   5.381   1.638   0.223
   93TIP3   OH2  284   5.667   0.647   1.422
   93TIP3    H1  285   5.701   0.731   1.390
   93TIP3    H2  286   5.697   0.642   1.512
   94TIP3   OH2  287   3.946   4.455   2.986
   94TIP3    H1  288   3.958   4.397   2.910
   94TIP3    H2  289   4.028   4.504   2.992
   95TIP3   OH2  290   3.732   0.302   2.320
   95TIP3    H1  291   3.667   0.234   2.308
   95TIP3    H2  292   3.683   0.384   2.317
   96TIP3   OH2  293   1.509   4.658   0.259
   96TIP3    H1  294   1.413   4.659   0.259
   96TIP3    H2  295   1.534   4.743   0.295
   97TIP3   OH2  296   0.981   3.474   4.527
   97TIP3    H1  297   1.050   3.515   4.579
   97TIP3    H2  298   0.981   3.521   4.444
   98TIP3   OH2  299   5.251   3.506   0.193
   98TIP3    H1  300   5.333   3.476   0.232
   98TIP3    H2  301   5.265   3.503   0.099
   99TIP3   OH2  302   1.226   2.042   2.842
   99TIP3    H1  303   1.185   1.960   2.867
   99TIP3    H2  304   1.214   2.048   2.748
  100TIP3   OH2  305   4.571   2.404   3.139
  100TIP3    H1  306   4.657   2.440   3.117
  100TIP3    H2  307   4.509   2.474   3.119
  101TIP3   OH2  308   5.693   5.312   1.857
  101TIP3    H1  309   5.731   5.288   1.942
  101TIP3    H2  310   5.639   5.237   1.833
  102TIP3   OH2  311   1.625   2.717   4.842
  102TIP3    H1  312   1.534   2.691   4.829
  102TIP3    H2  313   1.619   2.800   4.889
  103TIP3   OH2  314   1.942   1.845   1.476
  103TIP3    H1  315   2.025   1.871   1.435
  103TIP3    H2  316   1.886   1.922   1.468
  104TIP3   OH2  317   0.199   1.557   1.961
  104TIP3    H1  318   0.249   1.635   1.984
  104TIP3    H2  319   0.250   1.484   1.998
  105TIP3   OH2  320   1.743   2.256   0.637
  105TIP3    H1  321   1.820   2.281   0.586
  105TIP3    H2  322   1.677   2.233   0.571
  106TIP3   OH2  323   0.356   4.215   0.200
  106TIP3    H1  324   0.276   4.167   0.181
  106TIP3    H2  325   0.333   4.307   0.188
  107TIP3   OH2  326   5.655   0.564   4.684
  107TIP3    H1  327   5.741   0.597   4.712
  107TIP3    H2  328   5.670   0.472   4.665
  108TIP3   OH2  329  -0.021   5.015   4.161
  108TIP3    H1  330   0.056   4.982   4.206
  108TIP3    H2  331  -0.061   5.076   4.223
  109TIP3   OH2  332   2.271   1.064   0.236
  109TIP3    H1  333   2.306   1.118   0.165
  109TIP3    H2  334   2.341   1.001   0.254
  110TIP3   OH2  335   4.838   5.372   3.082
  110TIP3    H1  336   4.779   5.416   3.021
  110TIP3    H2  337   4.786   5.362   3.162
  111TIP3   OH2  338   0.853   5.562   4.398
  111TIP3    H1  339   0.893   5.540   4.314
  111TIP3    H2  340   0.924   5.552   4.462
  112TIP3   OH2  341   4.665   3.597   1.978
  112TIP3    H1  342   4.711   3.605   2.062
  112TIP3    H2  343   4.628   3.684   1.963
  113TIP3   OH2  344   2.656   0.253   3.245
  113TIP3    H1  345   2.595   0.323   3.223
  113TIP3    H2  346   2.603   0.190   3.293
  114TIP3   OH2  347   1.352   3.101   2.255
  114TIP3    H1  348   1.409   3.024   2.243
  114TIP3    H2  349   1.410   3.176   2.239
  115TIP3   OH2  350   5.716   1.048   4.374
  115TIP3    H1  351   5.630   1.072   4.408
  115TIP3    H2  352   5.741   1.123   4.319
  116TIP3   OH2  353   3.709   3.114   4.724
  116TIP3    H1  354   3.756   3.032   4.737
  116TIP3    H2  355   3.753   3.156   4.651
  117TIP3   OH2  356   3.588   4.493   3.267
  117TIP3    H1  357   3.676   4.463   3.243
  117TIP3    H2  358   3.546   4.417   3.306
  118TIP3   OH2  359   3.939   4.791   3.606
  118TIP3    H1  360   4.018   4.828   3.566
  118TIP3    H2  361   3.929   4.838   3.689
  119TIP3   OH2  362   5.555   5.287   1.270
  119TIP3    H1  363   5.639   5.273   1.226
  119TIP3    H2  364   5.524   5.371   1.235
  120TIP3   OH2  365   0.382   2.972   0.079
  120TIP3    H1  366   0.382   3.043   0.143
  120TIP3    H2  367   0.381   3.016  -0.006
  121TIP3   OH2  368   0.227   0.340   4.122
  121TIP3    H1  369   0.290   0.385   4.178
  121TIP3    H2  370   0.271   0.334   4.037
  122TIP3   OH2  371   4.586   4.952   3.602
  122TIP3    H1  372   4.554   4.893   3.670
  122TIP3    H2  373   4.676   4.973   3.629
  123TIP3   OH2  374   3.761   5.741   0.022
  123TIP3    H1  375   3.796   5.776  -0.060
  123TIP3    H2  376   3.807   5.790   0.091
  124TIP3   OH2  377   4.948   1.490   5.004
  124TIP3    H1  378   4.979   1.451   5.086
  124TIP3    H2  379   4.891   1.422   4.966
  125TIP3   OH2  380   2.772   4.947   0.678
  125TIP3    H1  381   2.710   4.877   0.698
  125TIP3    H2  382   2.858   4.907   0.691
  126TIP3   OH2  383   2.450   4.743   1.020
  126TIP3    H1  384   2.453   4.658   1.063
  126TIP3    H2  385   2.525   4.791   1.055
  127TIP3   OH2  386   1.173   4.408   3.693
  127TIP3    H1  387   1.141   4.498   3.694
  127TIP3    H2  388   1.106   4.360   3.644
  128TIP3   OH2  389   5.636   4.461   0.568
  128TIP3    H1  390   5.679   4.442   0.485
  128TIP3    H2  391   5.567   4.524   0.545
  129TIP3   OH2  392   3.506   1.416   4.617
  129TIP3    H1  393   3.415   1.436   4.598
  129TIP3    H2  394   3.553   1.498   4.600
  130TIP3   OH2  395   2.805   1.021   3.957
  130TIP3    H1  396   2.872   1.042   3.892
  130TIP3    H2  397   2.826   1.075   4.033
  131TIP3   OH2  398   1.285   5.696   1.086
  131TIP3    H1  399   1.235   5.636   1.030
  131TIP3    H2  400   1.312   5.642   1.161
  132TIP3   OH2  401   2.587   1.500   2.532
  132TIP3    H1  402   2.662   1.466   2.581
  132TIP3    H2  403   2.571   1.587   2.570
  133TIP3   OH2  404   5.094   1.073   4.302
  133TIP3    H1  405   5.053   1.118   4.376
  133TIP3    H2  406   5.050   0.988   4.299
  134TIP3   OH2  407   5.623   1.780   0.568
  134TIP3    H1  408   5.541   1.804   0.525
  134TIP3    H2  409   5.678   1.859   0.561
  135TIP3   OH2  410   1.696   2.161   2.611
  135TIP3    H1  411   1.666   2.245   2.645
  135TIP3    H2  412   1.626   2.100   2.634
  136TIP3   OH2  413   6.167   1.841   4.326
  136TIP3    H1  414   6.236   1.795   4.374
  136TIP3    H2  415   6.164   1.797   4.241
  137TIP3   OH2  416   6.052   4.119   2.822
  137TIP3    H1  417   6.027   4.051   2.760
  137TIP3    H2  418   6.083   4.072   2.899
  138TIP3   OH2  419   3.480   3.300   4.065
  138TIP3    H1  420   3.478   3.205   4.077
  138TIP3    H2  421   3.497   3.335   4.152
  139TIP3   OH2  422   1.921   5.591   3.197
  139TIP3    H1  423   1.916   5.543   3.280
  139TIP3    H2  424   1.838   5.571   3.153
  140TIP3   OH2  425   2.026   4.711   4.547
  140TIP3    H1  426   1.973   4.703   4.467
  140TIP3    H2  427   2.015   4.802   4.574
  141TIP3   OH2  428   5.564   1.066   3.370
  141TIP3    H1  429   5.630   1.096   3.307
  141TIP3    H2  430   5.497   1.135   3.370
  142TIP3   OH2  431   3.588   2.702   2.896
  142TIP3    H1  432   3.648   2.686   2.823
  142TIP3    H2  433   3.532   2.625   2.899
  143TIP3   OH2  434   0.138   1.405   2.413
  143TIP3    H1  435   0.127   1.334   2.350
  143TIP3    H2  436   0.190   1.470   2.366
  144TIP3   OH2  437   4.375   4.436   4.354
  144TIP3    H1  438   4.463   4.468   4.335
  144TIP3    H2  439   4.317   4.500   4.312
  145TIP3   OH2  440   5.690   4.783   3.475
  145TIP3    H1  441   5.768   4.761   3.425
  145TIP3    H2  442   5.720   4.847   3.540
  146TIP3   OH2  443   2.989   0.700   1.741
  146TIP3    H1  444   2.963   0.647   1.665
  146TIP3    H2  445   3.041   0.771   1.703
  147TIP3   OH2  446   1.513   3.515   1.042
  147TIP3    H1  447   1.443   3.568   1.003
  147TIP3    H2  448   1.593   3.565   1.028
  148TIP3   OH2  449   5.544   2.638   2.548
  148TIP3    H1  450   5.500   2.720   2.572
  148TIP3    H2  451   5.481   2.569   2.571
  149TIP3   OH2  452   0.618   0.546   4.556
  149TIP3    H1  453   0.629   0.607   4.483
  149TIP3    H2  454   0.606   0.461   4.515
  150TIP3   OH2  455   4.385   5.640   5.092
  150TIP3    H1  456   4.367   5.728   5.060
  150TIP3    H2  457   4.429   5.596   5.020
  151TIP3   OH2  458   5.350   1.044   1.862
  151TIP3    H1  459   5.425   1.103   1.867
  151TIP3    H2  460   5.276   1.100   1.838
  152TIP3   OH2  461   1.805   1.004   0.212
  152TIP3    H1  462   1.789   0.910   0.199
  152TIP3    H2  463   1.877   1.007   0.274
  153TIP3   OH2  464   0.933   3.661   4.917
  153TIP3    H1  465   0.850   3.613   4.917
  153TIP3    H2  466   0.907   3.753   4.919
  154TIP3   OH2  467   4.232   4.775   0.016
  154TIP3    H1  468   4.318   4.796   0.051
  154TIP3    H2  469   4.191   4.721   0.083
  155TIP3   OH2  470   2.655   2.809   1.048
  155TIP3    H1  471   2.653   2.806   0.952
  155TIP3    H2  472   2.680   2.720   1.074
  156TIP3   OH2  473   4.002   1.167   3.962
  156TIP3    H1  474   3.947   1.139   4.035
  156TIP3    H2  475   4.090   1.137   3.984
  157TIP3   OH2  476   0.620   3.988   4.968
  157TIP3    H1  477   0.560   3.914   4.973
  157TIP3    H2  478   0.565   4.062   4.944
  158TIP3   OH2  479   3.580   2.409   2.855
  158TIP3    H1  480   3.588   2.393   2.761
  158TIP3    H2  481   3.580   2.321   2.893
  159TIP3   OH2  482   4.406   0.251   0.088
  159TIP3    H1  483   4.364   0.223   0.168
  159TIP3    H2  484   4.450   0.333   0.111
  160TIP3   OH2  485   5.288   2.894   0.839
  160TIP3    H1  486   5.276   2.800   0.830
  160TIP3    H2  487   5.203   2.931   0.815
  161TIP3   OH2  488   0.105   0.225   0.581
  161TIP3    H1  489   0.067   0.307   0.550
  161TIP3    H2  490   0.172   0.251   0.644
  162TIP3   OH2  491   1.551   0.970   1.424
  162TIP3    H1  492   1.530   0.979   1.331
  162TIP3    H2  493   1.600   0.889   1.430
  163TIP3   OH2  494   3.063   1.136   3.212
  163TIP3    H1  495   3.149   1.101   3.232
  163TIP3    H2  496   3.001   1.072   3.246
  164TIP3   OH2  497   5.822   2.048   0.495
  164TIP3    H1  498   5.797   2.138   0.516
  164TIP3    H2  499   5.901   2.057   0.441
  165TIP3   OH2  500   3.395   1.755   2.189
  165TIP3    H1  501   3.335   1.729   2.119
  165TIP3    H2  502   3.478   1.773   2.145
  166TIP3   OH2  503   2.922   5.502   0.829
  166TIP3    H1  504   2.873   5.429   0.790
  166TIP3    H2  505   2.930   5.478   0.921
  167TIP3   OH2  506   6.047   1.257   2.708
  167TIP3    H1  507   6.075   1.347   2.691
  167TIP3    H2  508   6.122   1.203   2.681
  168TIP3   OH2  509   1.291   0.499   0.751
  168TIP3    H1  510   1.243   0.475   0.831
  168TIP3    H2  511   1.266   0.433   0.687
  169TIP3   OH2  512   5.921   0.061   4.756
  169TIP3    H1  513   5.990   0.066   4.822
  169TIP3    H2  514   5.889   0.151   4.748
  170TIP3   OH2  515   5.906   1.843   1.895
  170TIP3    H1  516   5.909   1.912   1.961
  170TIP3    H2  517   5.995   1.807   1.895
  171TIP3   OH2  518   4.796   3.489   0.862
  171TIP3    H1  519   4.866   3.542   0.825
  171TIP3    H2  520   4.804   3.500   0.957
  172TIP3   OH2  521   3.094   0.327   0.289
  172TIP3    H1  522   3.140   0.398   0.245
  172TIP3    H2  523   3.120   0.334   0.381
  173TIP3   OH2  524   1.828   3.062   3.626
  173TIP3    H1  525   1.894   3.118   3.667
  173TIP3    H2  526   1.855   3.055   3.535
  174TIP3   OH2  527   5.606   1.305   5.073
  174TIP3    H1  528   5.623   1.380   5.130
  174TIP3    H2  529   5.572   1.344   4.992
  175TIP3   OH2  530   0.210   4.945   1.205
  175TIP3    H1  531   0.168   4.964   1.121
  175TIP3    H2  532   0.255   5.027   1.228
  176TIP3   OH2  533   1.498   0.685   3.647
  176TIP3    H1  534   1.525   0.752   3.583
  176TIP3    H2  535   1.487   0.606   3.595
  177TIP3   OH2  536   3.517   5.959   3.701
  177TIP3    H1  537   3.494   5.896   3.770
  177TIP3    H2  538   3.444   5.953   3.639
  178TIP3   OH2  539   2.415   1.508   3.477
  178TIP3    H1  540   2.490   1.471   3.430
  178TIP3    H2  541   2.432   1.487   3.569
  179TIP3   OH2  542   3.504   0.129   0.540
  179TIP3    H1  543   3.471   0.202   0.593
  179TIP3    H2  544   3.580   0.096   0.588
  180TIP3   OH2  545   0.584   4.285   0.916
  180TIP3    H1  546   0.643   4.345   0.870
  180TIP3    H2  547   0.499   4.299   0.874
  181TIP3   OH2  548   5.932   3.760   4.993
  181TIP3    H1  549   5.851   3.808   5.011
  181TIP3    H2  550   5.926   3.736   4.901
  182TIP3   OH2  551   5.347   0.296   1.755
  182TIP3    H1  552   5.410   0.360   1.720
  182TIP3    H2  553   5.362   0.298   1.850
  183TIP3   OH2  554   4.388   2.555   0.168
  183TIP3    H1  555   4.337   2.476   0.151
  183TIP3    H2  556   4.433   2.537   0.251
  184TIP3   OH2  557   1.102   2.477   0.193
  184TIP3    H1  558   1.185   2.439   0.163
  184TIP3    H2  559   1.070   2.526   0.117
  185TIP3   OH2  560   0.688   2.823   2.046
  185TIP3    H1  561   0.638   2.843   1.967
  185TIP3    H2  562   0.765   2.776   2.015
  186TIP3   OH2  563   2.132   4.277   3.625
  186TIP3    H1  564   2.200   4.227   3.581
  186TIP3    H2  565   2.053   4.262   3.572
  187TIP3   OH2  566   3.414   5.866   4.488
  187TIP3    H1  567   3.367   5.832   4.413
  187TIP3    H2  568   3.483   5.921   4.451
  188TIP3   OH2  569   0.924   2.128   2.005
  188TIP3    H1  570   0.832   2.148   1.987
  188TIP3    H2  571   0.923   2.082   2.089
  189TIP3   OH2  572   1.657   5.467   1.136
  189TIP3    H1  573   1.605   5.547   1.148
  189TIP3    H2  574   1.625   5.430   1.054
  190TIP3   OH2  575   2.276   1.686   2.225
  190TIP3    H1  576   2.243   1.742   2.295
  190TIP3    H2  577   2.211   1.694   2.155
  191TIP3   OH2  578   4.664   0.988   3.429
  191TIP3    H1  579   4.635   1.041   3.504
  191TIP3    H2  580   4.755   0.967   3.449
  192TIP3   OH2  581   2.318   3.693   0.932
  192TIP3    H1  582   2.291   3.785   0.930
  192TIP3    H2  583   2.267   3.655   1.004
  193TIP3   OH2  584   4.959   2.278   2.278
  193TIP3    H1  585   4.937   2.260   2.187
  193TIP3    H2  586   5.055   2.275   2.281
  194TIP3   OH2  587   5.168   1.987   0.255
  194TIP3    H1  588   5.247   1.943   0.287
  194TIP3    H2  589   5.100   1.920   0.260
  195TIP3   OH2  590   4.836   1.057   1.366
  195TIP3    H1  591   4.774   1.028   1.300
  195TIP3    H2  592   4.880   0.977   1.395
  196TIP3   OH2  593   3.804   0.461   0.002
  196TIP3    H1  594   3.737   0.487   0.065
  196TIP3    H2  595   3.859   0.539  -0.007
  197TIP3   OH2  596   4.491   1.308   3.823
  197TIP3    H1  597   4.573   1.348   3.852
  197TIP3    H2  598   4.424   1.350   3.876
  198TIP3   OH2  599   1.124   0.496   2.768
  198TIP3    H1  600   1.091   0.562   2.829
  198TIP3    H2  601   1.163   0.429   2.824
  199TIP3   OH2  602   3.842   2.361   2.468
  199TIP3    H1  603   3.899   2.286   2.451
  199TIP3    H2  604   3.838   2.407   2.384
  200TIP3   OH2  605   5.205   0.590   3.206
  200TIP3    H1  606   5.276   0.526   3.207
  200TIP3    H2  607   5.227   0.651   3.277
  201TIP3   OH2  608   5.119   1.859   3.541
  201TIP3    H1  609   5.201   1.877   3.585
  201TIP3    H2  610   5.144   1.832   3.453
  202TIP3   OH2  611   3.353   4.663   2.517
  202TIP3    H1  612   3.318   4.752   2.506
  202TIP3    H2  613   3.278   4.612   2.548
  203TIP3   OH2  614   3.343   2.531   3.077
  203TIP3    H1  615   3.423   2.515   3.127
  203TIP3    H2  616   3.332   2.453   3.023
  204TIP3   OH2  617   4.447   3.770   0.766
  204TIP3    H1  618   4.419   3.802   0.852
  204TIP3    H2  619   4.525   3.821   0.746
  205TIP3   OH2  620   3.555   1.477   4.874
  205TIP3    H1  621   3.626   1.536   4.850
  205TIP3    H2  622   3.531   1.434   4.792
  206TIP3   OH2  623   0.080   4.774   0.738
  206TIP3    H1  624   0.002   4.718   0.743
  206TIP3    H2  625   0.116   4.757   0.651
  207TIP3   OH2  626   5.223   3.673   3.788
  207TIP3    H1  627   5.271   3.614   3.730
  207TIP3    H2  628   5.272   3.755   3.785
  208TIP3   OH2  629   3.270   1.179   3.515
  208TIP3    H1  630   3.346   1.153   3.568
  208TIP3    H2  631   3.308   1.209   3.433
  209TIP3   OH2  632   0.662   5.322   0.273
  209TIP3    H1  633   0.634   5.402   0.318
  209TIP3    H2  634   0.591   5.260   0.287
  210TIP3   OH2  635   4.457   5.606   4.024
  210TIP3    H1  636   4.452   5.688   3.975
  210TIP3    H2  637   4.478   5.632   4.114
  211TIP3   OH2  638   0.598   3.870   2.446
  211TIP3    H1  639   0.570   3.859   2.537
  211TIP3    H2  640   0.660   3.943   2.450
  212TIP3   OH2  641   3.658   2.081   0.550
  212TIP3    H1  642   3.669   2.141   0.624
  212TIP3    H2  643   3.595   2.015   0.581
  213TIP3   OH2  644   0.593   1.103   5.031
  213TIP3    H1  645   0.547   1.042   4.973
  213TIP3    H2  646   0.589   1.187   4.986
  214TIP3   OH2  647   1.491   3.544   0.595
  214TIP3    H1  648   1.462   3.453   0.603
  214TIP3    H2  649   1.410   3.595   0.606
  215TIP3   OH2  650   3.533   3.592   0.885
  215TIP3    H1  651   3.606   3.551   0.933
  215TIP3    H2  652   3.553   3.577   0.793
  216TIP3   OH2  653   2.197   4.534   0.026
  216TIP3    H1  654   2.164   4.596   0.091
  216TIP3    H2  655   2.288   4.561   0.011
  217TIP3   OH2  656   6.208   4.113   4.597
  217TIP3    H1  657   6.148   4.058   4.648
  217TIP3    H2  658   6.268   4.051   4.556
  218TIP3   OH2  659   4.934   1.183   3.273
  218TIP3    H1  660   4.954   1.260   3.221
  218TIP3    H2  661   4.876   1.214   3.342
  219TIP3   OH2  662   3.216   5.750   0.055
  219TIP3    H1  663   3.283   5.763  -0.013
  219TIP3    H2  664   3.266   5.723   0.132
  220TIP3   OH2  665   3.351   1.643   1.450
  220TIP3    H1  666   3.419   1.583   1.479
  220TIP3    H2  667   3.398   1.712   1.403
  221TIP3   OH2  668   5.432   5.591   2.191
  221TIP3    H1  669   5.486   5.666   2.168
  221TIP3    H2  670   5.430   5.538   2.111
  222TIP3   OH2  671   2.239   3.443   1.811
  222TIP3    H1  672   2.255   3.481   1.724
  222TIP3    H2  673   2.308   3.481   1.866
  223TIP3   OH2  674   3.425   4.879   1.058
  223TIP3    H1  675   3.512   4.914   1.080
  223TIP3    H2  676   3.370   4.902   1.133
  224TIP3   OH2  677   2.092   1.571   2.869
  224TIP3    H1  678   2.128   1.628   2.802
  224TIP3    H2  679   2.087   1.485   2.828
  225TIP3   OH2  680   0.271   0.705   3.824
  225TIP3    H1  681   0.185   0.744   3.806
  225TIP3    H2  682   0.334   0.772   3.798
  226TIP3   OH2  683   4.035   3.139   0.139
  226TIP3    H1  684   4.008   3.213   0.084
  226TIP3    H2  685   3.970   3.136   0.209
  227TIP3   OH2  686   5.443   4.705   2.633
  227TIP3    H1  687   5.491   4.784   2.610
  227TIP3    H2  688   5.438   4.707   2.728
  228TIP3   OH2  689   3.518   3.612   3.549
  228TIP3    H1  690   3.600   3.565   3.567
  228TIP3    H2  691   3.541   3.674   3.480
  229TIP3   OH2  692   1.344   3.407   1.221
  229TIP3    H1  693   1.413   3.447   1.168
  229TIP3    H2  694   1.297   3.350   1.160
  230TIP3   OH2  695   5.693   1.853   4.108
  230TIP3    H1  696   5.651   1.854   4.022
  230TIP3    H2  697   5.647   1.922   4.158
  231TIP3   OH2  698   5.148   2.936   1.841
  231TIP3    H1  699   5.066   2.888   1.834
  231TIP3    H2  700   5.150   2.993   1.764
  232TIP3   OH2  701   1.390   4.087   3.459
  232TIP3    H1  702   1.295   4.096   3.454
  232TIP3    H2  703   1.420   4.170   3.495
  233TIP3   OH2  704   4.214   3.453   3.396
  233TIP3    H1  705   4.156   3.384   3.364
  233TIP3    H2  706   4.268   3.476   3.320
  234TIP3   OH2  707   4.678   5.260   4.640
  234TIP3    H1  708   4.757   5.230   4.596
  234TIP3    H2  709   4.607   5.233   4.582
  235TIP3   OH2  710   1.855   3.822   3.220
  235TIP3    H1  711   1.866   3.898   3.163
  235TIP3    H2  712   1.918   3.837   3.291
  236TIP3   OH2  713   2.338   0.128   3.608
  236TIP3    H1  714   2.272   0.157   3.546
  236TIP3    H2  715   2.397   0.203   3.617
  237TIP3   OH2  716   4.503   1.384   4.609
  237TIP3    H1  717   4.425   1.329   4.619
  237TIP3    H2  718   4.502   1.412   4.518
  238TIP3   OH2  719   1.331   0.282   1.925
  238TIP3    H1  720   1.236   0.286   1.921
  238TIP3    H2  721   1.361   0.353   1.869
  239TIP3   OH2  722   4.389   4.589   3.183
  239TIP3    H1  723   4.343   4.620   3.261
  239TIP3    H2  724   4.471   4.639   3.182
  240TIP3   OH2  725   6.130   4.845   3.368
  240TIP3    H1  726   6.152   4.792   3.291
  240TIP3    H2  727   6.194   4.916   3.367
  241TIP3   OH2  728   0.976   4.211   3.942
  241TIP3    H1  729   0.901   4.169   3.984
  241TIP3    H2  730   0.937   4.267   3.875
  242TIP3   OH2  731   3.075   3.356   1.896
  242TIP3    H1  732   3.018   3.330   1.969
  242TIP3    H2  733   3.161   3.322   1.921
  243TIP3   OH2  734   3.949   4.300   2.746
  243TIP3    H1  735   4.000   4.327   2.670
  243TIP3    H2  736   3.878   4.246   2.709
  244TIP3   OH2  737   3.524   0.623   2.383
  244TIP3    H1  738   3.489   0.689   2.444
  244TIP3    H2  739   3.448   0.568   2.362
  245TIP3   OH2  740   2.363   2.970   4.772
  245TIP3    H1  741   2.389   3.032   4.840
  245TIP3    H2  742   2.394   3.010   4.690
  246TIP3   OH2  743   3.100   4.460   3.173
  246TIP3    H1  744   3.187   4.467   3.132
  246TIP3    H2  745   3.097   4.534   3.233
  247TIP3   OH2  746   2.258   3.464   2.209
  247TIP3    H1  747   2.320   3.404   2.167
  247TIP3    H2  748   2.206   3.409   2.267
  248TIP3   OH2  749   2.633   4.437   2.867
  248TIP3    H1  750   2.680   4.354   2.863
  248TIP3    H2  751   2.609   4.446   2.959
  249TIP3   OH2  752   0.639   2.358   2.212
  249TIP3    H1  753   0.669   2.296   2.278
  249TIP3    H2  754   0.569   2.312   2.166
  250TIP3   OH2  755   1.067   4.695   3.232
  250TIP3    H1  756   1.053   4.636   3.158
  250TIP3    H2  757   1.077   4.637   3.307
  251TIP3   OH2  758   2.059   1.902   2.083
  251TIP3    H1  759   2.132   1.908   2.020
  251TIP3    H2  760   2.008   1.981   2.067
  252TIP3   OH2  761   3.967   3.217   1.702
  252TIP3    H1  762   3.991   3.274   1.629
  252TIP3    H2  763   4.010   3.255   1.778
  253TIP3   OH2  764   1.991   5.618   0.907
  253TIP3    H1  765   1.938   5.594   0.831
  253TIP3    H2  766   1.988   5.713   0.909
  254TIP3   OH2  767   4.710   0.115   4.321
  254TIP3    H1  768   4.780   0.090   4.381
  254TIP3    H2  769   4.755   0.150   4.244
  255TIP3   OH2  770   1.508   2.285   4.394
  255TIP3    H1  771   1.447   2.328   4.454
  255TIP3    H2  772   1.561   2.229   4.451
  256TIP3   OH2  773   6.095   5.579   1.354
  256TIP3    H1  774   6.075   5.609   1.265
  256TIP3    H2  775   6.073   5.653   1.410
  257TIP3   OH2  776   0.505   3.643   0.124
  257TIP3    H1  777   0.503   3.729   0.083
  257TIP3    H2  778   0.470   3.584   0.056
  258TIP3   OH2  779   4.255   2.876   4.066
  258TIP3    H1  780   4.285   2.869   3.975
  258TIP3    H2  781   4.193   2.949   4.065
  259TIP3   OH2  782   1.796   4.361   3.580
  259TIP3    H1  783   1.804   4.436   3.522
  259TIP3    H2  784   1.838   4.289   3.533
  260TIP3   OH2  785   0.843   4.918   2.921
  260TIP3    H1  786   0.750   4.941   2.921
  260TIP3    H2  787   0.888   5.001   2.905
  261TIP3   OH2  788   1.622   4.986   2.306
  261TIP3    H1  789   1.531   4.971   2.330
  261TIP3    H2  790   1.618   5.023   2.218
  262TIP3   OH2  791   6.276   3.560   2.852
  262TIP3    H1  792   6.207   3.623   2.874
  262TIP3    H2  793   6.231   3.475   2.849
  263TIP3   OH2  794   3.234   2.011   2.274
  263TIP3    H1  795   3.261   1.926   2.242
  263TIP3    H2  796   3.266   2.074   2.209
  264TIP3   OH2  797   6.298   4.535   4.046
  264TIP3    H1  798   6.252   4.561   4.126
  264TIP3    H2  799   6.387   4.514   4.075
  265TIP3   OH2  800   4.369   0.080   1.791
  265TIP3    H1  801   4.415   0.161   1.769
  265TIP3    H2  802   4.423   0.011   1.752
  266TIP3   OH2  803   1.911   0.212   4.915
  266TIP3    H1  804   1.944   0.260   4.839
  266TIP3    H2  805   1.866   0.279   4.967
  267TIP3   OH2  806   4.450   5.863   0.718
  267TIP3    H1  807   4.513   5.936   0.714
  267TIP3    H2  808   4.409   5.871   0.804
  268TIP3   OH2  809   3.784   2.810   3.088
  268TIP3    H1  810   3.859   2.772   3.041
  268TIP3    H2  811   3.707   2.771   3.045
  269TIP3   OH2  812   2.024   4.876   2.934
  269TIP3    H1  813   1.955   4.931   2.896
  269TIP3    H2  814   2.104   4.927   2.923
  270TIP3   OH2  815   3.748   5.838   2.331
  270TIP3    H1  816   3.748   5.743   2.341
  270TIP3    H2  817   3.797   5.854   2.250
  271TIP3   OH2  818   5.429   0.201   4.289
  271TIP3    H1  819   5.395   0.254   4.361
  271TIP3    H2  820   5.512   0.243   4.266
  272TIP3   OH2  821   4.757   3.848   1.152
  272TIP3    H1  822   4.807   3.920   1.114
  272TIP3    H2  823   4.752   3.869   1.246
  273TIP3   OH2  824   3.129   2.848   2.560
  273TIP3    H1  825   3.179   2.916   2.514
  273TIP3    H2  826   3.195   2.782   2.583
  274TIP3   OH2  827   0.607   5.586   0.402
  274TIP3    H1  828   0.618   5.549   0.490
  274TIP3    H2  829   0.535   5.649   0.411
  275TIP3   OH2  830   5.371   4.824   1.766
  275TIP3    H1  831   5.421   4.775   1.702
  275TIP3    H2  832   5.287   4.780   1.770
  276TIP3   OH2  833   4.273   5.056   2.388
  276TIP3    H1  834   4.222   4.980   2.418
  276TIP3    H2  835   4.327   5.079   2.464
  277TIP3   OH2  836   4.908   4.935   0.523
  277TIP3    H1  837   4.915   4.851   0.570
  277TIP3    H2  838   4.982   4.987   0.555
  278TIP3   OH2  839   0.754   3.943   0.075
  278TIP3    H1  840   0.797   3.905  -0.001
  278TIP3    H2  841   0.768   3.879   0.145
  279TIP3   OH2  842   4.415   3.162   0.460
  279TIP3    H1  843   4.329   3.203   0.447
  279TIP3    H2  844   4.448   3.148   0.371
  280TIP3   OH2  845   1.212   3.829   5.094
  280TIP3    H1  846   1.254   3.838   5.009
  280TIP3    H2  847   1.139   3.769   5.079
  281TIP3   OH2  848   2.126   4.496   3.770
  281TIP3    H1  849   2.160   4.471   3.855
  281TIP3    H2  850   2.123   4.414   3.720
  282TIP3   OH2  851   0.469   0.932   4.857
  282TIP3    H1  852   0.508   0.942   4.770
  282TIP3    H2  853   0.395   0.873   4.844
  283TIP3   OH2  854   4.232   4.952   1.877
  283TIP3    H1  855   4.223   4.859   1.857
  283TIP3    H2  856   4.237   4.956   1.973
  284TIP3   OH2  857   0.066   0.933   2.888
  284TIP3    H1  858   0.110   0.986   2.955
  284TIP3    H2  859  -0.007   0.891   2.935
  285TIP3   OH2  860   0.962   2.105   1.286
  285TIP3    H1  861   0.878   2.072   1.316
  285TIP3    H2  862   0.940   2.178   1.228
  286TIP3   OH2  863   2.278   5.474   0.031
  286TIP3    H1  864   2.204   5.477  -0.030
  286TIP3    H2  865   2.355   5.476  -0.025
  287TIP3   OH2  866   2.265   0.319   0.532
  287TIP3    H1  867   2.263   0.387   0.599
  287TIP3    H2  868   2.329   0.256   0.564
  288TIP3   OH2  869   3.421   3.370   3.655
  288TIP3    H1  870   3.492   3.323   3.701
  288TIP3    H2  871   3.465   3.446   3.616
  289TIP3   OH2  872   5.980   0.282   2.579
  289TIP3    H1  873   5.892   0.284   2.544
  289TIP3    H2  874   6.033   0.243   2.510
  290TIP3   OH2  875   5.685   3.907   3.499
  290TIP3    H1  876   5.633   3.884   3.576
  290TIP3    H2  877   5.649   3.991   3.471
  291TIP3   OH2  878   0.965   3.352   1.308
  291TIP3    H1  879   0.973   3.370   1.215
  291TIP3    H2  880   0.933   3.434   1.346
  292TIP3   OH2  881   1.639   0.860   3.491
  292TIP3    H1  882   1.725   0.872   3.530
  292TIP3    H2  883   1.655   0.807   3.413
  293TIP3   OH2  884   2.249   0.048   1.715
  293TIP3    H1  885   2.189   0.119   1.738
  293TIP3    H2  886   2.195  -0.013   1.665
  294TIP3   OH2  887   4.749   2.683   2.095
  294TIP3    H1  888   4.717   2.771   2.077
  294TIP3    H2  889   4.812   2.694   2.165
  295TIP3   OH2  890   3.887   0.814   3.821
  295TIP3    H1  891   3.882   0.905   3.793
  295TIP3    H2  892   3.874   0.763   3.740
  296TIP3   OH2  893   5.831   2.991   4.294
  296TIP3    H1  894   5.918   3.012   4.260
  296TIP3    H2  895   5.837   2.900   4.321
  297TIP3   OH2  896   4.929   4.679   0.660
  297TIP3    H1  897   4.977   4.704   0.739
  297TIP3    H2  898   4.980   4.607   0.623
  298TIP3   OH2  899   3.764   4.130   0.751
  298TIP3    H1  900   3.686   4.156   0.799
  298TIP3    H2  901   3.731   4.093   0.669
  299TIP3   OH2  902   4.370   2.539   3.009
  299TIP3    H1  903   4.305   2.472   3.031
  299TIP3    H2  904   4.320   2.606   2.961
  300TIP3   OH2  905   4.722   2.235   0.930
  300TIP3    H1  906   4.768   2.157   0.960
  300TIP3    H2  907   4.646   2.202   0.882
  301TIP3   OH2  908   5.893   1.176   4.132
  301TIP3    H1  909   5.909   1.098   4.080
  301TIP3    H2  910   5.975   1.190   4.181
  302TIP3   OH2  911   3.438   5.224   2.874
  302TIP3    H1  912   3.419   5.167   2.800
  302TIP3    H2  913   3.532   5.215   2.889
  303TIP3   OH2  914   4.920   0.120   1.531
  303TIP3    H1  915   4.971   0.039   1.524
  303TIP3    H2  916   4.949   0.161   1.613
  304TIP3   OH2  917   6.208   3.112   1.473
  304TIP3    H1  918   6.231   3.020   1.460
  304TIP3    H2  919   6.154   3.112   1.552
  305TIP3   OH2  920   4.157   4.883   2.940
  305TIP3    H1  921   4.246   4.919   2.932
  305TIP3    H2  922   4.100   4.958   2.921
  306TIP3   OH2  923   4.328   3.750   2.649
  306TIP3    H1  924   4.369   3.713   2.570
  306TIP3    H2  925   4.358   3.840   2.651
  307TIP3   OH2  926   3.752   5.017   4.861
  307TIP3    H1  927   3.741   5.098   4.811
  307TIP3    H2  928   3.826   5.035   4.919
  308TIP3   OH2  929   4.126   0.566   3.701
  308TIP3    H1  930   4.165   0.508   3.636
  308TIP3    H2  931   4.147   0.525   3.785
  309TIP3   OH2  932   3.826   3.570   3.092
  309TIP3    H1  933   3.842   3.504   3.025
  309TIP3    H2  934   3.913   3.594   3.124
  310TIP3   OH2  935   3.805   4.200   5.068
  310TIP3    H1  936   3.864   4.213   5.142
  310TIP3    H2  937   3.750   4.126   5.094
  311TIP3   OH2  938   3.703   4.655   4.445
  311TIP3    H1  939   3.709   4.600   4.367
  311TIP3    H2  940   3.624   4.624   4.490
  312TIP3   OH2  941   0.470   5.202   1.562
  312TIP3    H1  942   0.393   5.246   1.526
  312TIP3    H2  943   0.515   5.165   1.486
  313TIP3   OH2  944   6.004   4.656   0.945
  313TIP3    H1  945   5.957   4.700   0.874
  313TIP3    H2  946   6.005   4.564   0.919
  314TIP3   OH2  947   2.937   3.460   0.875
  314TIP3    H1  948   2.969   3.447   0.965
  314TIP3    H2  949   2.925   3.372   0.841
  315TIP3   OH2  950   2.208   4.944   1.930
  315TIP3    H1  951   2.184   4.913   2.018
  315TIP3    H2  952   2.234   4.865   1.883
  316TIP3   OH2  953   3.778   5.580   4.907
  316TIP3    H1  954   3.792   5.537   4.991
  316TIP3    H2  955   3.764   5.672   4.928
  317TIP3   OH2  956   2.106   1.909   3.304
  317TIP3    H1  957   2.028   1.877   3.350
  317TIP3    H2  958   2.115   2.000   3.334
  318TIP3   OH2  959   3.860   1.469   0.472
  318TIP3    H1  960   3.836   1.506   0.557
  318TIP3    H2  961   3.920   1.534   0.434
  319TIP3   OH2  962   2.974   2.148   0.737
  319TIP3    H1  963   2.922   2.209   0.684
  319TIP3    H2  964   3.059   2.192   0.746
  320TIP3   OH2  965   4.378   4.821   4.562
  320TIP3    H1  966   4.404   4.745   4.614
  320TIP3    H2  967   4.283   4.812   4.552
  321TIP3   OH2  968   5.243   3.409   1.024
  321TIP3    H1  969   5.156   3.376   1.002
  321TIP3    H2  970   5.302   3.358   0.969
  322TIP3   OH2  971   1.206   2.519   1.230
  322TIP3    H1  972   1.243   2.431   1.221
  322TIP3    H2  973   1.222   2.542   1.322
  323TIP3   OH2  974   4.706   0.577   2.221
  323TIP3    H1  975   4.714   0.671   2.202
  323TIP3    H2  976   4.742   0.567   2.309
  324TIP3   OH2  977   3.086   4.494   5.175
  324TIP3    H1  978   3.013   4.448   5.135
  324TIP3    H2  979   3.098   4.572   5.122
  325TIP3   OH2  980   1.618   0.136   1.992
  325TIP3    H1  981   1.544   0.134   1.931
  325TIP3    H2  982   1.688   0.179   1.942
  326TIP3   OH2  983   4.756   1.136   0.332
  326TIP3    H1  984   4.684   1.102   0.278
  326TIP3    H2  985   4.831   1.080   0.310
  327TIP3   OH2  986   4.675   3.309   1.984
  327TIP3    H1  987   4.655   3.395   1.947
  327TIP3    H2  988   4.603   3.290   2.044
  328TIP3   OH2  989   5.571   5.806   5.049
  328TIP3    H1  990   5.496   5.827   4.992
  328TIP3    H2  991   5.595   5.717   5.025
  329TIP3   OH2  992   4.430   4.317   0.505
  329TIP3    H1  993   4.347   4.364   0.513
  329TIP3    H2  994   4.493   4.383   0.477
  330TIP3   OH2  995   3.269   5.056   5.134
  330TIP3    H1  996   3.209   4.982   5.118
  330TIP3    H2  997   3.217   5.134   5.114
  331TIP3   OH2  998   2.757   2.339   1.349
  331TIP3    H1  999   2.702   2.338   1.427
  331TIP3    H2 1000   2.846   2.327   1.381
  332TIP3   OH2 1001   2.641   0.298   2.491
  332TIP3    H1 1002   2.677   0.368   2.437
  332TIP3    H2 1003   2.546   0.304   2.478
  333TIP3   OH2 1004   3.529   2.693   5.037
  333TIP3    H1 1005   3.553   2.618   5.091
  333TIP3    H2 1006   3.434   2.693   5.037
  334TIP3   OH2 1007   1.632   5.245   4.620
  334TIP3    H1 1008   1.704   5.304   4.598
  334TIP3    H2 1009   1.653   5.164   4.572
  335TIP3   OH2 1010   3.718   5.720   1.313
  335TIP3    H1 1011   3.782   5.782   1.277
  335TIP3    H2 1012   3.670   5.772   1.378
  336TIP3   OH2 1013   3.152   4.503   2.596
  336TIP3    H1 1014   3.171   4.483   2.688
  336TIP3    H2 1015   3.056   4.505   2.591
  337TIP3   OH2 1016   3.565   1.098   3.985
  337TIP3    H1 1017   3.579   1.191   4.002
  337TIP3    H2 1018   3.631   1.053   4.037
  338TIP3   OH2 1019   3.154   1.711   3.939
  338TIP3    H1 1020   3.216   1.732   3.870
  338TIP3    H2 1021   3.121   1.796   3.968
  339TIP3   OH2 1022   4.298   5.511   1.138
  339TIP3    H1 1023   4.350   5.431   1.143
  339TIP3    H2 1024   4.323   5.551   1.055
  340TIP3   OH2 1025   3.696   2.543   3.777
  340TIP3    H1 1026   3.669   2.477   3.713
  340TIP3    H2 1027   3.615   2.586   3.804
  341TIP3   OH2 1028   2.253   2.870   3.052
  341TIP3    H1 1029   2.342   2.905   3.062
  341TIP3    H2 1030   2.266   2.776   3.039
  342TIP3   OH2 1031   0.674   2.176   1.024
  342TIP3    H1 1032   0.743   2.226   1.068
  342TIP3    H2 1033   0.622   2.242   0.979
  343TIP3   OH2 1034   0.977   4.738   0.596
  343TIP3    H1 1035   0.903   4.740   0.656
  343TIP3    H2 1036   0.989   4.645   0.576
  344TIP3   OH2 1037   3.318   1.016   2.803
  344TIP3    H1 1038   3.382   1.079   2.770
  344TIP3    H2 1039   3.309   1.037   2.896
  345TIP3   OH2 1040   0.634   1.484   0.057
  345TIP3    H1 1041   0.661   1.419  -0.008
  345TIP3    H2 1042   0.673   1.452   0.139
  346TIP3   OH2 1043   1.071   1.892   1.637
  346TIP3    H1 1044   1.013   1.889   1.713
  346TIP3    H2 1045   1.055   1.810   1.591
  347TIP3   OH2 1046   1.763   4.704   4.011
  347TIP3    H1 1047   1.810   4.688   3.930
  347TIP3    H2 1048   1.674   4.728   3.983
  348TIP3   OH2 1049   6.212   1.607   1.318
  348TIP3    H1 1050   6.218   1.690   1.271
  348TIP3    H2 1051   6.303   1.579   1.331
  349TIP3   OH2 1052   4.212   5.661   2.324
  349TIP3    H1 1053   4.194   5.671   2.231
  349TIP3    H2 1054   4.305   5.637   2.328
  350TIP3   OH2 1055   3.338   1.816   1.697
  350TIP3    H1 1056   3.299   1.766   1.626
  350TIP3    H2 1057   3.433   1.809   1.682
  351TIP3   OH2 1058   0.609   4.461   1.145
  351TIP3    H1 1059   0.571   4.384   1.103
  351TIP3    H2 1060   0.578   4.458   1.235
  352TIP3   OH2 1061   0.205   1.507   4.804
  352TIP3    H1 1062   0.258   1.529   4.881
  352TIP3    H2 1063   0.181   1.415   4.816
  353TIP3   OH2 1064   2.926   0.870   0.291
  353TIP3    H1 1065   2.918   0.913   0.206
  353TIP3    H2 1066   2.921   0.776   0.271
  354TIP3   OH2 1067   3.950   1.477   4.654
  354TIP3    H1 1068   4.044   1.461   4.650
  354TIP3    H2 1069   3.922   1.432   4.734
  355TIP3   OH2 1070   2.312   3.307   1.374
  355TIP3    H1 1071   2.288   3.390   1.415
  355TIP3    H2 1072   2.290   3.241   1.439
  356TIP3   OH2 1073   0.069   3.933   5.110
  356TIP3    H1 1074   0.061   4.013   5.162
  356TIP3    H2 1075  -0.009   3.932   5.055
  357TIP3   OH2 1076   2.921   0.888   2.887
  357TIP3    H1 1077   2.859   0.869   2.957
  357TIP3    H2 1078   2.875   0.864   2.806
  358TIP3   OH2 1079   5.908   0.210   1.534
  358TIP3    H1 1080   5.853   0.256   1.471
  358TIP3    H2 1081   5.849   0.191   1.607
  359TIP3   OH2 1082   5.208   4.371   1.374
  359TIP3    H1 1083   5.296   4.398   1.400
  359TIP3    H2 1084   5.154   4.387   1.451
  360TIP3   OH2 1085   4.903   1.742   1.571
  360TIP3    H1 1086   4.991   1.706   1.563
  360TIP3    H2 1087   4.916   1.828   1.610
  361TIP3   OH2 1088   4.326   4.254   2.047
  361TIP3    H1 1089   4.382   4.278   2.121
  361TIP3    H2 1090   4.380   4.270   1.970
  362TIP3   OH2 1091   2.460   4.718   2.118
  362TIP3    H1 1092   2.511   4.797   2.095
  362TIP3    H2 1093   2.373   4.752   2.137
  363TIP3   OH2 1094   3.566   3.415   4.386
  363TIP3    H1 1095   3.513   3.495   4.384
  363TIP3    H2 1096   3.655   3.446   4.366
  364TIP3   OH2 1097   5.138   0.879   0.882
  364TIP3    H1 1098   5.154   0.789   0.854
  364TIP3    H2 1099   5.216   0.927   0.855
  365TIP3   OH2 1100   1.603   4.258   0.284
  365TIP3    H1 1101   1.518   4.233   0.249
  365TIP3    H2 1102   1.585   4.332   0.342
  366TIP3   OH2 1103   3.255   2.751   1.885
  366TIP3    H1 1104   3.244   2.753   1.790
  366TIP3    H2 1105   3.172   2.716   1.917
  367TIP3   OH2 1106   3.364   4.397   4.189
  367TIP3    H1 1107   3.458   4.390   4.205
  367TIP3    H2 1108   3.358   4.441   4.104
  368TIP3   OH2 1109   1.841   0.740   2.760
  368TIP3    H1 1110   1.927   0.699   2.766
  368TIP3    H2 1111   1.849   0.819   2.815
  369TIP3   OH2 1112   3.245   2.714   0.471
  369TIP3    H1 1113   3.339   2.732   0.466
  369TIP3    H2 1114   3.204   2.799   0.488
  370TIP3   OH2 1115   3.668   1.296   3.035
  370TIP3    H1 1116   3.624   1.345   2.966
  370TIP3    H2 1117   3.746   1.348   3.055
  371TIP3   OH2 1118   1.661   2.229   1.020
  371TIP3    H1 1119   1.577   2.247   1.063
  371TIP3    H2 1120   1.644   2.155   0.962
  372TIP3   OH2 1121   0.002   3.810   3.669
  372TIP3    H1 1122  -0.022   3.807   3.577
  372TIP3    H2 1123  -0.049   3.882   3.705
  373TIP3   OH2 1124   1.723   5.302   1.865
  373TIP3    H1 1125   1.784   5.276   1.934
  373TIP3    H2 1126   1.771   5.368   1.815
  374TIP3   OH2 1127   1.866   5.186   4.841
  374TIP3    H1 1128   1.925   5.159   4.911
  374TIP3    H2 1129   1.808   5.111   4.828
  375TIP3   OH2 1130   3.835   1.641   0.155
  375TIP3    H1 1131   3.774   1.589   0.103
  375TIP3    H2 1132   3.779   1.696   0.210
  376TIP3   OH2 1133   4.948   0.678   2.746
  376TIP3    H1 1134   5.020   0.641   2.797
  376TIP3    H2 1135   4.874   0.620   2.765
  377TIP3   OH2 1136   4.768   5.813   0.649
  377TIP3    H1 1137   4.751   5.885   0.588
  377TIP3    H2 1138   4.853   5.834   0.688
  378TIP3   OH2 1139   0.693   1.690   4.517
  378TIP3    H1 1140   0.772   1.708   4.567
  378TIP3    H2 1141   0.636   1.643   4.577
  379TIP3   OH2 1142   3.202   3.502   0.209
  379TIP3    H1 1143   3.175   3.589   0.239
  379TIP3    H2 1144   3.272   3.476   0.268
  380TIP3   OH2 1145   3.510   4.195   4.913
  380TIP3    H1 1146   3.513   4.226   5.003
  380TIP3    H2 1147   3.419   4.212   4.885
  381TIP3   OH2 1148   5.721   5.333   2.358
  381TIP3    H1 1149   5.637   5.354   2.317
  381TIP3    H2 1150   5.779   5.405   2.332
  382TIP3   OH2 1151   2.225   3.119   2.775
  382TIP3    H1 1152   2.311   3.155   2.752
  382TIP3    H2 1153   2.244   3.052   2.841
  383TIP3   OH2 1154   2.660   1.875   1.983
  383TIP3    H1 1155   2.755   1.885   1.987
  383TIP3    H2 1156   2.635   1.919   1.902
  384TIP3   OH2 1157   5.930   1.591   0.705
  384TIP3    H1 1158   5.955   1.517   0.760
  384TIP3    H2 1159   5.845   1.619   0.739
  385TIP3   OH2 1160   5.736   4.588   2.379
  385TIP3    H1 1161   5.661   4.569   2.323
  385TIP3    H2 1162   5.803   4.526   2.350
  386TIP3   OH2 1163   5.519   4.361   0.102
  386TIP3    H1 1164   5.475   4.401   0.026
  386TIP3    H2 1165   5.457   4.372   0.174
  387TIP3   OH2 1166   1.623   5.628   2.297
  387TIP3    H1 1167   1.560   5.650   2.228
  387TIP3    H2 1168   1.653   5.540   2.275
  388TIP3   OH2 1169   5.977   2.501   3.646
  388TIP3    H1 1170   5.989   2.569   3.580
  388TIP3    H2 1171   6.009   2.540   3.727
  389TIP3   OH2 1172   5.611   0.537   3.261
  389TIP3    H1 1173   5.604   0.442   3.267
  389TIP3    H2 1174   5.689   0.559   3.313
  390TIP3   OH2 1175   5.810   0.624   0.700
  390TIP3    H1 1176   5.903   0.603   0.697
  390TIP3    H2 1177   5.785   0.639   0.609
  391TIP3   OH2 1178   2.551   2.537   2.535
  391TIP3    H1 1179   2.552   2.611   2.473
  391TIP3    H2 1180   2.520   2.575   2.617
  392TIP3   OH2 1181   1.150   2.241   0.480
  392TIP3    H1 1182   1.228   2.203   0.440
  392TIP3    H2 1183   1.162   2.228   0.574
  393TIP3   OH2 1184   1.759   3.843   2.912
  393TIP3    H1 1185   1.724   3.756   2.894
  393TIP3    H2 1186   1.728   3.897   2.839
  394TIP3   OH2 1187   2.651   2.547   3.427
  394TIP3    H1 1188   2.706   2.604   3.480
  394TIP3    H2 1189   2.708   2.475   3.401
  395TIP3   OH2 1190   5.309   2.558   1.753
  395TIP3    H1 1191   5.324   2.652   1.761
  395TIP3    H2 1192   5.321   2.540   1.660
  396TIP3   OH2 1193   3.922   4.317   2.465
  396TIP3    H1 1194   3.925   4.408   2.436
  396TIP3    H2 1195   3.987   4.273   2.410
  397TIP3   OH2 1196   3.174   2.316   2.233
  397TIP3    H1 1197   3.094   2.280   2.272
  397TIP3    H2 1198   3.153   2.325   2.140
  398TIP3   OH2 1199   5.099   4.497   1.582
  398TIP3    H1 1200   5.118   4.589   1.597
  398TIP3    H2 1201   5.115   4.455   1.666
  399TIP3   OH2 1202   1.137   2.876   3.505
  399TIP3    H1 1203   1.217   2.859   3.455
  399TIP3    H2 1204   1.086   2.795   3.495
  400TIP3   OH2 1205   5.121   5.878   1.514
  400TIP3    H1 1206   5.183   5.827   1.462
  400TIP3    H2 1207   5.079   5.937   1.451
  401TIP3   OH2 1208   5.223   0.552   3.556
  401TIP3    H1 1209   5.312   0.525   3.580
  401TIP3    H2 1210   5.178   0.469   3.539
  402TIP3   OH2 1211   4.243   0.735   1.162
  402TIP3    H1 1212   4.148   0.723   1.155
  402TIP3    H2 1213   4.254   0.802   1.229
  403TIP3   OH2 1214   3.735   2.675   2.609
  403TIP3    H1 1215   3.674   2.686   2.536
  403TIP3    H2 1216   3.785   2.757   2.610
  404TIP3   OH2 1217   5.168   5.447   0.647
  404TIP3    H1 1218   5.127   5.425   0.563
  404TIP3    H2 1219   5.250   5.397   0.647
  405TIP3   OH2 1220   0.754   4.735   0.740
  405TIP3    H1 1221   0.724   4.644   0.747
  405TIP3    H2 1222   0.703   4.782   0.807
  406TIP3   OH2 1223   4.341   4.082   4.866
  406TIP3    H1 1224   4.410   4.135   4.906
  406TIP3    H2 1225   4.259   4.122   4.895
  407TIP3   OH2 1226   0.036   5.419   4.535
  407TIP3    H1 1227   0.015   5.485   4.602
  407TIP3    H2 1228   0.009   5.336   4.574
  408TIP3   OH2 1229   1.051   0.352   3.845
  408TIP3    H1 1230   1.067   0.382   3.934
  408TIP3    H2 1231   1.089   0.421   3.790
  409TIP3   OH2 1232   3.853   5.480   5.147
  409TIP3    H1 1233   3.849   5.435   5.232
  409TIP3    H2 1234   3.939   5.522   5.147
  410TIP3   OH2 1235   4.431   0.812   3.897
  410TIP3    H1 1236   4.471   0.796   3.811
  410TIP3    H2 1237   4.417   0.725   3.933
  411TIP3   OH2 1238   4.104   2.272   4.271
  411TIP3    H1 1239   4.028   2.222   4.301
  411TIP3    H2 1240   4.143   2.217   4.203
  412TIP3   OH2 1241   1.851   4.061   4.032
  412TIP3    H1 1242   1.916   4.126   4.008
  412TIP3    H2 1243   1.870   3.985   3.977
  413TIP3   OH2 1244   4.401   5.208   5.002
  413TIP3    H1 1245   4.362   5.254   4.928
  413TIP3    H2 1246   4.380   5.263   5.078
  414TIP3   OH2 1247   4.284   5.143   4.576
  414TIP3    H1 1248   4.321   5.058   4.600
  414TIP3    H2 1249   4.355   5.188   4.530
  415TIP3   OH2 1250   4.473   3.673   1.199
  415TIP3    H1 1251   4.532   3.605   1.231
  415TIP3    H2 1252   4.524   3.720   1.133
  416TIP3   OH2 1253   3.330   3.309   5.136
  416TIP3    H1 1254   3.328   3.224   5.092
  416TIP3    H2 1255   3.418   3.313   5.175
  417TIP3   OH2 1256   6.328   3.405   4.275
  417TIP3    H1 1257   6.421   3.398   4.299
  417TIP3    H2 1258   6.301   3.491   4.308
  418TIP3   OH2 1259   3.251   0.337   4.905
  418TIP3    H1 1260   3.314   0.386   4.852
  418TIP3    H2 1261   3.176   0.324   4.847
  419TIP3   OH2 1262   3.184   1.940   4.426
  419TIP3    H1 1263   3.092   1.915   4.436
  419TIP3    H2 1264   3.232   1.863   4.457
  420TIP3   OH2 1265   3.720   5.182   3.727
  420TIP3    H1 1266   3.766   5.098   3.726
  420TIP3    H2 1267   3.783   5.243   3.764
  421TIP3   OH2 1268   0.767   5.750   0.009
  421TIP3    H1 1269   0.711   5.685   0.053
  421TIP3    H2 1270   0.711   5.787  -0.059
  422TIP3   OH2 1271   1.300   5.844   4.381
  422TIP3    H1 1272   1.384   5.863   4.422
  422TIP3    H2 1273   1.245   5.920   4.402
  423TIP3   OH2 1274   1.924   3.702   4.005
  423TIP3    H1 1275   1.922   3.755   3.924
  423TIP3    H2 1276   1.996   3.738   4.055
  424TIP3   OH2 1277   4.214   4.116   0.145
  424TIP3    H1 1278   4.293   4.135   0.196
  424TIP3    H2 1279   4.221   4.022   0.126
  425TIP3   OH2 1280   1.084   1.914   3.146
  425TIP3    H1 1281   0.997   1.951   3.127
  425TIP3    H2 1282   1.096   1.846   3.080
  426TIP3   OH2 1283   1.766   1.663   1.581
  426TIP3    H1 1284   1.712   1.673   1.502
  426TIP3    H2 1285   1.843   1.717   1.564
  427TIP3   OH2 1286   0.769   3.481   0.347
  427TIP3    H1 1287   0.850   3.431   0.337
  427TIP3    H2 1288   0.739   3.459   0.435
  428TIP3   OH2 1289   5.137   3.886   3.242
  428TIP3    H1 1290   5.127   3.825   3.316
  428TIP3    H2 1291   5.058   3.873   3.190
  429TIP3   OH2 1292   0.342   1.956   3.591
  429TIP3    H1 1293   0.367   1.882   3.536
  429TIP3    H2 1294   0.387   1.940   3.674
  430TIP3   OH2 1295   5.111   4.924   2.861
  430TIP3    H1 1296   5.126   5.018   2.858
  430TIP3    H2 1297   5.064   4.910   2.943
  431TIP3   OH2 1298   6.368   3.528   3.209
  431TIP3    H1 1299   6.417   3.447   3.193
  431TIP3    H2 1300   6.280   3.508   3.180
  432TIP3   OH2 1301   2.855   3.169   1.721
  432TIP3    H1 1302   2.823   3.083   1.694
  432TIP3    H2 1303   2.940   3.150   1.762
  433TIP3   OH2 1304   6.036   5.689   0.077
  433TIP3    H1 1305   6.108   5.692   0.014
  433TIP3    H2 1306   6.059   5.618   0.137
  434TIP3   OH2 1307   0.703   3.188   4.241
  434TIP3    H1 1308   0.787   3.169   4.281
  434TIP3    H2 1309   0.655   3.106   4.244
  435TIP3   OH2 1310   0.012   2.495   4.968
  435TIP3    H1 1311  -0.039   2.561   4.920
  435TIP3    H2 1312   0.049   2.439   4.900
  436TIP3   OH2 1313   0.924   0.121   0.669
  436TIP3    H1 1314   0.936   0.207   0.708
  436TIP3    H2 1315   0.877   0.137   0.587
  437TIP3   OH2 1316   1.047   3.314   4.250
  437TIP3    H1 1317   0.977   3.376   4.270
  437TIP3    H2 1318   1.122   3.370   4.230
  438TIP3   OH2 1319   0.022   2.565   4.328
  438TIP3    H1 1320  -0.058   2.522   4.297
  438TIP3    H2 1321   0.072   2.496   4.370
  439TIP3   OH2 1322   4.479   3.630   2.460
  439TIP3    H1 1323   4.516   3.697   2.403
  439TIP3    H2 1324   4.471   3.552   2.405
  440TIP3   OH2 1325   0.076   2.869   0.978
  440TIP3    H1 1326   0.040   2.798   1.031
  440TIP3    H2 1327   0.080   2.833   0.889
  441TIP3   OH2 1328   2.191   0.622   4.288
  441TIP3    H1 1329   2.173   0.716   4.284
  441TIP3    H2 1330   2.155   0.594   4.372
  442TIP3   OH2 1331   3.001   3.959   4.137
  442TIP3    H1 1332   2.944   3.999   4.203
  442TIP3    H2 1333   2.946   3.955   4.058
  443TIP3   OH2 1334   0.030   1.712   2.827
  443TIP3    H1 1335  -0.037   1.747   2.886
  443TIP3    H2 1336   0.113   1.732   2.870
  444TIP3   OH2 1337   0.133   0.925   2.244
  444TIP3    H1 1338   0.175   0.845   2.277
  444TIP3    H2 1339   0.043   0.899   2.226
  445TIP3   OH2 1340   5.691   1.667   1.708
  445TIP3    H1 1341   5.658   1.738   1.652
  445TIP3    H2 1342   5.786   1.674   1.700
  446TIP3   OH2 1343   1.386   3.061   4.562
  446TIP3    H1 1344   1.315   2.997   4.555
  446TIP3    H2 1345   1.423   3.065   4.474
  447TIP3   OH2 1346   2.812   4.591   2.082
  447TIP3    H1 1347   2.889   4.550   2.120
  447TIP3    H2 1348   2.739   4.561   2.137
  448TIP3   OH2 1349   1.156   5.256   4.401
  448TIP3    H1 1350   1.085   5.225   4.456
  448TIP3    H2 1351   1.235   5.242   4.454
  449TIP3   OH2 1352   0.090   5.009   0.937
  449TIP3    H1 1353   0.173   4.986   0.894
  449TIP3    H2 1354   0.037   4.930   0.931
  450TIP3   OH2 1355   4.989   1.267   2.977
  450TIP3    H1 1356   4.949   1.346   3.013
  450TIP3    H2 1357   4.915   1.217   2.942
  451TIP3   OH2 1358   3.435   3.527   2.220
  451TIP3    H1 1359   3.489   3.524   2.141
  451TIP3    H2 1360   3.474   3.462   2.278
  452TIP3   OH2 1361   0.736   4.451   0.736
  452TIP3    H1 1362   0.826   4.451   0.704
  452TIP3    H2 1363   0.683   4.441   0.657
  453TIP3   OH2 1364   3.517   0.701   1.567
  453TIP3    H1 1365   3.439   0.648   1.580
  453TIP3    H2 1366   3.579   0.669   1.632
  454TIP3   OH2 1367   3.458   5.538   4.865
  454TIP3    H1 1368   3.466   5.631   4.845
  454TIP3    H2 1369   3.489   5.531   4.955
  455TIP3   OH2 1370   2.004   4.490   1.288
  455TIP3    H1 1371   1.908   4.489   1.288
  455TIP3    H2 1372   2.028   4.527   1.203
  456TIP3   OH2 1373   0.147   4.473   2.764
  456TIP3    H1 1374   0.105   4.416   2.700
  456TIP3    H2 1375   0.220   4.422   2.798
  457TIP3   OH2 1376   4.297   2.716   1.039
  457TIP3    H1 1377   4.210   2.698   1.002
  457TIP3    H2 1378   4.301   2.811   1.045
  458TIP3   OH2 1379   3.543   0.361   4.833
  458TIP3    H1 1380   3.494   0.291   4.790
  458TIP3    H2 1381   3.592   0.317   4.902
  459TIP3   OH2 1382   1.633   3.963   4.959
  459TIP3    H1 1383   1.680   4.023   4.901
  459TIP3    H2 1384   1.618   3.886   4.906
  460TIP3   OH2 1385   2.018   2.390   0.632
  460TIP3    H1 1386   2.031   2.376   0.538
  460TIP3    H2 1387   2.085   2.454   0.656
  461TIP3   OH2 1388   4.721   5.595   5.101
  461TIP3    H1 1389   4.790   5.536   5.130
  461TIP3    H2 1390   4.704   5.571   5.010
  462TIP3   OH2 1391   3.062   2.748   0.292
  462TIP3    H1 1392   3.136   2.719   0.345
  462TIP3    H2 1393   3.068   2.844   0.292
  463TIP3   OH2 1394   3.256   2.143   4.244
  463TIP3    H1 1395   3.214   2.078   4.300
  463TIP3    H2 1396   3.293   2.207   4.304
  464TIP3   OH2 1397   4.589   2.090   2.633
  464TIP3    H1 1398   4.613   2.005   2.594
  464TIP3    H2 1399   4.567   2.145   2.558
  465TIP3   OH2 1400   5.893   1.798   1.012
  465TIP3    H1 1401   5.945   1.878   1.020
  465TIP3    H2 1402   5.957   1.728   1.005
  466TIP3   OH2 1403   4.421   1.058   1.180
  466TIP3    H1 1404   4.510   1.024   1.182
  466TIP3    H2 1405   4.380   1.025   1.260
  467TIP3   OH2 1406   4.706   3.106   3.769
  467TIP3    H1 1407   4.647   3.080   3.840
  467TIP3    H2 1408   4.735   3.194   3.794
  468TIP3   OH2 1409   0.213   4.371   4.663
  468TIP3    H1 1410   0.189   4.280   4.644
  468TIP3    H2 1411   0.175   4.421   4.590
  469TIP3   OH2 1412   0.517   5.931   1.429
  469TIP3    H1 1413   0.566   5.970   1.357
  469TIP3    H2 1414   0.470   6.005   1.469
  470TIP3   OH2 1415   4.233   5.717   1.685
  470TIP3    H1 1416   4.315   5.678   1.715
  470TIP3    H2 1417   4.220   5.792   1.742
  471TIP3   OH2 1418   5.508   0.488   1.594
  471TIP3    H1 1419   5.579   0.485   1.658
  471TIP3    H2 1420   5.542   0.543   1.523
  472TIP3   OH2 1421   2.105   5.328   1.797
  472TIP3    H1 1422   2.051   5.251   1.812
  472TIP3    H2 1423   2.195   5.296   1.805
  473TIP3   OH2 1424   1.314   0.788   3.137
  473TIP3    H1 1425   1.299   0.726   3.065
  473TIP3    H2 1426   1.402   0.822   3.122
  474TIP3   OH2 1427   4.998   3.407   3.461
  474TIP3    H1 1428   5.036   3.446   3.381
  474TIP3    H2 1429   5.074   3.372   3.508
  475TIP3   OH2 1430   2.123   1.764   4.661
  475TIP3    H1 1431   2.066   1.760   4.738
  475TIP3    H2 1432   2.131   1.673   4.633
  476TIP3   OH2 1433   3.775   3.740   0.628
  476TIP3    H1 1434   3.809   3.754   0.717
  476TIP3    H2 1435   3.853   3.730   0.574
  477TIP3   OH2 1436   0.179   5.227   3.568
  477TIP3    H1 1437   0.126   5.153   3.538
  477TIP3    H2 1438   0.156   5.237   3.661
  478TIP3   OH2 1439   4.141   0.196   0.839
  478TIP3    H1 1440   4.147   0.216   0.745
  478TIP3    H2 1441   4.082   0.263   0.874
  479TIP3   OH2 1442   5.499   3.469   1.507
  479TIP3    H1 1443   5.555   3.419   1.447
  479TIP3    H2 1444   5.411   3.461   1.470
  480TIP3   OH2 1445   4.907   4.277   1.784
  480TIP3    H1 1446   4.842   4.346   1.774
  480TIP3    H2 1447   4.866   4.214   1.844
  481TIP3   OH2 1448   0.500   5.567   2.743
  481TIP3    H1 1449   0.559   5.642   2.742
  481TIP3    H2 1450   0.533   5.509   2.674
  482TIP3   OH2 1451   0.151   5.587   1.172
  482TIP3    H1 1452   0.081   5.580   1.107
  482TIP3    H2 1453   0.218   5.642   1.130
  483TIP3   OH2 1454   2.500   1.830   0.890
  483TIP3    H1 1455   2.504   1.925   0.877
  483TIP3    H2 1456   2.533   1.817   0.979
  484TIP3   OH2 1457   0.683   1.726   3.432
  484TIP3    H1 1458   0.675   1.765   3.518
  484TIP3    H2 1459   0.629   1.647   3.436
  485TIP3   OH2 1460   1.814   3.741  -0.029
  485TIP3    H1 1461   1.839   3.774  -0.116
  485TIP3    H2 1462   1.897   3.720   0.013
  486TIP3   OH2 1463   1.201   4.688   1.470
  486TIP3    H1 1464   1.151   4.616   1.431
  486TIP3    H2 1465   1.246   4.649   1.545
  487TIP3   OH2 1466   4.672   4.419   1.792
  487TIP3    H1 1467   4.658   4.504   1.834
  487TIP3    H2 1468   4.584   4.388   1.771
  488TIP3   OH2 1469   3.422   0.182   1.601
  488TIP3    H1 1470   3.447   0.254   1.543
  488TIP3    H2 1471   3.505   0.138   1.622
  489TIP3   OH2 1472   3.773   5.072   0.375
  489TIP3    H1 1473   3.733   5.079   0.461
  489TIP3    H2 1474   3.758   4.982   0.348
  490TIP3   OH2 1475   3.348   1.077   1.203
  490TIP3    H1 1476   3.386   1.085   1.291
  490TIP3    H2 1477   3.341   0.982   1.189
  491TIP3   OH2 1478   2.081   3.299   3.747
  491TIP3    H1 1479   2.138   3.268   3.676
  491TIP3    H2 1480   2.129   3.279   3.827
  492TIP3   OH2 1481   3.700   2.040   3.824
  492TIP3    H1 1482   3.708   2.134   3.840
  492TIP3    H2 1483   3.606   2.026   3.811
  493TIP3   OH2 1484   1.115   1.157   2.352
  493TIP3    H1 1485   1.083   1.168   2.263
  493TIP3    H2 1486   1.148   1.067   2.355
  494TIP3   OH2 1487   0.186   3.426   2.412
  494TIP3    H1 1488   0.185   3.456   2.321
  494TIP3    H2 1489   0.271   3.454   2.446
  495TIP3   OH2 1490   2.638   4.907   1.107
  495TIP3    H1 1491   2.617   4.930   1.017
  495TIP3    H2 1492   2.590   4.971   1.160
  496TIP3   OH2 1493   0.854   2.005   3.026
  496TIP3    H1 1494   0.895   1.965   2.950
  496TIP3    H2 1495   0.766   1.967   3.028
  497TIP3   OH2 1496   4.761   1.788   4.799
  497TIP3    H1 1497   4.751   1.785   4.894
  497TIP3    H2 1498   4.728   1.703   4.770
  498TIP3   OH2 1499   3.724   4.991   2.656
  498TIP3    H1 1500   3.768   4.974   2.573
  498TIP3    H2 1501   3.681   4.908   2.678
  499TIP3   OH2 1502   5.606   0.168   0.589
  499TIP3    H1 1503   5.675   0.117   0.545
  499TIP3    H2 1504   5.628   0.162   0.682
  500TIP3   OH2 1505   1.728   0.698   1.270
  500TIP3    H1 1506   1.811   0.673   1.309
  500TIP3    H2 1507   1.742   0.690   1.175
  501TIP3   OH2 1508   6.118   4.327   4.978
  501TIP3    H1 1509   6.069   4.248   5.000
  501TIP3    H2 1510   6.161   4.351   5.060
  502TIP3   OH2 1511   2.533   3.323   4.186
  502TIP3    H1 1512   2.475   3.320   4.262
  502TIP3    H2 1513   2.584   3.404   4.199
  503TIP3   OH2 1514   3.755   1.691   4.850
  503TIP3    H1 1515   3.831   1.704   4.906
  503TIP3    H2 1516   3.683   1.734   4.896
  504TIP3   OH2 1517   0.149   5.048   1.542
  504TIP3    H1 1518   0.113   4.973   1.589
  504TIP3    H2 1519   0.241   5.025   1.528
  505TIP3   OH2 1520   0.655   2.725   3.551
  505TIP3    H1 1521   0.745   2.735   3.583
  505TIP3    H2 1522   0.605   2.700   3.629
  506TIP3   OH2 1523   2.411   5.860   4.331
  506TIP3    H1 1524   2.393   5.936   4.275
  506TIP3    H2 1525   2.463   5.895   4.402
  507TIP3   OH2 1526   6.319   4.483   0.125
  507TIP3    H1 1527   6.246   4.429   0.154
  507TIP3    H2 1528   6.317   4.559   0.183
  508TIP3   OH2 1529   2.230   1.015   0.590
  508TIP3    H1 1530   2.270   1.097   0.619
  508TIP3    H2 1531   2.255   1.007   0.498
  509TIP3   OH2 1532   1.407   3.865   1.979
  509TIP3    H1 1533   1.473   3.898   2.039
  509TIP3    H2 1534   1.359   3.943   1.950
  510TIP3   OH2 1535   4.053   0.997   2.799
  510TIP3    H1 1536   4.085   0.985   2.888
  510TIP3    H2 1537   4.063   0.911   2.757
  511TIP3   OH2 1538   0.115   2.617   0.349
  511TIP3    H1 1539   0.143   2.553   0.284
  511TIP3    H2 1540   0.140   2.579   0.433
  512TIP3   OH2 1541   1.993   4.822   0.636
  512TIP3    H1 1542   1.995   4.884   0.564
  512TIP3    H2 1543   2.078   4.833   0.679
  513TIP3   OH2 1544   2.706   3.856   4.294
  513TIP3    H1 1545   2.666   3.819   4.373
  513TIP3    H2 1546   2.767   3.922   4.327
  514TIP3   OH2 1547   2.558   4.024   2.490
  514TIP3    H1 1548   2.466   4.036   2.466
  514TIP3    H2 1549   2.567   3.930   2.505
  515TIP3   OH2 1550   5.782   5.000   2.646
  515TIP3    H1 1551   5.745   4.952   2.572
  515TIP3    H2 1552   5.832   4.935   2.695
  516TIP3   OH2 1553   1.739   2.500   3.552
  516TIP3    H1 1554   1.736   2.405   3.562
  516TIP3    H2 1555   1.814   2.527   3.604
  517TIP3   OH2 1556   1.571   0.857   2.516
  517TIP3    H1 1557   1.656   0.889   2.487
  517TIP3    H2 1558   1.514   0.866   2.440
  518TIP3   OH2 1559   0.222   5.256   4.671
  518TIP3    H1 1560   0.219   5.275   4.764
  518TIP3    H2 1561   0.309   5.286   4.643
  519TIP3   OH2 1562   5.795   4.225   4.472
  519TIP3    H1 1563   5.741   4.302   4.492
  519TIP3    H2 1564   5.880   4.262   4.446
  520TIP3   OH2 1565   2.993   1.631   0.598
  520TIP3    H1 1566   2.960   1.719   0.615
  520TIP3    H2 1567   3.014   1.631   0.505
  521TIP3   OH2 1568   5.365   0.522   1.033
  521TIP3    H1 1569   5.281   0.490   1.064
  521TIP3    H2 1570   5.407   0.560   1.110
  522TIP3   OH2 1571   2.679   4.511   3.973
  522TIP3    H1 1572   2.725   4.429   3.960
  522TIP3    H2 1573   2.658   4.513   4.066
  523TIP3   OH2 1574   3.981   5.311   0.873
  523TIP3    H1 1575   4.038   5.235   0.879
  523TIP3    H2 1576   3.965   5.337   0.964
  524TIP3   OH2 1577   0.393   1.857   1.067
  524TIP3    H1 1578   0.460   1.793   1.094
  524TIP3    H2 1579   0.380   1.840   0.973
  525TIP3   OH2 1580   5.838   5.400   4.636
  525TIP3    H1 1581   5.772   5.467   4.653
  525TIP3    H2 1582   5.866   5.372   4.723
  526TIP3   OH2 1583   1.903   0.906   2.950
  526TIP3    H1 1584   1.896   0.999   2.969
  526TIP3    H2 1585   1.874   0.863   3.030
  527TIP3   OH2 1586   0.469   5.652   4.765
  527TIP3    H1 1587   0.531   5.681   4.698
  527TIP3    H2 1588   0.386   5.695   4.741
  528TIP3   OH2 1589   6.062   4.969   0.722
  528TIP3    H1 1590   5.984   5.024   0.729
  528TIP3    H2 1591   6.045   4.912   0.648
  529TIP3   OH2 1592   5.339   4.009   2.729
  529TIP3    H1 1593   5.356   4.103   2.723
  529TIP3    H2 1594   5.332   3.980   2.638
  530TIP3   OH2 1595   2.228   4.762   2.642
  530TIP3    H1 1596   2.236   4.715   2.725
  530TIP3    H2 1597   2.318   4.775   2.613
  531TIP3   OH2 1598   0.094   3.240   1.576
  531TIP3    H1 1599   0.088   3.183   1.652
  531TIP3    H2 1600   0.031   3.203   1.514
  532TIP3   OH2 1601   2.661   2.358   1.589
  532TIP3    H1 1602   2.605   2.436   1.595
  532TIP3    H2 1603   2.638   2.307   1.667
  533TIP3   OH2 1604   5.220   2.459  -0.022
  533TIP3    H1 1605   5.217   2.471  -0.117
  533TIP3    H2 1606   5.195   2.544   0.014
  534TIP3   OH2 1607   1.703   5.582   0.313
  534TIP3    H1 1608   1.620   5.617   0.343
  534TIP3    H2 1609   1.707   5.605   0.220
  535TIP3   OH2 1610   0.280   4.146   3.770
  535TIP3    H1 1611   0.367   4.183   3.790
  535TIP3    H2 1612   0.267   4.079   3.837
  536TIP3   OH2 1613   3.761   0.533   1.042
  536TIP3    H1 1614   3.694   0.579   0.991
  536TIP3    H2 1615   3.722   0.521   1.128
  537TIP3   OH2 1616   1.285   1.689   1.317
  537TIP3    H1 1617   1.266   1.771   1.272
  537TIP3    H2 1618   1.205   1.638   1.309
  538TIP3   OH2 1619   5.838   5.550   2.249
  538TIP3    H1 1620   5.797   5.606   2.184
  538TIP3    H2 1621   5.931   5.547   2.223
  539TIP3   OH2 1622   6.235   5.947   3.520
  539TIP3    H1 1623   6.281   5.883   3.464
  539TIP3    H2 1624   6.150   5.907   3.536
  540TIP3   OH2 1625   4.481   4.739   3.739
  540TIP3    H1 1626   4.399   4.695   3.761
  540TIP3    H2 1627   4.500   4.710   3.650
  541TIP3   OH2 1628   5.876   4.220   0.062
  541TIP3    H1 1629   5.933   4.199  -0.012
  541TIP3    H2 1630   5.892   4.313   0.080
  542TIP3   OH2 1631   1.579   1.947   2.734
  542TIP3    H1 1632   1.671   1.922   2.728
  542TIP3    H2 1633   1.532   1.863   2.734
  543TIP3   OH2 1634   1.733   4.804   2.484
  543TIP3    H1 1635   1.697   4.864   2.418
  543TIP3    H2 1636   1.828   4.807   2.469
  544TIP3   OH2 1637   0.122   4.012   0.635
  544TIP3    H1 1638   0.044   3.956   0.632
  544TIP3    H2 1639   0.150   4.008   0.726
  545TIP3   OH2 1640   2.229   1.793   1.540
  545TIP3    H1 1641   2.225   1.887   1.519
  545TIP3    H2 1642   2.289   1.757   1.475
  546TIP3   OH2 1643   5.626   2.311   2.833
  546TIP3    H1 1644   5.603   2.248   2.765
  546TIP3    H2 1645   5.721   2.314   2.832
  547TIP3   OH2 1646   3.062   2.123   4.841
  547TIP3    H1 1647   3.092   2.032   4.845
  547TIP3    H2 1648   3.004   2.125   4.764
  548TIP3   OH2 1649   2.233   2.300   3.937
  548TIP3    H1 1650   2.259   2.386   3.970
  548TIP3    H2 1651   2.149   2.315   3.893
  549TIP3   OH2 1652   5.845   5.133   0.726
  549TIP3    H1 1653   5.772   5.142   0.788
  549TIP3    H2 1654   5.805   5.148   0.640
  550TIP3   OH2 1655   0.154   5.933   3.913
  550TIP3    H1 1656   0.169   5.997   3.982
  550TIP3    H2 1657   0.174   5.980   3.832
  551TIP3   OH2 1658   1.778   3.599   0.611
  551TIP3    H1 1659   1.690   3.636   0.625
  551TIP3    H2 1660   1.776   3.515   0.658
  552TIP3   OH2 1661   2.157   4.104   2.924
  552TIP3    H1 1662   2.219   4.110   2.852
  552TIP3    H2 1663   2.109   4.023   2.908
  553TIP3   OH2 1664   6.192   1.798   0.877
  553TIP3    H1 1665   6.118   1.829   0.823
  553TIP3    H2 1666   6.162   1.715   0.913
  554TIP3   OH2 1667   3.188   4.469   2.872
  554TIP3    H1 1668   3.178   4.376   2.853
  554TIP3    H2 1669   3.266   4.474   2.928
  555TIP3   OH2 1670   4.449   1.653   2.897
  555TIP3    H1 1671   4.394   1.576   2.886
  555TIP3    H2 1672   4.389   1.727   2.888
  556TIP3   OH2 1673   5.836   0.801   0.447
  556TIP3    H1 1674   5.913   0.844   0.485
  556TIP3    H2 1675   5.872   0.727   0.398
  557TIP3   OH2 1676   5.541   1.799   1.520
  557TIP3    H1 1677   5.503   1.879   1.484
  557TIP3    H2 1678   5.564   1.747   1.443
  558TIP3   OH2 1679   2.483   1.663   0.272
  558TIP3    H1 1680   2.461   1.597   0.337
  558TIP3    H2 1681   2.575   1.683   0.289
  559TIP3   OH2 1682   0.501   5.029   4.831
  559TIP3    H1 1683   0.440   5.101   4.815
  559TIP3    H2 1684   0.577   5.048   4.776
  560TIP3   OH2 1685   1.568   0.570   2.007
  560TIP3    H1 1686   1.622   0.497   2.036
  560TIP3    H2 1687   1.499   0.577   2.073
  561TIP3   OH2 1688   5.428   5.379   4.413
  561TIP3    H1 1689   5.486   5.455   4.404
  561TIP3    H2 1690   5.439   5.352   4.504
  562TIP3   OH2 1691   1.985   3.905   2.326
  562TIP3    H1 1692   2.023   3.834   2.274
  562TIP3    H2 1693   1.978   3.978   2.264
  563TIP3   OH2 1694   0.543   5.270   2.811
  563TIP3    H1 1695   0.486   5.195   2.827
  563TIP3    H2 1696   0.577   5.293   2.897
  564TIP3   OH2 1697   6.099   5.318   5.025
  564TIP3    H1 1698   6.111   5.403   4.981
  564TIP3    H2 1699   6.098   5.339   5.118
  565TIP3   OH2 1700  -0.022   0.046   3.840
  565TIP3    H1 1701   0.072   0.063   3.843
  565TIP3    H2 1702  -0.032  -0.022   3.773
  566TIP3   OH2 1703   5.721   5.354   3.181
  566TIP3    H1 1704   5.760   5.350   3.268
  566TIP3    H2 1705   5.692   5.264   3.163
  567TIP3   OH2 1706   3.258   5.199   1.461
  567TIP3    H1 1707   3.310   5.275   1.434
  567TIP3    H2 1708   3.319   5.146   1.513
  568TIP3   OH2 1709   2.752   5.162   1.236
  568TIP3    H1 1710   2.803   5.085   1.211
  568TIP3    H2 1711   2.798   5.199   1.311
  569TIP3   OH2 1712   0.794   5.210   1.542
  569TIP3    H1 1713   0.756   5.150   1.478
  569TIP3    H2 1714   0.815   5.288   1.492
  570TIP3   OH2 1715   4.100   3.060   2.615
  570TIP3    H1 1716   4.113   2.966   2.619
  570TIP3    H2 1717   4.134   3.093   2.698
  571TIP3   OH2 1718   3.088   2.903   4.136
  571TIP3    H1 1719   3.138   2.965   4.082
  571TIP3    H2 1720   3.005   2.892   4.089
  572TIP3   OH2 1721   2.806   2.560   5.151
  572TIP3    H1 1722   2.856   2.618   5.208
  572TIP3    H2 1723   2.728   2.611   5.128
  573TIP3   OH2 1724   1.458   5.220   0.553
  573TIP3    H1 1725   1.416   5.288   0.606
  573TIP3    H2 1726   1.455   5.253   0.464
  574TIP3   OH2 1727   5.734   5.549   1.366
  574TIP3    H1 1728   5.681   5.515   1.294
  574TIP3    H2 1729   5.797   5.606   1.323
  575TIP3   OH2 1730   0.473   4.039   1.423
  575TIP3    H1 1731   0.437   3.955   1.395
  575TIP3    H2 1732   0.555   4.017   1.467
  576TIP3   OH2 1733   1.671   0.970   4.467
  576TIP3    H1 1734   1.627   0.885   4.474
  576TIP3    H2 1735   1.675   1.002   4.557
  577TIP3   OH2 1736   1.814   4.231   1.619
  577TIP3    H1 1737   1.774   4.317   1.611
  577TIP3    H2 1738   1.782   4.182   1.544
  578TIP3   OH2 1739   4.806   1.780   1.313
  578TIP3    H1 1740   4.824   1.762   1.406
  578TIP3    H2 1741   4.734   1.844   1.315
  579TIP3   OH2 1742   0.204   3.773   2.652
  579TIP3    H1 1743   0.235   3.863   2.649
  579TIP3    H2 1744   0.209   3.743   2.561
  580TIP3   OH2 1745   4.745   1.858   0.762
  580TIP3    H1 1746   4.735   1.952   0.748
  580TIP3    H2 1747   4.659   1.821   0.740
  581TIP3   OH2 1748   1.185   2.246   3.209
  581TIP3    H1 1749   1.246   2.229   3.137
  581TIP3    H2 1750   1.101   2.261   3.166
  582TIP3   OH2 1751   5.880   0.046   0.981
  582TIP3    H1 1752   5.857  -0.019   1.048
  582TIP3    H2 1753   5.942   0.104   1.024
  583TIP3   OH2 1754   1.115   1.471   0.498
  583TIP3    H1 1755   1.185   1.430   0.447
  583TIP3    H2 1756   1.060   1.514   0.433
  584TIP3   OH2 1757   0.063   1.227   3.853
  584TIP3    H1 1758  -0.001   1.157   3.865
  584TIP3    H2 1759   0.026   1.301   3.902
  585TIP3   OH2 1760   5.154   5.304   0.887
  585TIP3    H1 1761   5.197   5.360   0.822
  585TIP3    H2 1762   5.080   5.355   0.918
  586TIP3   OH2 1763   5.158   3.118   2.646
  586TIP3    H1 1764   5.218   3.112   2.571
  586TIP3    H2 1765   5.089   3.177   2.616
  587TIP3   OH2 1766   5.992   1.595   4.519
  587TIP3    H1 1767   6.045   1.577   4.442
  587TIP3    H2 1768   6.051   1.640   4.579
  588TIP3   OH2 1769   3.783   5.352   3.278
  588TIP3    H1 1770   3.851   5.411   3.246
  588TIP3    H2 1771   3.827   5.269   3.293
  589TIP3   OH2 1772   1.378   2.394   1.675
  589TIP3    H1 1773   1.383   2.442   1.593
  589TIP3    H2 1774   1.289   2.409   1.707
  590TIP3   OH2 1775   1.490  -0.034   4.256
  590TIP3    H1 1776   1.488   0.057   4.226
  590TIP3    H2 1777   1.478  -0.028   4.351
  591TIP3   OH2 1778   1.060   1.029   3.317
  591TIP3    H1 1779   1.119   1.023   3.242
  591TIP3    H2 1780   1.102   1.092   3.375
  592TIP3   OH2 1781   3.564   1.257   0.078
  592TIP3    H1 1782   3.522   1.179   0.114
  592TIP3    H2 1783   3.605   1.299   0.154
  593TIP3   OH2 1784   3.497   5.138   0.536
  593TIP3    H1 1785   3.486   5.044   0.541
  593TIP3    H2 1786   3.564   5.158   0.602
  594TIP3   OH2 1787   3.085   3.088   3.741
  594TIP3    H1 1788   3.141   3.067   3.816
  594TIP3    H2 1789   3.001   3.114   3.780
  595TIP3   OH2 1790   6.220   3.250   2.783
  595TIP3    H1 1791   6.246   3.295   2.703
  595TIP3    H2 1792   6.132   3.217   2.764
  596TIP3   OH2 1793   0.942   4.129   1.877
  596TIP3    H1 1794   0.856   4.112   1.916
  596TIP3    H2 1795   0.944   4.224   1.864
  597TIP3   OH2 1796   3.295   0.064   2.929
  597TIP3    H1 1797   3.221   0.124   2.924
  597TIP3    H2 1798   3.257  -0.017   2.966
  598TIP3   OH2 1799   4.973   3.431   0.397
  598TIP3    H1 1800   5.020   3.372   0.456
  598TIP3    H2 1801   4.942   3.375   0.326
  599TIP3   OH2 1802   2.357   5.532   2.836
  599TIP3    H1 1803   2.414   5.457   2.819
  599TIP3    H2 1804   2.294   5.499   2.900
  600TIP3   OH2 1805   4.675   0.919   0.737
  600TIP3    H1 1806   4.687   1.010   0.710
  600TIP3    H2 1807   4.582   0.901   0.720
  601TIP3   OH2 1808   2.729   0.802   0.805
  601TIP3    H1 1809   2.668   0.815   0.878
  601TIP3    H2 1810   2.803   0.755   0.844
  602TIP3   OH2 1811   5.719   5.651   0.509
  602TIP3    H1 1812   5.650   5.587   0.491
  602TIP3    H2 1813   5.800   5.599   0.509
  603TIP3   OH2 1814   1.910   1.096   1.983
  603TIP3    H1 1815   1.954   1.012   1.973
  603TIP3    H2 1816   1.818   1.077   1.965
  604TIP3   OH2 1817   4.603   4.977   4.596
  604TIP3    H1 1818   4.534   4.911   4.590
  604TIP3    H2 1819   4.648   4.972   4.512
  605TIP3   OH2 1820   0.532   0.446   0.076
  605TIP3    H1 1821   0.622   0.475   0.061
  605TIP3    H2 1822   0.481   0.485   0.005
  606TIP3   OH2 1823   6.135   1.359   3.354
  606TIP3    H1 1824   6.113   1.270   3.328
  606TIP3    H2 1825   6.215   1.379   3.305
  607TIP3   OH2 1826   0.609   1.499   4.317
  607TIP3    H1 1827   0.666   1.438   4.363
  607TIP3    H2 1828   0.621   1.583   4.362
  608TIP3   OH2 1829   3.101   5.863   0.752
  608TIP3    H1 1830   3.185   5.875   0.707
  608TIP3    H2 1831   3.065   5.952   0.760
  609TIP3   OH2 1832   5.198   3.899   4.933
  609TIP3    H1 1833   5.194   3.941   4.847
  609TIP3    H2 1834   5.114   3.920   4.974
  610TIP3   OH2 1835   0.810   5.664   4.924
  610TIP3    H1 1836   0.790   5.718   5.000
  610TIP3    H2 1837   0.886   5.705   4.884
  611TIP3   OH2 1838   5.617   5.797   3.284
  611TIP3    H1 1839   5.613   5.881   3.238
  611TIP3    H2 1840   5.624   5.732   3.214
  612TIP3   OH2 1841   4.207   1.097   1.676
  612TIP3    H1 1842   4.164   1.096   1.762
  612TIP3    H2 1843   4.215   1.004   1.653
  613TIP3   OH2 1844   5.237   2.830   0.359
  613TIP3    H1 1845   5.312   2.887   0.342
  613TIP3    H2 1846   5.224   2.834   0.454
  614TIP3   OH2 1847   5.931   5.833   4.571
  614TIP3    H1 1848   5.942   5.774   4.646
  614TIP3    H2 1849   5.842   5.866   4.580
  615TIP3   OH2 1850   2.604   1.783   3.637
  615TIP3    H1 1851   2.563   1.757   3.554
  615TIP3    H2 1852   2.693   1.807   3.612
  616TIP3   OH2 1853   0.715   2.574   2.376
  616TIP3    H1 1854   0.695   2.521   2.299
  616TIP3    H2 1855   0.808   2.558   2.393
  617TIP3   OH2 1856   4.465   5.246   1.089
  617TIP3    H1 1857   4.446   5.162   1.130
  617TIP3    H2 1858   4.498   5.301   1.161
  618TIP3   OH2 1859   3.477   4.799   1.409
  618TIP3    H1 1860   3.399   4.742   1.413
  618TIP3    H2 1861   3.445   4.884   1.438
  619TIP3   OH2 1862   2.182   3.205   3.275
  619TIP3    H1 1863   2.257   3.150   3.252
  619TIP3    H2 1864   2.130   3.151   3.335
  620TIP3   OH2 1865   1.847   1.991   4.470
  620TIP3    H1 1866   1.788   1.973   4.543
  620TIP3    H2 1867   1.882   2.079   4.489
  621TIP3   OH2 1868   1.233  -0.010   2.576
  621TIP3    H1 1869   1.307   0.052   2.581
  621TIP3    H2 1870   1.164   0.031   2.628
  622TIP3   OH2 1871   1.575   1.050   1.178
  622TIP3    H1 1872   1.645   1.114   1.182
  622TIP3    H2 1873   1.605   0.985   1.115
  623TIP3   OH2 1874   5.606   1.765   3.401
  623TIP3    H1 1875   5.556   1.735   3.325
  623TIP3    H2 1876   5.659   1.838   3.368
  624TIP3   OH2 1877   2.761   5.271   1.754
  624TIP3    H1 1878   2.766   5.280   1.849
  624TIP3    H2 1879   2.819   5.197   1.733
  625TIP3   OH2 1880   5.960   2.498   3.969
  625TIP3    H1 1881   5.879   2.538   3.938
  625TIP3    H2 1882   6.018   2.573   3.987
  626TIP3   OH2 1883   2.781   0.413   0.745
  626TIP3    H1 1884   2.867   0.454   0.733
  626TIP3    H2 1885   2.729   0.444   0.671
  627TIP3   OH2 1886   2.113   5.586   4.048
  627TIP3    H1 1887   2.062   5.566   3.970
  627TIP3    H2 1888   2.138   5.678   4.037
  628TIP3   OH2 1889   5.700   4.309   1.141
  628TIP3    H1 1890   5.654   4.294   1.224
  628TIP3    H2 1891   5.713   4.403   1.137
  629TIP3   OH2 1892   0.107   2.628   3.431
  629TIP3    H1 1893   0.039   2.564   3.452
  629TIP3    H2 1894   0.150   2.646   3.515
  630TIP3   OH2 1895   2.816   4.798   1.272
  630TIP3    H1 1896   2.823   4.868   1.338
  630TIP3    H2 1897   2.753   4.831   1.209
  631TIP3   OH2 1898   0.881   3.249   4.634
  631TIP3    H1 1899   0.903   3.340   4.613
  631TIP3    H2 1900   0.915   3.236   4.722
  632TIP3   OH2 1901   3.228   5.381   2.811
  632TIP3    H1 1902   3.283   5.326   2.866
  632TIP3    H2 1903   3.142   5.340   2.813
  633TIP3   OH2 1904   1.983   2.260   1.617
  633TIP3    H1 1905   1.944   2.337   1.576
  633TIP3    H2 1906   1.923   2.189   1.596
  634TIP3   OH2 1907   3.396   0.217   4.648
  634TIP3    H1 1908   3.326   0.157   4.626
  634TIP3    H2 1909   3.457   0.211   4.575
  635TIP3   OH2 1910   4.989   3.114   0.521
  635TIP3    H1 1911   4.987   3.132   0.427
  635TIP3    H2 1912   4.917   3.052   0.534
  636TIP3   OH2 1913   1.271   1.794   2.404
  636TIP3    H1 1914   1.187   1.835   2.423
  636TIP3    H2 1915   1.316   1.856   2.348
  637TIP3   OH2 1916   4.016   0.088   0.300
  637TIP3    H1 1917   3.938   0.054   0.345
  637TIP3    H2 1918   3.982   0.124   0.218
  638TIP3   OH2 1919   5.283   2.075   4.699
  638TIP3    H1 1920   5.338   2.029   4.635
  638TIP3    H2 1921   5.198   2.031   4.694
  639TIP3   OH2 1922   3.181   2.009   3.215
  639TIP3    H1 1923   3.096   1.966   3.222
  639TIP3    H2 1924   3.187   2.035   3.123
  640TIP3   OH2 1925   4.816   0.318   0.571
  640TIP3    H1 1926   4.726   0.331   0.601
  640TIP3    H2 1927   4.817   0.350   0.481
  641TIP3   OH2 1928   0.504   4.249   3.865
  641TIP3    H1 1929   0.474   4.248   3.956
  641TIP3    H2 1930   0.555   4.330   3.858
  642TIP3   OH2 1931   3.525   4.076   1.809
  642TIP3    H1 1932   3.570   4.019   1.871
  642TIP3    H2 1933   3.519   4.025   1.728
  643TIP3   OH2 1934   5.886   2.391   2.855
  643TIP3    H1 1935   5.953   2.460   2.853
  643TIP3    H2 1936   5.905   2.341   2.934
  644TIP3   OH2 1937   2.352   4.857   1.514
  644TIP3    H1 1938   2.290   4.916   1.471
  644TIP3    H2 1939   2.396   4.812   1.442
  645TIP3   OH2 1940   4.108   1.529   1.544
  645TIP3    H1 1941   4.065   1.531   1.629
  645TIP3    H2 1942   4.116   1.436   1.523
  646TIP3   OH2 1943   0.753   2.026   1.457
  646TIP3    H1 1944   0.671   2.007   1.411
  646TIP3    H2 1945   0.725   2.063   1.541
  647TIP3   OH2 1946   3.788   3.027   4.095
  647TIP3    H1 1947   3.843   2.996   4.167
  647TIP3    H2 1948   3.762   3.115   4.120
  648TIP3   OH2 1949   2.023   5.530   0.378
  648TIP3    H1 1950   1.969   5.508   0.454
  648TIP3    H2 1951   1.962   5.571   0.316
  649TIP3   OH2 1952   0.932   0.142   3.702
  649TIP3    H1 1953   0.976   0.202   3.761
  649TIP3    H2 1954   0.993   0.070   3.690
  650TIP3   OH2 1955   0.786   3.552   2.925
  650TIP3    H1 1956   0.722   3.492   2.961
  650TIP3    H2 1957   0.829   3.502   2.856
  651TIP3   OH2 1958   2.574   0.801   0.069
  651TIP3    H1 1959   2.588   0.850   0.150
  651TIP3    H2 1960   2.588   0.865  -0.001
  652TIP3   OH2 1961   5.104   0.378   4.265
  652TIP3    H1 1962   5.090   0.320   4.190
  652TIP3    H2 1963   5.194   0.409   4.255
  653TIP3   OH2 1964   5.708   3.159   4.040
  653TIP3    H1 1965   5.748   3.120   4.117
  653TIP3    H2 1966   5.743   3.248   4.037
  654TIP3   OH2 1967   3.013   2.925   1.561
  654TIP3    H1 1968   2.918   2.912   1.569
  654TIP3    H2 1969   3.041   2.949   1.649
  655TIP3   OH2 1970   3.993   2.083   1.112
  655TIP3    H1 1971   3.975   1.989   1.109
  655TIP3    H2 1972   3.983   2.112   1.021
  656TIP3   OH2 1973   0.100   3.797   4.781
  656TIP3    H1 1974   0.092   3.702   4.790
  656TIP3    H2 1975   0.050   3.832   4.855
  657TIP3   OH2 1976   5.635   0.171   0.861
  657TIP3    H1 1977   5.576   0.132   0.926
  657TIP3    H2 1978   5.722   0.139   0.886
  658TIP3   OH2 1979   4.495   3.353   1.008
  658TIP3    H1 1980   4.542   3.365   0.926
  658TIP3    H2 1981   4.560   3.316   1.068
  659TIP3   OH2 1982   4.294   4.890   0.964
  659TIP3    H1 1983   4.374   4.874   0.915
  659TIP3    H2 1984   4.274   4.983   0.950
  660TIP3   OH2 1985   2.077   0.211   0.358
  660TIP3    H1 1986   2.125   0.290   0.381
  660TIP3    H2 1987   2.136   0.163   0.299
  661TIP3   OH2 1988   0.799   4.403   2.896
  661TIP3    H1 1989   0.817   4.311   2.876
  661TIP3    H2 1990   0.877   4.434   2.941
  662TIP3   OH2 1991   2.193   1.671   3.851
  662TIP3    H1 1992   2.205   1.729   3.927
  662TIP3    H2 1993   2.244   1.593   3.873
  663TIP3   OH2 1994   2.331   4.757   4.598
  663TIP3    H1 1995   2.258   4.733   4.541
  663TIP3    H2 1996   2.306   4.725   4.684
  664TIP3   OH2 1997   4.180   1.288   3.734
  664TIP3    H1 1998   4.122   1.238   3.791
  664TIP3    H2 1999   4.239   1.222   3.697
  665TIP3   OH2 2000   5.434   0.349   2.588
  665TIP3    H1 2001   5.440   0.262   2.548
  665TIP3    H2 2002   5.446   0.410   2.516
  666TIP3   OH2 2003   6.060   5.591   2.463
  666TIP3    H1 2004   6.072   5.653   2.392
  666TIP3    H2 2005   6.126   5.523   2.448
  667TIP3   OH2 2006   1.639   1.507   2.180
  667TIP3    H1 2007   1.631   1.525   2.274
  667TIP3    H2 2008   1.637   1.411   2.175
  668TIP3   OH2 2009   2.466   4.106   1.486
  668TIP3    H1 2010   2.557   4.128   1.469
  668TIP3    H2 2011   2.440   4.051   1.411
  669TIP3   OH2 2012   0.685   3.338   0.017
  669TIP3    H1 2013   0.760   3.278   0.016
  669TIP3    H2 2014   0.624   3.299   0.081
  670TIP3   OH2 2015   3.381   3.026   0.077
  670TIP3    H1 2016   3.412   2.951   0.027
  670TIP3    H2 2017   3.286   3.016   0.080
  671TIP3   OH2 2018   6.249   1.907   4.952
  671TIP3    H1 2019   6.224   1.815   4.946
  671TIP3    H2 2020   6.344   1.906   4.958
  672TIP3   OH2 2021   1.789   5.720   3.873
  672TIP3    H1 2022   1.780   5.659   3.946
  672TIP3    H2 2023   1.742   5.798   3.902
  673TIP3   OH2 2024   4.132   3.879   3.499
  673TIP3    H1 2025   4.151   3.797   3.543
  673TIP3    H2 2026   4.041   3.872   3.472
  674TIP3   OH2 2027   5.744   2.738   3.695
  674TIP3    H1 2028   5.837   2.755   3.706
  674TIP3    H2 2029   5.720   2.782   3.613
  675TIP3   OH2 2030   5.804   0.932   2.449
  675TIP3    H1 2031   5.761   0.990   2.512
  675TIP3    H2 2032   5.806   0.847   2.492
  676TIP3   OH2 2033   2.510   5.314   3.107
  676TIP3    H1 2034   2.499   5.245   3.173
  676TIP3    H2 2035   2.521   5.266   3.025
  677TIP3   OH2 2036   2.518   0.844   3.010
  677TIP3    H1 2037   2.524   0.927   2.962
  677TIP3    H2 2038   2.438   0.804   2.976
  678TIP3   OH2 2039   4.192   5.646   4.382
  678TIP3    H1 2040   4.251   5.720   4.395
  678TIP3    H2 2041   4.251   5.572   4.366
  679TIP3   OH2 2042   5.370   3.006   1.659
  679TIP3    H1 2043   5.441   3.006   1.594
  679TIP3    H2 2044   5.387   2.930   1.714
  680TIP3   OH2 2045   4.225   5.710   2.049
  680TIP3    H1 2046   4.199   5.788   1.999
  680TIP3    H2 2047   4.312   5.730   2.082
  681TIP3   OH2 2048   4.891   0.834   4.542
  681TIP3    H1 2049   4.938   0.877   4.614
  681TIP3    H2 2050   4.858   0.907   4.488
  682TIP3   OH2 2051   3.357   0.774   1.966
  682TIP3    H1 2052   3.440   0.746   2.006
  682TIP3    H2 2053   3.341   0.708   1.898
  683TIP3   OH2 2054   3.579   5.020   2.077
  683TIP3    H1 2055   3.626   4.945   2.114
  683TIP3    H2 2056   3.493   4.985   2.055
  684TIP3   OH2 2057   5.496   0.116   3.979
  684TIP3    H1 2058   5.559   0.183   3.953
  684TIP3    H2 2059   5.526   0.087   4.065
  685TIP3   OH2 2060   5.448   3.215   3.737
  685TIP3    H1 2061   5.461   3.282   3.670
  685TIP3    H2 2062   5.536   3.184   3.757
  686TIP3   OH2 2063   1.866   5.099   1.352
  686TIP3    H1 2064   1.839   5.079   1.442
  686TIP3    H2 2065   1.944   5.153   1.363
  687TIP3   OH2 2066   0.989   3.705   2.632
  687TIP3    H1 2067   0.998   3.759   2.710
  687TIP3    H2 2068   1.035   3.755   2.564
  688TIP3   OH2 2069   0.297   3.098   4.287
  688TIP3    H1 2070   0.384   3.062   4.273
  688TIP3    H2 2071   0.247   3.026   4.326
  689TIP3   OH2 2072   1.659   0.666   3.046
  689TIP3    H1 2073   1.638   0.690   3.136
  689TIP3    H2 2074   1.729   0.601   3.053
  690TIP3   OH2 2075   5.916   0.545   0.417
  690TIP3    H1 2076   5.939   0.454   0.436
  690TIP3    H2 2077   5.997   0.584   0.386
  691TIP3   OH2 2078   6.132   2.197   3.067
  691TIP3    H1 2079   6.067   2.140   3.026
  691TIP3    H2 2080   6.136   2.168   3.158
  692TIP3   OH2 2081   3.495   5.511   2.925
  692TIP3    H1 2082   3.564   5.450   2.951
  692TIP3    H2 2083   3.421   5.455   2.902
  693TIP3   OH2 2084   4.971   1.445   4.726
  693TIP3    H1 2085   5.027   1.367   4.725
  693TIP3    H2 2086   5.005   1.498   4.799
  694TIP3   OH2 2087   4.216   2.164   4.029
  694TIP3    H1 2088   4.210   2.223   3.954
  694TIP3    H2 2089   4.288   2.105   4.007
  695TIP3   OH2 2090   3.166   2.412   1.529
  695TIP3    H1 2091   3.216   2.401   1.610
  695TIP3    H2 2092   3.078   2.435   1.558
  696TIP3   OH2 2093   6.027   5.290   0.392
  696TIP3    H1 2094   5.990   5.212   0.433
  696TIP3    H2 2095   5.976   5.302   0.312
  697TIP3   OH2 2096   2.841   5.388   2.332
  697TIP3    H1 2097   2.756   5.411   2.368
  697TIP3    H2 2098   2.885   5.340   2.403
  698TIP3   OH2 2099   0.219   5.670   2.904
  698TIP3    H1 2100   0.157   5.725   2.952
  698TIP3    H2 2101   0.303   5.715   2.914
  699TIP3   OH2 2102   4.427   2.851   2.820
  699TIP3    H1 2103   4.413   2.770   2.770
  699TIP3    H2 2104   4.499   2.894   2.774
  700TIP3   OH2 2105  -0.017   5.747   0.927
  700TIP3    H1 2106   0.026   5.833   0.927
  700TIP3    H2 2107   0.033   5.695   0.864
  701TIP3   OH2 2108   1.456   5.319   0.960
  701TIP3    H1 2109   1.394   5.259   1.002
  701TIP3    H2 2110   1.521   5.262   0.919
  702TIP3   OH2 2111   3.368   5.057   2.383
  702TIP3    H1 2112   3.386   4.992   2.315
  702TIP3    H2 2113   3.309   5.120   2.342
  703TIP3   OH2 2114   0.918   5.742   3.900
  703TIP3    H1 2115   0.983   5.704   3.959
  703TIP3    H2 2116   0.928   5.693   3.818
  704TIP3   OH2 2117   3.997   3.329   0.571
  704TIP3    H1 2118   3.961   3.357   0.487
  704TIP3    H2 2119   4.091   3.344   0.562
  705TIP3   OH2 2120   5.479   2.911   4.880
  705TIP3    H1 2121   5.398   2.898   4.929
  705TIP3    H2 2122   5.525   2.980   4.929
  706TIP3   OH2 2123   3.546   3.446   1.962
  706TIP3    H1 2124   3.477   3.380   1.954
  706TIP3    H2 2125   3.615   3.415   1.902
  707TIP3   OH2 2126   5.396   1.642   1.692
  707TIP3    H1 2127   5.433   1.657   1.779
  707TIP3    H2 2128   5.440   1.705   1.636
  708TIP3   OH2 2129   5.010   4.033   2.075
  708TIP3    H1 2130   4.966   4.117   2.061
  708TIP3    H2 2131   5.084   4.035   2.015
  709TIP3   OH2 2132   4.030   5.639   3.738
  709TIP3    H1 2133   4.099   5.698   3.710
  709TIP3    H2 2134   4.070   5.586   3.807
  710TIP3   OH2 2135   1.567   0.709   0.138
  710TIP3    H1 2136   1.484   0.750   0.162
  710TIP3    H2 2137   1.573   0.633   0.195
  711TIP3   OH2 2138   3.142   3.856   2.560
  711TIP3    H1 2139   3.190   3.936   2.538
  711TIP3    H2 2140   3.208   3.787   2.558
  712TIP3   OH2 2141   0.857   3.765   2.322
  712TIP3    H1 2142   0.802   3.823   2.376
  712TIP3    H2 2143   0.937   3.815   2.307
  713TIP3   OH2 2144   0.952   4.896   4.872
  713TIP3    H1 2145   0.885   4.910   4.805
  713TIP3    H2 2146   0.961   4.981   4.915
  714TIP3   OH2 2147   1.545   4.958   2.658
  714TIP3    H1 2148   1.628   4.911   2.655
  714TIP3    H2 2149   1.493   4.922   2.586
  715TIP3   OH2 2150   6.267   5.885   1.575
  715TIP3    H1 2151   6.187   5.892   1.628
  715TIP3    H2 2152   6.236   5.854   1.489
  716TIP3   OH2 2153   1.726   5.747   4.484
  716TIP3    H1 2154   1.755   5.822   4.431
  716TIP3    H2 2155   1.777   5.673   4.451
  717TIP3   OH2 2156   5.554   4.247   1.886
  717TIP3    H1 2157   5.478   4.302   1.868
  717TIP3    H2 2158   5.572   4.202   1.803
  718TIP3   OH2 2159   4.287   1.989   0.681
  718TIP3    H1 2160   4.345   1.912   0.679
  718TIP3    H2 2161   4.306   2.035   0.599
  719TIP3   OH2 2162   5.377   0.356   5.144
  719TIP3    H1 2163   5.441   0.318   5.205
  719TIP3    H2 2164   5.420   0.350   5.058
  720TIP3   OH2 2165   4.863   4.147   2.698
  720TIP3    H1 2166   4.776   4.108   2.693
  720TIP3    H2 2167   4.853   4.222   2.757
  721TIP3   OH2 2168   2.743   5.681   4.037
  721TIP3    H1 2169   2.653   5.665   4.008
  721TIP3    H2 2170   2.777   5.745   3.975
  722TIP3   OH2 2171   1.913   5.795   1.622
  722TIP3    H1 2172   1.885   5.864   1.562
  722TIP3    H2 2173   2.007   5.789   1.610
  723TIP3   OH2 2174   5.366   4.135   2.067
  723TIP3    H1 2175   5.368   4.229   2.088
  723TIP3    H2 2176   5.420   4.128   1.988
  724TIP3   OH2 2177   0.940   5.207   0.483
  724TIP3    H1 2178   0.900   5.180   0.566
  724TIP3    H2 2179   0.906   5.145   0.418
  725TIP3   OH2 2180   4.996   4.311   5.164
  725TIP3    H1 2181   5.068   4.363   5.200
  725TIP3    H2 2182   4.932   4.376   5.135
  726TIP3   OH2 2183   4.890   1.767   1.952
  726TIP3    H1 2184   4.830   1.699   1.919
  726TIP3    H2 2185   4.893   1.832   1.882
  727TIP3   OH2 2186   3.708   4.078   3.399
  727TIP3    H1 2187   3.756   4.038   3.471
  727TIP3    H2 2188   3.768   4.076   3.325
  728TIP3   OH2 2189   1.408   0.311   4.360
  728TIP3    H1 2190   1.471   0.259   4.409
  728TIP3    H2 2191   1.340   0.249   4.335
  729TIP3   OH2 2192   2.417   1.526   0.501
  729TIP3    H1 2193   2.488   1.503   0.560
  729TIP3    H2 2194   2.407   1.621   0.510
  730TIP3   OH2 2195   5.426   5.612   0.739
  730TIP3    H1 2196   5.358   5.546   0.726
  730TIP3    H2 2197   5.378   5.696   0.734
  731TIP3   OH2 2198   2.772   5.049   3.127
  731TIP3    H1 2199   2.777   5.145   3.125
  731TIP3    H2 2200   2.853   5.023   3.171
  732TIP3   OH2 2201   3.788   3.943   1.475
  732TIP3    H1 2202   3.804   3.938   1.380
  732TIP3    H2 2203   3.694   3.959   1.483
  733TIP3   OH2 2204   5.185   1.929   1.405
  733TIP3    H1 2205   5.109   1.873   1.417
  733TIP3    H2 2206   5.217   1.945   1.494
  734TIP3   OH2 2207   4.114   5.204   4.333
  734TIP3    H1 2208   4.169   5.174   4.405
  734TIP3    H2 2209   4.025   5.200   4.367
  735TIP3   OH2 2210   5.103   3.165   3.103
  735TIP3    H1 2211   5.104   3.105   3.177
  735TIP3    H2 2212   5.152   3.242   3.133
  736TIP3   OH2 2213   2.825   4.997   4.629
  736TIP3    H1 2214   2.819   5.031   4.719
  736TIP3    H2 2215   2.918   4.996   4.610
  737TIP3   OH2 2216   0.946   2.253   0.288
  737TIP3    H1 2217   0.949   2.343   0.254
  737TIP3    H2 2218   1.010   2.252   0.360
  738TIP3   OH2 2219   5.354   2.541   4.688
  738TIP3    H1 2220   5.347   2.523   4.782
  738TIP3    H2 2221   5.421   2.609   4.681
  739TIP3   OH2 2222   3.544   0.640   3.106
  739TIP3    H1 2223   3.487   0.687   3.045
  739TIP3    H2 2224   3.512   0.550   3.103
  740TIP3   OH2 2225   2.261   1.039   4.619
  740TIP3    H1 2226   2.230   1.092   4.692
  740TIP3    H2 2227   2.198   0.967   4.612
  741TIP3   OH2 2228   2.353   2.704   1.765
  741TIP3    H1 2229   2.298   2.626   1.764
  741TIP3    H2 2230   2.336   2.743   1.851
  742TIP3   OH2 2231   3.379   4.407   3.082
  742TIP3    H1 2232   3.439   4.420   3.155
  742TIP3    H2 2233   3.431   4.362   3.015
  743TIP3   OH2 2234   0.552   1.848   1.809
  743TIP3    H1 2235   0.531   1.820   1.720
  743TIP3    H2 2236   0.472   1.893   1.839
  744TIP3   OH2 2237   0.458   3.326   5.148
  744TIP3    H1 2238   0.513   3.265   5.198
  744TIP3    H2 2239   0.426   3.274   5.075
  745TIP3   OH2 2240   4.650   2.538   4.275
  745TIP3    H1 2241   4.731   2.581   4.302
  745TIP3    H2 2242   4.593   2.544   4.351
  746TIP3   OH2 2243   3.604   1.362   3.956
  746TIP3    H1 2244   3.532   1.421   3.974
  746TIP3    H2 2245   3.666   1.377   4.027
  747TIP3   OH2 2246   3.315   0.580   1.796
  747TIP3    H1 2247   3.287   0.493   1.823
  747TIP3    H2 2248   3.271   0.594   1.712
  748TIP3   OH2 2249   5.034   5.465   1.277
  748TIP3    H1 2250   4.947   5.432   1.301
  748TIP3    H2 2251   5.092   5.391   1.290
  749TIP3   OH2 2252   4.079   1.243   1.486
  749TIP3    H1 2253   4.004   1.185   1.499
  749TIP3    H2 2254   4.149   1.204   1.539
  750TIP3   OH2 2255   5.685   0.438   0.306
  750TIP3    H1 2256   5.752   0.497   0.341
  750TIP3    H2 2257   5.628   0.418   0.380
  751TIP3   OH2 2258   1.274   5.087   1.071
  751TIP3    H1 2259   1.207   5.027   1.103
  751TIP3    H2 2260   1.330   5.102   1.146
  752TIP3   OH2 2261   4.042   1.745   2.855
  752TIP3    H1 2262   4.025   1.699   2.774
  752TIP3    H2 2263   4.135   1.767   2.851
  753TIP3   OH2 2264   4.234   1.829   4.130
  753TIP3    H1 2265   4.292   1.890   4.176
  753TIP3    H2 2266   4.247   1.745   4.174
  754TIP3   OH2 2267   1.816   1.672   1.853
  754TIP3    H1 2268   1.895   1.725   1.862
  754TIP3    H2 2269   1.806   1.662   1.758
  755TIP3   OH2 2270   6.286   1.251   1.948
  755TIP3    H1 2271   6.233   1.234   2.026
  755TIP3    H2 2272   6.292   1.347   1.944
  756TIP3   OH2 2273   0.529   5.004   1.015
  756TIP3    H1 2274   0.578   4.922   1.027
  756TIP3    H2 2275   0.495   4.998   0.926
  757TIP3   OH2 2276   0.330   0.212   4.448
  757TIP3    H1 2277   0.263   0.161   4.403
  757TIP3    H2 2278   0.283   0.255   4.519
  758TIP3   OH2 2279   4.742   5.661   2.327
  758TIP3    H1 2280   4.837   5.656   2.314
  758TIP3    H2 2281   4.725   5.754   2.345
  759TIP3   OH2 2282   0.831   0.304   4.104
  759TIP3    H1 2283   0.807   0.381   4.051
  759TIP3    H2 2284   0.792   0.230   4.057
  760TIP3   OH2 2285   1.794   0.579   1.800
  760TIP3    H1 2286   1.751   0.635   1.736
  760TIP3    H2 2287   1.732   0.574   1.873
  761TIP3   OH2 2288   0.969   2.319   1.813
  761TIP3    H1 2289   0.937   2.288   1.728
  761TIP3    H2 2290   0.961   2.244   1.871
  762TIP3   OH2 2291   2.646   3.410   1.152
  762TIP3    H1 2292   2.607   3.412   1.065
  762TIP3    H2 2293   2.603   3.337   1.196
  763TIP3   OH2 2294   1.531   1.524   0.056
  763TIP3    H1 2295   1.504   1.493  -0.031
  763TIP3    H2 2296   1.449   1.543   0.101
  764TIP3   OH2 2297   0.875   4.569   3.589
  764TIP3    H1 2298   0.864   4.520   3.507
  764TIP3    H2 2299   0.798   4.625   3.594
  765TIP3   OH2 2300   0.527   1.248   4.252
  765TIP3    H1 2301   0.560   1.338   4.259
  765TIP3    H2 2302   0.487   1.244   4.165
  766TIP3   OH2 2303   1.803   0.440   2.064
  766TIP3    H1 2304   1.796   0.387   1.985
  766TIP3    H2 2305   1.887   0.417   2.102
  767TIP3   OH2 2306   5.768   0.572   2.797
  767TIP3    H1 2307   5.812   0.505   2.849
  767TIP3    H2 2308   5.818   0.652   2.813
  768TIP3   OH2 2309   0.663   2.474   5.027
  768TIP3    H1 2310   0.697   2.445   5.111
  768TIP3    H2 2311   0.733   2.456   4.965
  769TIP3   OH2 2312   4.043   3.685   3.200
  769TIP3    H1 2313   4.132   3.650   3.194
  769TIP3    H2 2314   4.029   3.699   3.294
  770TIP3   OH2 2315   5.227   2.715   5.079
  770TIP3    H1 2316   5.149   2.742   5.128
  770TIP3    H2 2317   5.223   2.765   4.998
  771TIP3   OH2 2318   0.203   5.777   4.767
  771TIP3    H1 2319   0.143   5.713   4.803
  771TIP3    H2 2320   0.181   5.782   4.675
  772TIP3   OH2 2321   2.522   2.165   3.526
  772TIP3    H1 2322   2.511   2.164   3.431
  772TIP3    H2 2323   2.491   2.080   3.556
  773TIP3   OH2 2324   0.630   2.923   0.821
  773TIP3    H1 2325   0.634   2.943   0.728
  773TIP3    H2 2326   0.720   2.896   0.843
  774TIP3   OH2 2327   0.829   4.087   0.839
  774TIP3    H1 2328   0.824   4.051   0.751
  774TIP3    H2 2329   0.752   4.143   0.847
  775TIP3   OH2 2330   4.774   5.764   2.030
  775TIP3    H1 2331   4.854   5.810   2.056
  775TIP3    H2 2332   4.797   5.671   2.037
  776TIP3   OH2 2333   4.115   0.302   2.292
  776TIP3    H1 2334   4.056   0.278   2.220
  776TIP3    H2 2335   4.202   0.274   2.263
  777TIP3   OH2 2336   1.469   1.460   0.566
  777TIP3    H1 2337   1.542   1.431   0.621
  777TIP3    H2 2338   1.508   1.475   0.480
  778TIP3   OH2 2339   6.117   2.108   2.798
  778TIP3    H1 2340   6.177   2.050   2.751
  778TIP3    H2 2341   6.140   2.196   2.768
  779TIP3   OH2 2342   3.521   1.141   5.141
  779TIP3    H1 2343   3.492   1.211   5.199
  779TIP3    H2 2344   3.616   1.151   5.138
  780TIP3   OH2 2345   6.107   5.132   1.549
  780TIP3    H1 2346   6.196   5.165   1.562
  780TIP3    H2 2347   6.119   5.048   1.503
  781TIP3   OH2 2348   3.523   1.448   2.192
  781TIP3    H1 2349   3.488   1.371   2.147
  781TIP3    H2 2350   3.447   1.505   2.205
  782TIP3   OH2 2351   4.994   2.934   0.297
  782TIP3    H1 2352   5.083   2.907   0.320
  782TIP3    H2 2353   4.938   2.885   0.357
  783TIP3   OH2 2354   3.109   2.024   3.727
  783TIP3    H1 2355   3.185   2.029   3.669
  783TIP3    H2 2356   3.102   1.932   3.751
  784TIP3   OH2 2357   4.486   2.743   1.411
  784TIP3    H1 2358   4.448   2.672   1.359
  784TIP3    H2 2359   4.479   2.714   1.501
  785TIP3   OH2 2360   0.501   1.606   1.350
  785TIP3    H1 2361   0.585   1.634   1.313
  785TIP3    H2 2362   0.516   1.515   1.377
  786TIP3   OH2 2363   5.935   3.869   0.483
  786TIP3    H1 2364   5.871   3.936   0.505
  786TIP3    H2 2365   6.016   3.897   0.525
  787TIP3   OH2 2366   0.976   1.218   1.295
  787TIP3    H1 2367   0.952   1.143   1.349
  787TIP3    H2 2368   1.066   1.200   1.268
  788TIP3   OH2 2369   1.462   1.589   1.629
  788TIP3    H1 2370   1.512   1.513   1.598
  788TIP3    H2 2371   1.432   1.632   1.549
  789TIP3   OH2 2372   2.177   0.350   4.224
  789TIP3    H1 2373   2.101   0.307   4.184
  789TIP3    H2 2374   2.150   0.441   4.235
  790TIP3   OH2 2375   1.121   2.651   0.982
  790TIP3    H1 2376   1.160   2.614   1.061
  790TIP3    H2 2377   1.159   2.600   0.910
  791TIP3   OH2 2378   6.063   4.812   3.648
  791TIP3    H1 2379   6.099   4.818   3.559
  791TIP3    H2 2380   6.054   4.718   3.664
  792TIP3   OH2 2381   4.665   2.392   0.547
  792TIP3    H1 2382   4.700   2.459   0.488
  792TIP3    H2 2383   4.737   2.329   0.555
  793TIP3   OH2 2384   1.383   2.610   1.457
  793TIP3    H1 2385   1.446   2.586   1.389
  793TIP3    H2 2386   1.372   2.705   1.447
  794TIP3   OH2 2387   4.607   1.547   1.309
  794TIP3    H1 2388   4.517   1.529   1.337
  794TIP3    H2 2389   4.598   1.611   1.239
  795TIP3   OH2 2390   4.554   5.603   2.971
  795TIP3    H1 2391   4.476   5.578   3.021
  795TIP3    H2 2392   4.620   5.621   3.038
  796TIP3   OH2 2393   0.134   4.858   3.005
  796TIP3    H1 2394   0.121   4.764   3.017
  796TIP3    H2 2395   0.129   4.895   3.093
  797TIP3   OH2 2396   3.883   1.061   3.724
  797TIP3    H1 2397   3.861   1.118   3.650
  797TIP3    H2 2398   3.876   1.118   3.801
  798TIP3   OH2 2399   5.293   5.653   4.280
  798TIP3    H1 2400   5.347   5.718   4.325
  798TIP3    H2 2401   5.215   5.646   4.335
  799TIP3   OH2 2402   1.640   5.152   3.547
  799TIP3    H1 2403   1.595   5.236   3.539
  799TIP3    H2 2404   1.588   5.092   3.493
  800TIP3   OH2 2405   3.674   5.004   1.093
  800TIP3    H1 2406   3.722   4.921   1.095
  800TIP3    H2 2407   3.723   5.060   1.154
  801TIP3   OH2 2408   4.296   4.568   2.039
  801TIP3    H1 2409   4.270   4.622   2.114
  801TIP3    H2 2410   4.275   4.478   2.065
  802TIP3   OH2 2411   0.705   3.164   1.480
  802TIP3    H1 2412   0.651   3.225   1.430
  802TIP3    H2 2413   0.731   3.097   1.416
  803TIP3   OH2 2414   0.472   5.344   3.606
  803TIP3    H1 2415   0.401   5.285   3.581
  803TIP3    H2 2416   0.489   5.396   3.527
  804TIP3   OH2 2417   3.731   1.649   4.027
  804TIP3    H1 2418   3.778   1.691   3.955
  804TIP3    H2 2419   3.653   1.613   3.986
  805TIP3   OH2 2420   3.309   0.226   1.311
  805TIP3    H1 2421   3.330   0.136   1.337
  805TIP3    H2 2422   3.390   0.275   1.323
  806TIP3   OH2 2423   2.727   4.239   3.947
  806TIP3    H1 2424   2.817   4.233   3.913
  806TIP3    H2 2425   2.718   4.163   4.004
  807TIP3   OH2 2426   0.214   3.083   0.721
  807TIP3    H1 2427   0.206   3.081   0.626
  807TIP3    H2 2428   0.228   2.992   0.746
  808TIP3   OH2 2429   6.218   0.844   2.188
  808TIP3    H1 2430   6.155   0.907   2.153
  808TIP3    H2 2431   6.168   0.791   2.250
  809TIP3   OH2 2432   3.739   5.687   1.963
  809TIP3    H1 2433   3.690   5.606   1.948
  809TIP3    H2 2434   3.826   5.670   1.929
  810TIP3   OH2 2435   4.633   5.651   1.508
  810TIP3    H1 2436   4.715   5.697   1.527
  810TIP3    H2 2437   4.627   5.651   1.412
  811TIP3   OH2 2438   2.443   0.889   0.328
  811TIP3    H1 2439   2.495   0.896   0.408
  811TIP3    H2 2440   2.445   0.796   0.306
  812TIP3   OH2 2441   6.279   3.436   2.536
  812TIP3    H1 2442   6.208   3.447   2.473
  812TIP3    H2 2443   6.352   3.402   2.483
  813TIP3   OH2 2444   1.964   0.627   1.382
  813TIP3    H1 2445   2.049   0.617   1.339
  813TIP3    H2 2446   1.970   0.709   1.431
  814TIP3   OH2 2447   0.967   2.332   4.342
  814TIP3    H1 2448   1.046   2.280   4.357
  814TIP3    H2 2449   0.999   2.422   4.336
  815TIP3   OH2 2450   3.988   0.554   0.713
  815TIP3    H1 2451   4.013   0.646   0.713
  815TIP3    H2 2452   3.929   0.546   0.638
  816TIP3   OH2 2453   0.451   2.505   3.115
  816TIP3    H1 2454   0.375   2.561   3.100
  816TIP3    H2 2455   0.504   2.515   3.036
  817TIP3   OH2 2456   1.447   1.218   1.558
  817TIP3    H1 2457   1.522   1.265   1.594
  817TIP3    H2 2458   1.484   1.136   1.524
  818TIP3   OH2 2459   5.058   4.420   0.743
  818TIP3    H1 2460   5.010   4.470   0.808
  818TIP3    H2 2461   5.149   4.422   0.773
  819TIP3   OH2 2462   4.972   1.792   0.279
  819TIP3    H1 2463   4.939   1.753   0.359
  819TIP3    H2 2464   5.011   1.719   0.231
  820TIP3   OH2 2465   5.223   1.112   4.841
  820TIP3    H1 2466   5.198   1.169   4.913
  820TIP3    H2 2467   5.284   1.049   4.879
  821TIP3   OH2 2468   0.721   0.310   4.380
  821TIP3    H1 2469   0.686   0.236   4.331
  821TIP3    H2 2470   0.802   0.333   4.334
  822TIP3   OH2 2471   4.406   5.465   1.564
  822TIP3    H1 2472   4.478   5.527   1.551
  822TIP3    H2 2473   4.418   5.434   1.654
  823TIP3   OH2 2474   4.617   5.012   4.875
  823TIP3    H1 2475   4.599   5.009   4.781
  823TIP3    H2 2476   4.548   5.068   4.911
  824TIP3   OH2 2477   5.198   3.259   0.319
  824TIP3    H1 2478   5.181   3.220   0.233
  824TIP3    H2 2479   5.204   3.353   0.302
  825TIP3   OH2 2480   3.743   5.439   1.009
  825TIP3    H1 2481   3.814   5.467   0.952
  825TIP3    H2 2482   3.751   5.493   1.088
  826TIP3   OH2 2483   6.230   2.313   3.722
  826TIP3    H1 2484   6.136   2.333   3.724
  826TIP3    H2 2485   6.238   2.229   3.767
  827TIP3   OH2 2486   1.359   1.821   2.046
  827TIP3    H1 2487   1.338   1.911   2.068
  827TIP3    H2 2488   1.446   1.807   2.082
  828TIP3   OH2 2489   2.992   3.083   2.126
  828TIP3    H1 2490   3.015   3.131   2.205
  828TIP3    H2 2491   2.900   3.104   2.111
  829TIP3   OH2 2492   3.010   3.164   1.401
  829TIP3    H1 2493   2.957   3.241   1.423
  829TIP3    H2 2494   2.989   3.100   1.469
  830TIP3   OH2 2495   2.673   0.607   0.559
  830TIP3    H1 2496   2.663   0.687   0.611
  830TIP3    H2 2497   2.612   0.618   0.486
  831TIP3   OH2 2498   1.559   1.646   3.044
  831TIP3    H1 2499   1.619   1.668   2.973
  831TIP3    H2 2500   1.474   1.638   3.001
  832TIP3   OH2 2501   0.337   0.800   2.996
  832TIP3    H1 2502   0.411   0.854   2.968
  832TIP3    H2 2503   0.376   0.714   3.013
  833TIP3   OH2 2504   4.302  -0.011   2.456
  833TIP3    H1 2505   4.344   0.060   2.408
  833TIP3    H2 2506   4.374  -0.063   2.490
  834TIP3   OH2 2507   6.293   5.064   3.155
  834TIP3    H1 2508   6.316   5.136   3.096
  834TIP3    H2 2509   6.247   5.001   3.099
  835TIP3   OH2 2510   5.653   1.258   2.855
  835TIP3    H1 2511   5.640   1.319   2.782
  835TIP3    H2 2512   5.725   1.296   2.905
  836TIP3   OH2 2513   3.025   2.894   3.112
  836TIP3    H1 2514   3.031   2.855   3.025
  836TIP3    H2 2515   3.075   2.975   3.105
  837TIP3   OH2 2516   1.095   3.710   4.672
  837TIP3    H1 2517   1.056   3.663   4.746
  837TIP3    H2 2518   1.084   3.803   4.693
  838TIP3   OH2 2519   5.727   0.405   3.695
  838TIP3    H1 2520   5.702   0.337   3.758
  838TIP3    H2 2521   5.822   0.407   3.697
  839TIP3   OH2 2522   3.532   5.138   4.042
  839TIP3    H1 2523   3.522   5.066   3.980
  839TIP3    H2 2524   3.443   5.164   4.063
  840TIP3   OH2 2525   3.052   4.285   1.847
  840TIP3    H1 2526   2.958   4.294   1.866
  840TIP3    H2 2527   3.095   4.338   1.913
  841TIP3   OH2 2528   5.742   1.440   1.862
  841TIP3    H1 2529   5.833   1.416   1.844
  841TIP3    H2 2530   5.732   1.527   1.823
  842TIP3   OH2 2531   4.349   5.773   1.302
  842TIP3    H1 2532   4.426   5.786   1.247
  842TIP3    H2 2533   4.312   5.690   1.272
  843TIP3   OH2 2534   5.078   4.552   0.197
  843TIP3    H1 2535   5.088   4.632   0.146
  843TIP3    H2 2536   5.007   4.572   0.259
  844TIP3   OH2 2537   4.443   0.546   0.213
  844TIP3    H1 2538   4.413   0.598   0.288
  844TIP3    H2 2539   4.401   0.587   0.138
  845TIP3   OH2 2540   5.857   2.474   3.236
  845TIP3    H1 2541   5.778   2.455   3.287
  845TIP3    H2 2542   5.894   2.551   3.280
  846TIP3   OH2 2543   5.530   1.743   5.065
  846TIP3    H1 2544   5.557   1.830   5.097
  846TIP3    H2 2545   5.555   1.743   4.973
  847TIP3   OH2 2546   5.642   1.834   2.292
  847TIP3    H1 2547   5.724   1.865   2.332
  847TIP3    H2 2548   5.604   1.912   2.252
  848TIP3   OH2 2549   3.625   3.041   1.031
  848TIP3    H1 2550   3.708   2.993   1.034
  848TIP3    H2 2551   3.643   3.117   0.975
  849TIP3   OH2 2552   4.571   4.427   3.055
  849TIP3    H1 2553   4.532   4.482   3.123
  849TIP3    H2 2554   4.626   4.487   3.005
  850TIP3   OH2 2555   2.728   0.856   5.199
  850TIP3    H1 2556   2.820   0.833   5.217
  850TIP3    H2 2557   2.698   0.788   5.138
  851TIP3   OH2 2558   5.070   0.473   0.842
  851TIP3    H1 2559   5.140   0.530   0.809
  851TIP3    H2 2560   5.070   0.488   0.937
  852TIP3   OH2 2561   4.270   0.171   2.096
  852TIP3    H1 2562   4.268   0.078   2.075
  852TIP3    H2 2563   4.363   0.193   2.102
  853TIP3   OH2 2564   3.346   0.815   1.090
  853TIP3    H1 2565   3.392   0.752   1.146
  853TIP3    H2 2566   3.339   0.771   1.005
  854TIP3   OH2 2567   4.822   3.581   1.142
  854TIP3    H1 2568   4.754   3.538   1.194
  854TIP3    H2 2569   4.800   3.674   1.147
  855TIP3   OH2 2570   0.631   4.195   3.299
  855TIP3    H1 2571   0.591   4.160   3.220
  855TIP3    H2 2572   0.641   4.289   3.282
  856TIP3   OH2 2573   2.757   0.293   2.751
  856TIP3    H1 2574   2.702   0.301   2.674
  856TIP3    H2 2575   2.713   0.230   2.807
  857TIP3   OH2 2576   5.724   0.243   2.468
  857TIP3    H1 2577   5.630   0.230   2.471
  857TIP3    H2 2578   5.737   0.319   2.411
  858TIP3   OH2 2579   4.466   1.248   2.066
  858TIP3    H1 2580   4.453   1.262   1.972
  858TIP3    H2 2581   4.538   1.185   2.071
  859TIP3   OH2 2582   1.652   0.475   1.514
  859TIP3    H1 2583   1.688   0.409   1.454
  859TIP3    H2 2584   1.575   0.509   1.469
  860TIP3   OH2 2585   0.067   2.276   2.987
  860TIP3    H1 2586   0.106   2.272   3.075
  860TIP3    H2 2587  -0.020   2.237   2.998
  861TIP3   OH2 2588   0.930   3.433   2.653
  861TIP3    H1 2589   0.855   3.402   2.601
  861TIP3    H2 2590   0.938   3.525   2.628
  862TIP3   OH2 2591   3.613   2.856   1.303
  862TIP3    H1 2592   3.523   2.825   1.293
  862TIP3    H2 2593   3.655   2.834   1.220
  863TIP3   OH2 2594   4.140   5.775   0.856
  863TIP3    H1 2595   4.191   5.843   0.898
  863TIP3    H2 2596   4.089   5.821   0.789
  864TIP3   OH2 2597   1.347   3.912   0.122
  864TIP3    H1 2598   1.380   3.997   0.151
  864TIP3    H2 2599   1.260   3.930   0.085
  865TIP3   OH2 2600   5.328   0.539   0.119
  865TIP3    H1 2601   5.239   0.573   0.114
  865TIP3    H2 2602   5.340   0.516   0.211
  866TIP3   OH2 2603   5.255   2.215   1.546
  866TIP3    H1 2604   5.303   2.215   1.464
  866TIP3    H2 2605   5.164   2.228   1.521
  867TIP3   OH2 2606   5.839   3.780   0.910
  867TIP3    H1 2607   5.768   3.738   0.863
  867TIP3    H2 2608   5.834   3.745   0.999
  868TIP3   OH2 2609   1.553   3.064   3.439
  868TIP3    H1 2610   1.628   3.011   3.467
  868TIP3    H2 2611   1.493   3.002   3.398
  869TIP3   OH2 2612   3.350   2.726   4.569
  869TIP3    H1 2613   3.262   2.741   4.606
  869TIP3    H2 2614   3.395   2.810   4.580
  870TIP3   OH2 2615   2.698   0.108   4.949
  870TIP3    H1 2616   2.618   0.072   4.911
  870TIP3    H2 2617   2.732   0.038   5.004
  871TIP3   OH2 2618   6.096   2.028   1.537
  871TIP3    H1 2619   6.141   1.944   1.544
  871TIP3    H2 2620   6.003   2.007   1.547
  872TIP3   OH2 2621   2.190   3.860   2.635
  872TIP3    H1 2622   2.191   3.867   2.731
  872TIP3    H2 2623   2.097   3.850   2.613
  873TIP3   OH2 2624   2.563   0.368   4.011
  873TIP3    H1 2625   2.549   0.357   4.105
  873TIP3    H2 2626   2.539   0.284   3.972
  874TIP3   OH2 2627   3.377   5.431   2.346
  874TIP3    H1 2628   3.324   5.503   2.314
  874TIP3    H2 2629   3.408   5.386   2.267
  875TIP3   OH2 2630   3.245   0.033   2.460
  875TIP3    H1 2631   3.219   0.004   2.548
  875TIP3    H2 2632   3.185   0.104   2.440
  876TIP3   OH2 2633   2.060   4.026   1.163
  876TIP3    H1 2634   1.979   3.979   1.178
  876TIP3    H2 2635   2.035   4.100   1.108
  877TIP3   OH2 2636   5.655   1.951   0.177
  877TIP3    H1 2637   5.742   1.987   0.198
  877TIP3    H2 2638   5.663   1.858   0.198
  878TIP3   OH2 2639   4.685   4.934   0.682
  878TIP3    H1 2640   4.731   4.952   0.599
  878TIP3    H2 2641   4.755   4.928   0.747
  879TIP3   OH2 2642   0.252   3.354   4.341
  879TIP3    H1 2643   0.330   3.397   4.306
  879TIP3    H2 2644   0.268   3.261   4.326
  880TIP3   OH2 2645   2.968   0.800   4.204
  880TIP3    H1 2646   2.946   0.890   4.228
  880TIP3    H2 2647   2.884   0.756   4.194
  881TIP3   OH2 2648   5.703   2.535   0.652
  881TIP3    H1 2649   5.639   2.605   0.635
  881TIP3    H2 2650   5.745   2.561   0.733
  882TIP3   OH2 2651   4.076   5.842   4.693
  882TIP3    H1 2652   4.084   5.916   4.754
  882TIP3    H2 2653   4.096   5.880   4.607
  883TIP3   OH2 2654   1.462   2.513   3.449
  883TIP3    H1 2655   1.542   2.549   3.486
  883TIP3    H2 2656   1.406   2.497   3.525
  884TIP3   OH2 2657   4.434   2.955   5.065
  884TIP3    H1 2658   4.528   2.955   5.050
  884TIP3    H2 2659   4.415   3.041   5.101
  885TIP3   OH2 2660   1.256   0.846   4.224
  885TIP3    H1 2661   1.165   0.827   4.199
  885TIP3    H2 2662   1.293   0.760   4.245
  886TIP3   OH2 2663   1.467   0.355   0.017
  886TIP3    H1 2664   1.530   0.318  -0.044
  886TIP3    H2 2665   1.520   0.399   0.083
  887TIP3   OH2 2666   2.635   3.555   1.776
  887TIP3    H1 2667   2.627   3.462   1.798
  887TIP3    H2 2668   2.702   3.588   1.836
  888TIP3   OH2 2669   0.380   3.473   3.035
  888TIP3    H1 2670   0.455   3.431   2.992
  888TIP3    H2 2671   0.364   3.551   2.983
  889TIP3   OH2 2672   2.143   5.188   4.679
  889TIP3    H1 2673   2.114   5.170   4.769
  889TIP3    H2 2674   2.086   5.133   4.625
  890TIP3   OH2 2675   3.070   3.344   0.388
  890TIP3    H1 2676   3.114   3.372   0.469
  890TIP3    H2 2677   3.112   3.394   0.319
  891TIP3   OH2 2678   2.682   4.585   4.261
  891TIP3    H1 2679   2.727   4.667   4.280
  891TIP3    H2 2680   2.590   4.604   4.277
  892TIP3   OH2 2681   0.441   0.409   4.297
  892TIP3    H1 2682   0.527   0.368   4.295
  892TIP3    H2 2683   0.397   0.370   4.373
  893TIP3   OH2 2684   3.315   1.959   0.903
  893TIP3    H1 2685   3.233   1.997   0.935
  893TIP3    H2 2686   3.383   1.997   0.959
  894TIP3   OH2 2687   1.766   5.211   3.135
  894TIP3    H1 2688   1.708   5.260   3.077
  894TIP3    H2 2689   1.707   5.159   3.189
  895TIP3   OH2 2690   4.999   4.600   0.981
  895TIP3    H1 2691   4.908   4.573   0.995
  895TIP3    H2 2692   5.029   4.630   1.067
  896TIP3   OH2 2693   5.260   3.225   0.652
  896TIP3    H1 2694   5.199   3.183   0.592
  896TIP3    H2 2695   5.301   3.294   0.600
  897TIP3   OH2 2696   2.308   3.300   0.728
  897TIP3    H1 2697   2.364   3.271   0.800
  897TIP3    H2 2698   2.222   3.311   0.768
  898TIP3   OH2 2699   4.321   3.362   4.705
  898TIP3    H1 2700   4.235   3.328   4.731
  898TIP3    H2 2701   4.306   3.456   4.694
  899TIP3   OH2 2702   0.631   5.046   1.722
  899TIP3    H1 2703   0.544   5.085   1.716
  899TIP3    H2 2704   0.689   5.112   1.685
  900TIP3   OH2 2705   3.559   5.810   1.084
  900TIP3    H1 2706   3.500   5.854   1.145
  900TIP3    H2 2707   3.631   5.778   1.139
  901TIP3   OH2 2708   5.793   4.500   4.070
  901TIP3    H1 2709   5.886   4.514   4.049
  901TIP3    H2 2710   5.775   4.560   4.142
  902TIP3   OH2 2711   4.831   0.888   1.873
  902TIP3    H1 2712   4.864   0.852   1.955
  902TIP3    H2 2713   4.736   0.893   1.885
  903TIP3   OH2 2714   4.094   0.998   0.254
  903TIP3    H1 2715   4.092   1.044   0.338
  903TIP3    H2 2716   4.143   1.057   0.196
  904TIP3   OH2 2717   2.452   1.294   1.123
  904TIP3    H1 2718   2.448   1.380   1.082
  904TIP3    H2 2719   2.544   1.283   1.147
  905TIP3   OH2 2720   0.956   4.773   5.159
  905TIP3    H1 2721   1.021   4.766   5.229
  905TIP3    H2 2722   0.976   4.855   5.115
  906TIP3   OH2 2723   1.437   1.492   3.410
  906TIP3    H1 2724   1.348   1.490   3.445
  906TIP3    H2 2725   1.432   1.440   3.330
  907TIP3   OH2 2726   4.122   2.498   1.398
  907TIP3    H1 2727   4.217   2.493   1.411
  907TIP3    H2 2728   4.090   2.415   1.433
  908TIP3   OH2 2729   0.013   1.061   4.564
  908TIP3    H1 2730  -0.005   1.000   4.493
  908TIP3    H2 2731  -0.058   1.046   4.627
  909TIP3   OH2 2732   4.128   1.463   2.239
  909TIP3    H1 2733   4.065   1.392   2.231
  909TIP3    H2 2734   4.139   1.495   2.149
  910TIP3   OH2 2735   3.787   0.814   4.618
  910TIP3    H1 2736   3.766   0.754   4.547
  910TIP3    H2 2737   3.702   0.844   4.650
  911TIP3   OH2 2738   1.315   3.562   3.761
  911TIP3    H1 2739   1.307   3.532   3.670
  911TIP3    H2 2740   1.302   3.483   3.814
  912TIP3   OH2 2741   5.610   5.588   2.763
  912TIP3    H1 2742   5.571   5.619   2.681
  912TIP3    H2 2743   5.701   5.568   2.741
  913TIP3   OH2 2744   5.047   0.587   0.083
  913TIP3    H1 2745   4.983   0.554   0.146
  913TIP3    H2 2746   5.036   0.530   0.007
  914TIP3   OH2 2747   2.250   5.756   0.888
  914TIP3    H1 2748   2.178   5.697   0.910
  914TIP3    H2 2749   2.212   5.818   0.826
  915TIP3   OH2 2750   4.325   2.257   4.436
  915TIP3    H1 2751   4.246   2.272   4.383
  915TIP3    H2 2752   4.301   2.289   4.523
  916TIP3   OH2 2753   1.823   2.526   4.857
  916TIP3    H1 2754   1.748   2.584   4.865
  916TIP3    H2 2755   1.888   2.576   4.807
  917TIP3   OH2 2756   4.082   3.138   2.938
  917TIP3    H1 2757   4.118   3.226   2.951
  917TIP3    H2 2758   4.158   3.084   2.916
  918TIP3   OH2 2759   0.363   2.904   0.991
  918TIP3    H1 2760   0.392   2.942   0.908
  918TIP3    H2 2761   0.268   2.900   0.984
  919TIP3   OH2 2762   0.368   0.144   0.750
  919TIP3    H1 2763   0.439   0.095   0.792
  919TIP3    H2 2764   0.409   0.187   0.675
  920TIP3   OH2 2765   4.254   2.903   3.440
  920TIP3    H1 2766   4.168   2.930   3.408
  920TIP3    H2 2767   4.316   2.956   3.390
  921TIP3   OH2 2768   0.416   0.535   3.987
  921TIP3    H1 2769   0.356   0.589   3.936
  921TIP3    H2 2770   0.401   0.445   3.957
  922TIP3   OH2 2771   1.878   2.843   0.062
  922TIP3    H1 2772   1.791   2.851   0.101
  922TIP3    H2 2773   1.916   2.931   0.069
  923TIP3   OH2 2774   2.888   5.718   4.585
  923TIP3    H1 2775   2.843   5.680   4.509
  923TIP3    H2 2776   2.824   5.776   4.625
  924TIP3   OH2 2777   0.790   2.688   4.543
  924TIP3    H1 2778   0.736   2.648   4.475
  924TIP3    H2 2779   0.742   2.766   4.569
  925TIP3   OH2 2780   0.596   1.973   3.013
  925TIP3    H1 2781   0.551   1.957   2.930
  925TIP3    H2 2782   0.586   2.067   3.028
  926TIP3   OH2 2783   2.181   1.777   0.233
  926TIP3    H1 2784   2.117   1.710   0.210
  926TIP3    H2 2785   2.257   1.728   0.265
  927TIP3   OH2 2786   1.141   0.220   1.181
  927TIP3    H1 2787   1.160   0.211   1.274
  927TIP3    H2 2788   1.062   0.168   1.167
  928TIP3   OH2 2789   4.926   5.456   4.329
  928TIP3    H1 2790   5.008   5.412   4.309
  928TIP3    H2 2791   4.951   5.533   4.380
  929TIP3   OH2 2792   3.626   0.616   0.672
  929TIP3    H1 2793   3.675   0.690   0.708
  929TIP3    H2 2794   3.694   0.559   0.635
  930TIP3   OH2 2795   3.728   2.724   4.861
  930TIP3    H1 2796   3.783   2.647   4.849
  930TIP3    H2 2797   3.655   2.693   4.915
  931TIP3   OH2 2798   4.050   4.521   3.585
  931TIP3    H1 2799   4.014   4.466   3.655
  931TIP3    H2 2800   4.020   4.609   3.606
  932TIP3   OH2 2801   0.206   0.873   4.052
  932TIP3    H1 2802   0.230   0.916   3.970
  932TIP3    H2 2803   0.289   0.847   4.091
  933TIP3   OH2 2804   3.477   4.612   0.289
  933TIP3    H1 2805   3.478   4.518   0.306
  933TIP3    H2 2806   3.435   4.650   0.367
  934TIP3   OH2 2807   2.858   1.639   1.816
  934TIP3    H1 2808   2.897   1.710   1.765
  934TIP3    H2 2809   2.889   1.655   1.906
  935TIP3   OH2 2810   4.426   3.531   1.749
  935TIP3    H1 2811   4.421   3.483   1.831
  935TIP3    H2 2812   4.505   3.585   1.757
  936TIP3   OH2 2813   3.331   4.731   1.682
  936TIP3    H1 2814   3.418   4.690   1.684
  936TIP3    H2 2815   3.283   4.681   1.617
  937TIP3   OH2 2816   0.287   2.893   1.729
  937TIP3    H1 2817   0.356   2.925   1.670
  937TIP3    H2 2818   0.265   2.807   1.695
  938TIP3   OH2 2819   3.045   5.124   2.235
  938TIP3    H1 2820   3.031   5.035   2.269
  938TIP3    H2 2821   3.081   5.172   2.310
  939TIP3   OH2 2822   1.251   1.045   2.785
  939TIP3    H1 2823   1.238   1.026   2.878
  939TIP3    H2 2824   1.262   0.960   2.744
  940TIP3   OH2 2825   5.255   2.353   3.021
  940TIP3    H1 2826   5.184   2.372   3.082
  940TIP3    H2 2827   5.334   2.380   3.068
  941TIP3   OH2 2828   4.722   5.322   1.461
  941TIP3    H1 2829   4.784   5.249   1.451
  941TIP3    H2 2830   4.675   5.301   1.542
  942TIP3   OH2 2831   2.837   2.552   4.168
  942TIP3    H1 2832   2.747   2.520   4.167
  942TIP3    H2 2833   2.881   2.499   4.235
  943TIP3   OH2 2834   3.853   1.821   3.856
  943TIP3    H1 2835   3.804   1.898   3.827
  943TIP3    H2 2836   3.918   1.855   3.917
  944TIP3   OH2 2837   4.644   0.579   4.389
  944TIP3    H1 2838   4.602   0.644   4.445
  944TIP3    H2 2839   4.737   0.601   4.391
  945TIP3   OH2 2840   0.106   5.516   0.029
  945TIP3    H1 2841   0.194   5.500  -0.007
  945TIP3    H2 2842   0.104   5.466   0.111
  946TIP3   OH2 2843   4.400   3.976   0.955
  946TIP3    H1 2844   4.433   4.018   1.034
  946TIP3    H2 2845   4.428   4.035   0.884
  947TIP3   OH2 2846   3.440   0.262   3.652
  947TIP3    H1 2847   3.525   0.265   3.609
  947TIP3    H2 2848   3.413   0.354   3.659
  948TIP3   OH2 2849   4.087   1.216   1.203
  948TIP3    H1 2850   4.081   1.300   1.157
  948TIP3    H2 2851   4.080   1.240   1.296
  949TIP3   OH2 2852   3.963   2.996   0.649
  949TIP3    H1 2853   4.051   3.024   0.623
  949TIP3    H2 2854   3.927   2.956   0.570
  950TIP3   OH2 2855   0.193   4.990   2.769
  950TIP3    H1 2856   0.156   4.949   2.847
  950TIP3    H2 2857   0.124   5.049   2.738
  951TIP3   OH2 2858   5.072   3.796   0.637
  951TIP3    H1 2859   5.108   3.882   0.614
  951TIP3    H2 2860   5.071   3.795   0.733
  952TIP3   OH2 2861   5.783   3.562   3.933
  952TIP3    H1 2862   5.735   3.630   3.886
  952TIP3    H2 2863   5.842   3.525   3.868
  953TIP3   OH2 2864   4.181   3.624   1.861
  953TIP3    H1 2865   4.270   3.611   1.892
  953TIP3    H2 2866   4.148   3.698   1.913
  954TIP3   OH2 2867   2.444   2.447   3.571
  954TIP3    H1 2868   2.516   2.482   3.519
  954TIP3    H2 2869   2.468   2.355   3.587
  955TIP3   OH2 2870   1.828   2.090   0.294
  955TIP3    H1 2871   1.786   2.024   0.239
  955TIP3    H2 2872   1.841   2.047   0.378
  956TIP3   OH2 2873   3.917   4.411   4.652
  956TIP3    H1 2874   3.896   4.432   4.743
  956TIP3    H2 2875   3.838   4.368   4.619
  957TIP3   OH2 2876   5.736   3.172   0.336
  957TIP3    H1 2877   5.707   3.099   0.390
  957TIP3    H2 2878   5.830   3.177   0.352
  958TIP3   OH2 2879   1.249   1.684   0.284
  958TIP3    H1 2880   1.250   1.606   0.229
  958TIP3    H2 2881   1.246   1.757   0.223
  959TIP3   OH2 2882   0.135   5.267   1.075
  959TIP3    H1 2883   0.074   5.309   1.136
  959TIP3    H2 2884   0.092   5.185   1.051
  960TIP3   OH2 2885   5.603   2.217   2.453
  960TIP3    H1 2886   5.695   2.235   2.437
  960TIP3    H2 2887   5.571   2.183   2.369
  961TIP3   OH2 2888   1.129   5.893   3.838
  961TIP3    H1 2889   1.117   5.921   3.747
  961TIP3    H2 2890   1.042   5.865   3.867
  962TIP3   OH2 2891   2.462   0.882   0.913
  962TIP3    H1 2892   2.416   0.825   0.851
  962TIP3    H2 2893   2.441   0.846   0.999
  963TIP3   OH2 2894   4.558   5.832   4.694
  963TIP3    H1 2895   4.527   5.897   4.756
  963TIP3    H2 2896   4.643   5.804   4.729
  964TIP3   OH2 2897   2.006   0.124   0.787
  964TIP3    H1 2898   1.968   0.196   0.737
  964TIP3    H2 2899   1.956   0.122   0.869
  965TIP3   OH2 2900   5.280   5.651   1.378
  965TIP3    H1 2901   5.187   5.652   1.355
  965TIP3    H2 2902   5.287   5.589   1.450
  966TIP3   OH2 2903   2.048   1.218   1.031
  966TIP3    H1 2904   2.076   1.278   1.101
  966TIP3    H2 2905   2.129   1.177   1.001
  967TIP3   OH2 2906   2.058   4.155   4.535
  967TIP3    H1 2907   2.017   4.101   4.467
  967TIP3    H2 2908   2.028   4.116   4.617
  968TIP3   OH2 2909   5.775   1.934   3.657
  968TIP3    H1 2910   5.732   1.848   3.660
  968TIP3    H2 2911   5.816   1.943   3.744
  969TIP3   OH2 2912   5.270   1.664   4.103
  969TIP3    H1 2913   5.259   1.710   4.020
  969TIP3    H2 2914   5.363   1.643   4.107
  970TIP3   OH2 2915   0.990   3.970   4.171
  970TIP3    H1 2916   0.951   4.057   4.177
  970TIP3    H2 2917   0.995   3.940   4.262
  971TIP3   OH2 2918   5.696   5.699   4.135
  971TIP3    H1 2919   5.756   5.723   4.065
  971TIP3    H2 2920   5.699   5.774   4.195
  972TIP3   OH2 2921   2.336   5.044   0.082
  972TIP3    H1 2922   2.356   5.102   0.007
  972TIP3    H2 2923   2.240   5.048   0.090
  973TIP3   OH2 2924   6.155   3.166   1.188
  973TIP3    H1 2925   6.155   3.159   1.284
  973TIP3    H2 2926   6.130   3.079   1.158
  974TIP3   OH2 2927   0.280   5.031   2.323
  974TIP3    H1 2928   0.211   5.077   2.275
  974TIP3    H2 2929   0.338   5.100   2.354
  975TIP3   OH2 2930   0.210   4.905   4.268
  975TIP3    H1 2931   0.229   4.815   4.295
  975TIP3    H2 2932   0.249   4.913   4.181
  976TIP3   OH2 2933   3.356   2.200   1.351
  976TIP3    H1 2934   3.272   2.171   1.316
  976TIP3    H2 2935   3.340   2.216   1.444
  977TIP3   OH2 2936   3.035   0.398   4.687
  977TIP3    H1 2937   2.981   0.477   4.683
  977TIP3    H2 2938   2.973   0.328   4.705
  978TIP3   OH2 2939   5.152   5.306   2.301
  978TIP3    H1 2940   5.058   5.285   2.305
  978TIP3    H2 2941   5.173   5.302   2.208
  979TIP3   OH2 2942   0.157   1.365   4.269
  979TIP3    H1 2943   0.169   1.275   4.237
  979TIP3    H2 2944   0.095   1.356   4.341
  980TIP3   OH2 2945   2.215   2.340   2.800
  980TIP3    H1 2946   2.179   2.417   2.756
  980TIP3    H2 2947   2.146   2.312   2.860
  981TIP3   OH2 2948   3.165   2.861   0.728
  981TIP3    H1 2949   3.127   2.931   0.781
  981TIP3    H2 2950   3.259   2.875   0.734
  982TIP3   OH2 2951   1.038   5.885   1.346
  982TIP3    H1 2952   1.042   5.861   1.439
  982TIP3    H2 2953   1.002   5.974   1.347
  983TIP3   OH2 2954   1.787   1.582   4.044
  983TIP3    H1 2955   1.808   1.494   4.074
  983TIP3    H2 2956   1.831   1.640   4.107
  984TIP3   OH2 2957   0.507   1.873   2.759
  984TIP3    H1 2958   0.596   1.846   2.736
  984TIP3    H2 2959   0.468   1.898   2.675
  985TIP3   OH2 2960   0.258   2.264   1.154
  985TIP3    H1 2961   0.170   2.300   1.149
  985TIP3    H2 2962   0.314   2.341   1.167
  986TIP3   OH2 2963   1.355   3.638   4.717
  986TIP3    H1 2964   1.276   3.675   4.679
  986TIP3    H2 2965   1.384   3.571   4.654
  987TIP3   OH2 2966   3.500   0.699   3.379
  987TIP3    H1 2967   3.517   0.693   3.286
  987TIP3    H2 2968   3.411   0.734   3.385
  988TIP3   OH2 2969   0.428   3.924   4.283
  988TIP3    H1 2970   0.447   3.942   4.375
  988TIP3    H2 2971   0.332   3.930   4.277
  989TIP3   OH2 2972   5.242   4.906   4.781
  989TIP3    H1 2973   5.334   4.887   4.765
  989TIP3    H2 2974   5.195   4.839   4.732
  990TIP3   OH2 2975   4.928   0.793   1.403
  990TIP3    H1 2976   4.930   0.771   1.310
  990TIP3    H2 2977   5.018   0.822   1.422
  991TIP3   OH2 2978   4.296   5.775   3.721
  991TIP3    H1 2979   4.373   5.802   3.771
  991TIP3    H2 2980   4.328   5.707   3.661
  992TIP3   OH2 2981   3.769   0.448   1.494
  992TIP3    H1 2982   3.834   0.406   1.438
  992TIP3    H2 2983   3.814   0.460   1.578
  993TIP3   OH2 2984   6.144   4.924   2.335
  993TIP3    H1 2985   6.127   4.919   2.429
  993TIP3    H2 2986   6.142   4.833   2.305
  994TIP3   OH2 2987   2.594   0.276   0.330
  994TIP3    H1 2988   2.683   0.241   0.318
  994TIP3    H2 2989   2.554   0.269   0.244
  995TIP3   OH2 2990   0.463   5.709   1.263
  995TIP3    H1 2991   0.395   5.768   1.229
  995TIP3    H2 2992   0.502   5.757   1.336
  996TIP3   OH2 2993   3.545   5.491   5.134
  996TIP3    H1 2994   3.508   5.408   5.165
  996TIP3    H2 2995   3.635   5.491   5.166
  997TIP3   OH2 2996   2.220   0.015   0.914
  997TIP3    H1 2997   2.147   0.067   0.881
  997TIP3    H2 2998   2.275  -0.001   0.837
  998TIP3   OH2 2999   5.862   2.693   0.827
  998TIP3    H1 3000   5.873   2.706   0.922
  998TIP3    H2 3001   5.928   2.750   0.788
  999TIP3   OH2 3002   2.256   0.396   5.008
  999TIP3    H1 3003   2.303   0.375   4.928
  999TIP3    H2 3004   2.180   0.447   4.979
 1000TIP3   OH2 3005   0.760   3.032   2.209
 1000TIP3    H1 3006   0.738   2.956   2.156
 1000TIP3    H2 3007   0.827   3.000   2.270
 1001TIP3   OH2 3008   3.221   4.347   2.389
 1001TIP3    H1 3009   3.210   4.418   2.451
 1001TIP3    H2 3010   3.134   4.335   2.350
 1002TIP3   OH2 3011   3.160   5.581   4.336
 1002TIP3    H1 3012   3.137   5.600   4.427
 1002TIP3    H2 3013   3.100   5.510   4.311
 1003TIP3   OH2 3014   6.233   4.637   2.390
 1003TIP3    H1 3015   6.303   4.583   2.352
 1003TIP3    H2 3016   6.272   4.675   2.469
 1004TIP3   OH2 3017   1.128   5.382   0.406
 1004TIP3    H1 3018   1.057   5.319   0.414
 1004TIP3    H2 3019   1.139   5.396   0.312
 1005TIP3   OH2 3020   2.752   3.612   2.200
 1005TIP3    H1 3021   2.750   3.703   2.226
 1005TIP3    H2 3022   2.681   3.571   2.249
 1006TIP3   OH2 3023   3.497   2.238   1.861
 1006TIP3    H1 3024   3.588   2.248   1.835
 1006TIP3    H2 3025   3.453   2.203   1.783
 1007TIP3   OH2 3026   3.366   2.046   3.896
 1007TIP3    H1 3027   3.290   2.077   3.945
 1007TIP3    H2 3028   3.372   2.104   3.821
 1008TIP3   OH2 3029   2.264   3.860   1.933
 1008TIP3    H1 3030   2.173   3.891   1.923
 1008TIP3    H2 3031   2.314   3.914   1.871
 1009TIP3   OH2 3032   0.195   0.381   0.792
 1009TIP3    H1 3033   0.260   0.341   0.850
 1009TIP3    H2 3034   0.114   0.380   0.843
 1010TIP3   OH2 3035   3.918   0.446   1.730
 1010TIP3    H1 3036   3.864   0.491   1.795
 1010TIP3    H2 3037   3.998   0.422   1.777
 1011TIP3   OH2 3038   1.219   2.168   0.746
 1011TIP3    H1 3039   1.314   2.171   0.759
 1011TIP3    H2 3040   1.184   2.140   0.830
 1012TIP3   OH2 3041   1.677   3.628   3.265
 1012TIP3    H1 3042   1.752   3.687   3.275
 1012TIP3    H2 3043   1.651   3.609   3.355
 1013TIP3   OH2 3044   3.658   1.984   4.745
 1013TIP3    H1 3045   3.603   2.053   4.707
 1013TIP3    H2 3046   3.735   2.030   4.778
 1014TIP3   OH2 3047   4.085   3.142   4.012
 1014TIP3    H1 3048   4.114   3.224   3.972
 1014TIP3    H2 3049   4.021   3.170   4.078
 1015TIP3   OH2 3050   5.236   5.844   3.697
 1015TIP3    H1 3051   5.155   5.803   3.669
 1015TIP3    H2 3052   5.291   5.845   3.618
 1016TIP3   OH2 3053   5.531   5.254   0.162
 1016TIP3    H1 3054   5.523   5.194   0.088
 1016TIP3    H2 3055   5.523   5.199   0.240
 1017TIP3   OH2 3056   0.089   1.387   1.470
 1017TIP3    H1 3057   0.057   1.356   1.385
 1017TIP3    H2 3058   0.180   1.358   1.473
 1018TIP3   OH2 3059   6.090   4.029   2.061
 1018TIP3    H1 3060   6.027   4.012   1.992
 1018TIP3    H2 3061   6.175   4.009   2.022
 1019TIP3   OH2 3062   1.488   0.859   1.711
 1019TIP3    H1 3063   1.571   0.833   1.671
 1019TIP3    H2 3064   1.421   0.813   1.660
 1020TIP3   OH2 3065   1.073   5.673   3.667
 1020TIP3    H1 3066   1.162   5.680   3.634
 1020TIP3    H2 3067   1.019   5.715   3.600
 1021TIP3   OH2 3068   5.188   2.747   0.625
 1021TIP3    H1 3069   5.099   2.747   0.661
 1021TIP3    H2 3070   5.234   2.681   0.677
 1022TIP3   OH2 3071   0.768  -0.007   2.043
 1022TIP3    H1 3072   0.855   0.030   2.026
 1022TIP3    H2 3073   0.713   0.068   2.062
 1023TIP3   OH2 3074   1.361   1.959   3.194
 1023TIP3    H1 3075   1.412   1.967   3.114
 1023TIP3    H2 3076   1.272   1.939   3.165
 1024TIP3   OH2 3077   1.172   2.185   5.073
 1024TIP3    H1 3078   1.078   2.180   5.086
 1024TIP3    H2 3079   1.186   2.272   5.035
 1025TIP3   OH2 3080   1.923   0.238   4.136
 1025TIP3    H1 3081   1.870   0.173   4.182
 1025TIP3    H2 3082   1.918   0.213   4.044
 1026TIP3   OH2 3083   3.764   3.428   4.660
 1026TIP3    H1 3084   3.777   3.393   4.748
 1026TIP3    H2 3085   3.703   3.501   4.672
 1027TIP3   OH2 3086   3.967   2.869   3.453
 1027TIP3    H1 3087   3.930   2.801   3.509
 1027TIP3    H2 3088   3.985   2.942   3.512
 1028TIP3   OH2 3089   2.534   0.511   4.675
 1028TIP3    H1 3090   2.478   0.541   4.603
 1028TIP3    H2 3091   2.480   0.518   4.753
 1029TIP3   OH2 3092   0.325   5.163   2.043
 1029TIP3    H1 3093   0.399   5.104   2.054
 1029TIP3    H2 3094   0.305   5.158   1.949
 1030TIP3   OH2 3095   4.080   2.236   3.592
 1030TIP3    H1 3096   4.117   2.285   3.518
 1030TIP3    H2 3097   4.042   2.157   3.552
 1031TIP3   OH2 3098   4.754   2.870   0.468
 1031TIP3    H1 3099   4.694   2.904   0.402
 1031TIP3    H2 3100   4.751   2.936   0.538
 1032TIP3   OH2 3101   4.458   1.562   0.347
 1032TIP3    H1 3102   4.518   1.509   0.294
 1032TIP3    H2 3103   4.496   1.560   0.435
 1033TIP3   OH2 3104   3.434   3.854   0.651
 1033TIP3    H1 3105   3.418   3.832   0.559
 1033TIP3    H2 3106   3.508   3.915   0.648
 1034TIP3   OH2 3107   1.121   1.303   0.083
 1034TIP3    H1 3108   1.069   1.248   0.142
 1034TIP3    H2 3109   1.061   1.372   0.055
 1035TIP3   OH2 3110   2.934   5.852   3.505
 1035TIP3    H1 3111   2.934   5.941   3.542
 1035TIP3    H2 3112   2.915   5.866   3.412
 1036TIP3   OH2 3113   0.835   5.180   2.820
 1036TIP3    H1 3114   0.833   5.264   2.775
 1036TIP3    H2 3115   0.772   5.126   2.772
 1037TIP3   OH2 3116   3.715   0.912   2.615
 1037TIP3    H1 3117   3.773   0.931   2.689
 1037TIP3    H2 3118   3.636   0.876   2.654
 1038TIP3   OH2 3119   0.416   5.247   2.411
 1038TIP3    H1 3120   0.404   5.334   2.373
 1038TIP3    H2 3121   0.481   5.259   2.480
 1039TIP3   OH2 3122   3.292   3.577   3.362
 1039TIP3    H1 3123   3.302   3.529   3.444
 1039TIP3    H2 3124   3.381   3.604   3.339
 1040TIP3   OH2 3125   3.942   5.051   1.935
 1040TIP3    H1 3126   3.991   5.131   1.956
 1040TIP3    H2 3127   3.960   5.037   1.842
 1041TIP3   OH2 3128   2.802   2.386   0.689
 1041TIP3    H1 3129   2.816   2.480   0.677
 1041TIP3    H2 3130   2.800   2.375   0.784
 1042TIP3   OH2 3131   4.382   1.197   1.457
 1042TIP3    H1 3132   4.416   1.108   1.455
 1042TIP3    H2 3133   4.426   1.238   1.532
 1043TIP3   OH2 3134   2.735   4.143   1.572
 1043TIP3    H1 3135   2.820   4.106   1.546
 1043TIP3    H2 3136   2.708   4.091   1.647
 1044TIP3   OH2 3137   5.508   3.488   4.538
 1044TIP3    H1 3138   5.526   3.447   4.453
 1044TIP3    H2 3139   5.580   3.549   4.550
 1045TIP3   OH2 3140   1.734   4.820   0.064
 1045TIP3    H1 3141   1.771   4.881   0.001
 1045TIP3    H2 3142   1.694   4.876   0.131
 1046TIP3   OH2 3143   1.899   3.567   0.360
 1046TIP3    H1 3144   1.846   3.567   0.441
 1046TIP3    H2 3145   1.857   3.633   0.305
 1047TIP3   OH2 3146   2.794   1.132   3.066
 1047TIP3    H1 3147   2.705   1.130   3.100
 1047TIP3    H2 3148   2.844   1.075   3.125
 1048TIP3   OH2 3149   3.883   4.636   5.185
 1048TIP3    H1 3150   3.802   4.607   5.227
 1048TIP3    H2 3151   3.855   4.671   5.101
 1049TIP3   OH2 3152   4.781   4.438   5.041
 1049TIP3    H1 3153   4.715   4.464   5.105
 1049TIP3    H2 3154   4.794   4.517   4.987
 1050TIP3   OH2 3155   2.326   0.661   4.921
 1050TIP3    H1 3156   2.305   0.734   4.862
 1050TIP3    H2 3157   2.245   0.646   4.970
 1051TIP3   OH2 3158   4.383   1.479   1.414
 1051TIP3    H1 3159   4.367   1.385   1.417
 1051TIP3    H2 3160   4.296   1.518   1.412
 1052TIP3   OH2 3161   1.378   0.466   3.184
 1052TIP3    H1 3162   1.288   0.449   3.212
 1052TIP3    H2 3163   1.369   0.510   3.099
 1053TIP3   OH2 3164   4.829   3.914   4.599
 1053TIP3    H1 3165   4.840   3.990   4.656
 1053TIP3    H2 3166   4.902   3.919   4.537
 1054TIP3   OH2 3167   0.754   0.180   4.606
 1054TIP3    H1 3168   0.747   0.245   4.536
 1054TIP3    H2 3169   0.676   0.195   4.660
 1055TIP3   OH2 3170   0.311   1.214   1.610
 1055TIP3    H1 3171   0.254   1.182   1.680
 1055TIP3    H2 3172   0.349   1.135   1.572
 1056TIP3   OH2 3173   0.989   0.390   0.728
 1056TIP3    H1 3174   1.012   0.366   0.817
 1056TIP3    H2 3175   0.965   0.483   0.734
 1057TIP3   OH2 3176   1.595   3.307   3.547
 1057TIP3    H1 3177   1.684   3.309   3.581
 1057TIP3    H2 3178   1.578   3.215   3.528
 1058TIP3   OH2 3179   2.831   2.829   2.468
 1058TIP3    H1 3180   2.739   2.810   2.448
 1058TIP3    H2 3181   2.833   2.923   2.485
 1059TIP3   OH2 3182   3.762   2.045   2.056
 1059TIP3    H1 3183   3.809   2.115   2.011
 1059TIP3    H2 3184   3.813   1.966   2.038
 1060TIP3   OH2 3185   5.823   2.025   1.700
 1060TIP3    H1 3186   5.744   2.048   1.749
 1060TIP3    H2 3187   5.855   1.946   1.742
 1061TIP3   OH2 3188   5.239   2.515   4.229
 1061TIP3    H1 3189   5.274   2.580   4.290
 1061TIP3    H2 3190   5.231   2.435   4.281
 1062TIP3   OH2 3191   5.055   5.648   4.474
 1062TIP3    H1 3192   5.025   5.739   4.479
 1062TIP3    H2 3193   5.047   5.616   4.564
 1063TIP3   OH2 3194   3.836   1.351   2.456
 1063TIP3    H1 3195   3.787   1.424   2.418
 1063TIP3    H2 3196   3.799   1.340   2.544
 1064TIP3   OH2 3197   0.575   2.782   0.142
 1064TIP3    H1 3198   0.500   2.840   0.126
 1064TIP3    H2 3199   0.651   2.832   0.109
 1065TIP3   OH2 3200   3.438   3.911   2.923
 1065TIP3    H1 3201   3.455   4.005   2.918
 1065TIP3    H2 3202   3.495   3.872   2.856
 1066TIP3   OH2 3203   5.069   2.951   3.874
 1066TIP3    H1 3204   5.071   2.927   3.781
 1066TIP3    H2 3205   5.138   3.016   3.883
 1067TIP3   OH2 3206   4.185   0.812   1.595
 1067TIP3    H1 3207   4.134   0.813   1.514
 1067TIP3    H2 3208   4.242   0.736   1.587
 1068TIP3   OH2 3209   4.767   4.308   0.656
 1068TIP3    H1 3210   4.775   4.399   0.685
 1068TIP3    H2 3211   4.787   4.312   0.562
 1069TIP3   OH2 3212   2.766   4.261   0.287
 1069TIP3    H1 3213   2.777   4.324   0.358
 1069TIP3    H2 3214   2.843   4.204   0.293
 1070TIP3   OH2 3215   5.857   1.385   2.969
 1070TIP3    H1 3216   5.944   1.404   2.935
 1070TIP3    H2 3217   5.851   1.437   3.049
 1071TIP3   OH2 3218   5.445   5.387   3.887
 1071TIP3    H1 3219   5.511   5.444   3.848
 1071TIP3    H2 3220   5.408   5.438   3.958
 1072TIP3   OH2 3221   1.982   5.106   1.887
 1072TIP3    H1 3222   2.057   5.046   1.895
 1072TIP3    H2 3223   1.905   5.048   1.887
 1073TIP3   OH2 3224   6.216   5.522   3.444
 1073TIP3    H1 3225   6.285   5.579   3.409
 1073TIP3    H2 3226   6.230   5.437   3.401
 1074TIP3   OH2 3227   0.080   4.199   4.413
 1074TIP3    H1 3228  -0.006   4.178   4.377
 1074TIP3    H2 3229   0.109   4.119   4.457
 1075TIP3   OH2 3230   2.751   1.490   2.908
 1075TIP3    H1 3231   2.761   1.581   2.936
 1075TIP3    H2 3232   2.683   1.454   2.965
 1076TIP3   OH2 3233   4.258   4.332   2.649
 1076TIP3    H1 3234   4.287   4.341   2.740
 1076TIP3    H2 3235   4.247   4.238   2.637
 1077TIP3   OH2 3236   3.222   4.649   0.092
 1077TIP3    H1 3237   3.207   4.697   0.011
 1077TIP3    H2 3238   3.282   4.705   0.142
 1078TIP3   OH2 3239   3.449   1.537   4.053
 1078TIP3    H1 3240   3.411   1.621   4.025
 1078TIP3    H2 3241   3.419   1.527   4.143
 1079TIP3   OH2 3242   2.792   5.515   1.962
 1079TIP3    H1 3243   2.884   5.518   1.933
 1079TIP3    H2 3244   2.787   5.436   2.016
 1080TIP3   OH2 3245   0.569  -0.002   0.920
 1080TIP3    H1 3246   0.637  -0.046   0.869
 1080TIP3    H2 3247   0.618   0.044   0.989
 1081TIP3   OH2 3248   5.596   3.136   1.517
 1081TIP3    H1 3249   5.613   3.176   1.431
 1081TIP3    H2 3250   5.671   3.078   1.530
 1082TIP3   OH2 3251   5.070   1.824   2.736
 1082TIP3    H1 3252   5.030   1.794   2.654
 1082TIP3    H2 3253   5.036   1.913   2.747
 1083TIP3   OH2 3254   5.045   0.345   4.792
 1083TIP3    H1 3255   5.047   0.431   4.750
 1083TIP3    H2 3256   4.955   0.336   4.824
 1084TIP3   OH2 3257   5.741   1.298   3.657
 1084TIP3    H1 3258   5.798   1.222   3.646
 1084TIP3    H2 3259   5.725   1.330   3.569
 1085TIP3   OH2 3260   4.082   0.204   3.192
 1085TIP3    H1 3261   4.116   0.287   3.159
 1085TIP3    H2 3262   4.098   0.142   3.120
 1086TIP3   OH2 3263   4.281   2.303   0.077
 1086TIP3    H1 3264   4.373   2.284   0.061
 1086TIP3    H2 3265   4.241   2.218   0.095
 1087TIP3   OH2 3266   4.875   3.389   3.758
 1087TIP3    H1 3267   4.959   3.344   3.755
 1087TIP3    H2 3268   4.892   3.475   3.719
 1088TIP3   OH2 3269   3.986   1.161   5.081
 1088TIP3    H1 3270   4.064   1.215   5.069
 1088TIP3    H2 3271   4.016   1.071   5.067
 1089TIP3   OH2 3272   4.863   0.295   3.154
 1089TIP3    H1 3273   4.795   0.362   3.148
 1089TIP3    H2 3274   4.857   0.262   3.244
 1090TIP3   OH2 3275   4.331   5.664   0.542
 1090TIP3    H1 3276   4.410   5.698   0.584
 1090TIP3    H2 3277   4.273   5.740   0.535
 1091TIP3   OH2 3278   5.031   2.164   3.986
 1091TIP3    H1 3279   4.936   2.154   3.997
 1091TIP3    H2 3280   5.045   2.258   3.988
 1092TIP3   OH2 3281   5.755   1.603   4.439
 1092TIP3    H1 3282   5.842   1.602   4.480
 1092TIP3    H2 3283   5.736   1.511   4.422
 1093TIP3   OH2 3284   4.262   1.728   3.149
 1093TIP3    H1 3285   4.320   1.668   3.103
 1093TIP3    H2 3286   4.174   1.701   3.124
 1094TIP3   OH2 3287   2.960   2.147   3.482
 1094TIP3    H1 3288   2.917   2.069   3.516
 1094TIP3    H2 3289   3.051   2.120   3.465
 1095TIP3   OH2 3290   2.029   1.243   3.434
 1095TIP3    H1 3291   2.044   1.303   3.507
 1095TIP3    H2 3292   2.000   1.298   3.362
 1096TIP3   OH2 3293   0.115   1.213   2.220
 1096TIP3    H1 3294   0.185   1.223   2.156
 1096TIP3    H2 3295   0.100   1.118   2.225
 1097TIP3   OH2 3296   1.014   0.192   4.969
 1097TIP3    H1 3297   0.965   0.250   5.027
 1097TIP3    H2 3298   1.055   0.250   4.905
 1098TIP3   OH2 3299   5.968   5.170   3.939
 1098TIP3    H1 3300   5.875   5.170   3.917
 1098TIP3    H2 3301   5.994   5.078   3.932
 1099TIP3   OH2 3302   4.852   5.272   5.161
 1099TIP3    H1 3303   4.834   5.275   5.255
 1099TIP3    H2 3304   4.931   5.325   5.149
 1100TIP3   OH2 3305   1.199   3.037   1.457
 1100TIP3    H1 3306   1.260   3.110   1.473
 1100TIP3    H2 3307   1.213   3.014   1.365
 1101TIP3   OH2 3308   3.916   4.123   3.210
 1101TIP3    H1 3309   3.896   4.120   3.116
 1101TIP3    H2 3310   4.011   4.116   3.214
 1102TIP3   OH2 3311   2.842   4.491   1.706
 1102TIP3    H1 3312   2.857   4.582   1.730
 1102TIP3    H2 3313   2.927   4.448   1.721
 1103TIP3   OH2 3314   2.675   4.307   0.989
 1103TIP3    H1 3315   2.695   4.218   1.018
 1103TIP3    H2 3316   2.591   4.299   0.944
 1104TIP3   OH2 3317   0.449   2.792   2.970
 1104TIP3    H1 3318   0.537   2.824   2.989
 1104TIP3    H2 3319   0.430   2.824   2.882
 1105TIP3   OH2 3320   0.282   0.254   5.120
 1105TIP3    H1 3321   0.328   0.273   5.201
 1105TIP3    H2 3322   0.343   0.198   5.071
 1106TIP3   OH2 3323   4.404   5.561   0.139
 1106TIP3    H1 3324   4.489   5.558   0.095
 1106TIP3    H2 3325   4.340   5.555   0.069
 1107TIP3   OH2 3326   4.874   5.731   1.589
 1107TIP3    H1 3327   4.953   5.778   1.561
 1107TIP3    H2 3328   4.810   5.801   1.604
 1108TIP3   OH2 3329   2.745   4.016   1.825
 1108TIP3    H1 3330   2.782   3.961   1.894
 1108TIP3    H2 3331   2.760   4.105   1.856
 1109TIP3   OH2 3332   6.080   0.133   4.157
 1109TIP3    H1 3333   6.173   0.155   4.153
 1109TIP3    H2 3334   6.070   0.059   4.097
 1110TIP3   OH2 3335   2.701   2.348   3.002
 1110TIP3    H1 3336   2.706   2.428   2.949
 1110TIP3    H2 3337   2.792   2.333   3.029
 1111TIP3   OH2 3338   3.251   3.502   0.874
 1111TIP3    H1 3339   3.237   3.413   0.905
 1111TIP3    H2 3340   3.331   3.497   0.821
 1112TIP3   OH2 3341   4.987   4.746   2.673
 1112TIP3    H1 3342   4.999   4.821   2.731
 1112TIP3    H2 3343   5.044   4.678   2.710
 1113TIP3   OH2 3344   5.941   1.699   4.791
 1113TIP3    H1 3345   5.909   1.663   4.874
 1113TIP3    H2 3346   5.888   1.778   4.777
 1114TIP3   OH2 3347   5.979   4.515   3.076
 1114TIP3    H1 3348   5.922   4.438   3.078
 1114TIP3    H2 3349   5.930   4.580   3.027
 1115TIP3   OH2 3350   6.233   5.204   1.880
 1115TIP3    H1 3351   6.322   5.185   1.852
 1115TIP3    H2 3352   6.218   5.143   1.953
 1116TIP3   OH2 3353   1.832   1.554   1.196
 1116TIP3    H1 3354   1.863   1.531   1.108
 1116TIP3    H2 3355   1.847   1.648   1.203
 1117TIP3   OH2 3356   2.046   4.042   4.783
 1117TIP3    H1 3357   2.022   4.004   4.867
 1117TIP3    H2 3358   2.064   3.967   4.726
 1118TIP3   OH2 3359   5.148   0.951   1.508
 1118TIP3    H1 3360   5.129   1.029   1.456
 1118TIP3    H2 3361   5.103   0.966   1.591
 1119TIP3   OH2 3362   1.787   2.116   3.983
 1119TIP3    H1 3363   1.709   2.085   4.028
 1119TIP3    H2 3364   1.775   2.211   3.976
 1120TIP3   OH2 3365   1.368   1.427   3.707
 1120TIP3    H1 3366   1.303   1.459   3.644
 1120TIP3    H2 3367   1.331   1.345   3.739
 1121TIP3   OH2 3368   4.595   5.595   0.727
 1121TIP3    H1 3369   4.609   5.516   0.673
 1121TIP3    H2 3370   4.637   5.665   0.678
 1122TIP3   OH2 3371   3.899   4.376   0.743
 1122TIP3    H1 3372   3.862   4.288   0.734
 1122TIP3    H2 3373   3.899   4.393   0.837
 1123TIP3   OH2 3374   2.882   1.087   3.545
 1123TIP3    H1 3375   2.847   1.128   3.624
 1123TIP3    H2 3376   2.943   1.021   3.577
 1124TIP3   OH2 3377   3.737   4.380   1.887
 1124TIP3    H1 3378   3.791   4.372   1.966
 1124TIP3    H2 3379   3.766   4.461   1.846
 1125TIP3   OH2 3380   3.833   0.685   3.148
 1125TIP3    H1 3381   3.833   0.745   3.223
 1125TIP3    H2 3382   3.741   0.669   3.130
 1126TIP3   OH2 3383   2.912   2.823   2.103
 1126TIP3    H1 3384   2.927   2.917   2.093
 1126TIP3    H2 3385   2.826   2.817   2.144
 1127TIP3   OH2 3386   4.805   3.205   2.619
 1127TIP3    H1 3387   4.842   3.238   2.701
 1127TIP3    H2 3388   4.756   3.280   2.584
 1128TIP3   OH2 3389   5.611   0.284   4.631
 1128TIP3    H1 3390   5.634   0.210   4.574
 1128TIP3    H2 3391   5.598   0.244   4.717
 1129TIP3   OH2 3392   2.378   5.407   2.083
 1129TIP3    H1 3393   2.403   5.363   2.164
 1129TIP3    H2 3394   2.391   5.341   2.015
 1130TIP3   OH2 3395   2.079   1.373   3.673
 1130TIP3    H1 3396   2.155   1.355   3.728
 1130TIP3    H2 3397   2.017   1.418   3.730
 1131TIP3   OH2 3398   3.901   2.444   0.778
 1131TIP3    H1 3399   3.877   2.533   0.755
 1131TIP3    H2 3400   3.948   2.453   0.862
 1132TIP3   OH2 3401   4.992   5.353   2.595
 1132TIP3    H1 3402   4.948   5.364   2.510
 1132TIP3    H2 3403   4.927   5.311   2.650
 1133TIP3   OH2 3404   1.967   0.084   1.330
 1133TIP3    H1 3405   2.063   0.088   1.339
 1133TIP3    H2 3406   1.949  -0.007   1.310
 1134TIP3   OH2 3407   2.566   3.383   0.465
 1134TIP3    H1 3408   2.652   3.360   0.430
 1134TIP3    H2 3409   2.574   3.474   0.491
 1135TIP3   OH2 3410   3.376   4.982   1.587
 1135TIP3    H1 3411   3.445   5.014   1.645
 1135TIP3    H2 3412   3.360   4.892   1.617
 1136TIP3   OH2 3413   4.158   5.892   3.464
 1136TIP3    H1 3414   4.218   5.948   3.514
 1136TIP3    H2 3415   4.211   5.858   3.392
 1137TIP3   OH2 3416   5.680   2.377   4.403
 1137TIP3    H1 3417   5.608   2.316   4.417
 1137TIP3    H2 3418   5.644   2.443   4.344
 1138TIP3   OH2 3419   2.485   4.801   2.593
 1138TIP3    H1 3420   2.540   4.868   2.634
 1138TIP3    H2 3421   2.545   4.754   2.533
 1139TIP3   OH2 3422   3.421   0.910   3.856
 1139TIP3    H1 3423   3.438   0.841   3.920
 1139TIP3    H2 3424   3.461   0.988   3.895
 1140TIP3   OH2 3425   0.759   4.533   1.840
 1140TIP3    H1 3426   0.737   4.613   1.793
 1140TIP3    H2 3427   0.738   4.463   1.778
 1141TIP3   OH2 3428   1.802   5.327   0.281
 1141TIP3    H1 3429   1.784   5.419   0.301
 1141TIP3    H2 3430   1.815   5.325   0.186
 1142TIP3   OH2 3431   2.905   4.822   2.661
 1142TIP3    H1 3432   2.839   4.781   2.718
 1142TIP3    H2 3433   2.906   4.914   2.688
 1143TIP3   OH2 3434   0.470   0.210   1.577
 1143TIP3    H1 3435   0.537   0.257   1.627
 1143TIP3    H2 3436   0.486   0.234   1.486
 1144TIP3   OH2 3437   0.722   0.826   0.887
 1144TIP3    H1 3438   0.668   0.821   0.808
 1144TIP3    H2 3439   0.801   0.776   0.865
 1145TIP3   OH2 3440   1.159   3.500   0.923
 1145TIP3    H1 3441   1.183   3.428   0.982
 1145TIP3    H2 3442   1.197   3.475   0.839
 1146TIP3   OH2 3443   1.860   4.757   2.122
 1146TIP3    H1 3444   1.836   4.687   2.184
 1146TIP3    H2 3445   1.944   4.728   2.086
 1147TIP3   OH2 3446   4.611   5.618   1.216
 1147TIP3    H1 3447   4.606   5.524   1.231
 1147TIP3    H2 3448   4.657   5.627   1.133
 1148TIP3   OH2 3449   2.179   2.899   3.985
 1148TIP3    H1 3450   2.173   2.807   3.959
 1148TIP3    H2 3451   2.089   2.928   3.994
 1149TIP3   OH2 3452   1.642   1.458   3.659
 1149TIP3    H1 3453   1.682   1.385   3.613
 1149TIP3    H2 3454   1.548   1.448   3.642
 1150TIP3   OH2 3455   1.061   4.890   3.926
 1150TIP3    H1 3456   1.038   4.980   3.904
 1150TIP3    H2 3457   0.977   4.847   3.946
 1151TIP3   OH2 3458   3.595   3.532   2.801
 1151TIP3    H1 3459   3.656   3.511   2.730
 1151TIP3    H2 3460   3.616   3.468   2.869
 1152TIP3   OH2 3461   2.179   5.904   4.642
 1152TIP3    H1 3462   2.145   5.871   4.559
 1152TIP3    H2 3463   2.102   5.932   4.690
 1153TIP3   OH2 3464   2.164   1.014   2.307
 1153TIP3    H1 3465   2.116   0.942   2.265
 1153TIP3    H2 3466   2.142   1.091   2.255
 1154TIP3   OH2 3467   0.304   2.242   3.576
 1154TIP3    H1 3468   0.270   2.264   3.663
 1154TIP3    H2 3469   0.316   2.147   3.579
 1155TIP3   OH2 3470   6.058   5.734   1.093
 1155TIP3    H1 3471   6.150   5.751   1.075
 1155TIP3    H2 3472   6.026   5.688   1.015
 1156TIP3   OH2 3473   4.891   3.391   4.628
 1156TIP3    H1 3474   4.868   3.477   4.592
 1156TIP3    H2 3475   4.985   3.384   4.614
 1157TIP3   OH2 3476   5.960   1.953   3.905
 1157TIP3    H1 3477   6.047   1.945   3.945
 1157TIP3    H2 3478   5.929   1.862   3.898
 1158TIP3   OH2 3479   5.230   3.397   4.525
 1158TIP3    H1 3480   5.222   3.324   4.586
 1158TIP3    H2 3481   5.325   3.410   4.516
 1159TIP3   OH2 3482   2.895   2.983   1.005
 1159TIP3    H1 3483   2.817   3.037   1.013
 1159TIP3    H2 3484   2.967   3.043   1.025
 1160TIP3   OH2 3485   4.594   2.757   3.033
 1160TIP3    H1 3486   4.544   2.726   3.108
 1160TIP3    H2 3487   4.529   2.763   2.962
 1161TIP3   OH2 3488   1.236   4.630   0.286
 1161TIP3    H1 3489   1.182   4.696   0.244
 1161TIP3    H2 3490   1.178   4.589   0.351
 1162TIP3   OH2 3491   2.070   5.440   1.555
 1162TIP3    H1 3492   2.103   5.400   1.635
 1162TIP3    H2 3493   1.975   5.435   1.563
 1163TIP3   OH2 3494   0.125   1.040   4.861
 1163TIP3    H1 3495   0.119   0.960   4.809
 1163TIP3    H2 3496   0.136   1.110   4.797
 1164TIP3   OH2 3497   2.359   1.155   2.440
 1164TIP3    H1 3498   2.351   1.248   2.416
 1164TIP3    H2 3499   2.295   1.110   2.386
 1165TIP3   OH2 3500   1.584   2.692   2.672
 1165TIP3    H1 3501   1.520   2.628   2.704
 1165TIP3    H2 3502   1.537   2.776   2.676
 1166TIP3   OH2 3503   5.980   2.488   2.349
 1166TIP3    H1 3504   5.943   2.411   2.393
 1166TIP3    H2 3505   6.046   2.521   2.410
 1167TIP3   OH2 3506   3.339   1.508   4.305
 1167TIP3    H1 3507   3.255   1.546   4.281
 1167TIP3    H2 3508   3.318   1.418   4.332
 1168TIP3   OH2 3509   0.155   2.023   0.049
 1168TIP3    H1 3510   0.214   1.949   0.036
 1168TIP3    H2 3511   0.162   2.043   0.143
 1169TIP3   OH2 3512   0.717   1.253   1.214
 1169TIP3    H1 3513   0.810   1.253   1.238
 1169TIP3    H2 3514   0.672   1.288   1.291
 1170TIP3   OH2 3515   5.523   4.036   0.871
 1170TIP3    H1 3516   5.559   4.098   0.808
 1170TIP3    H2 3517   5.507   3.957   0.820
 1171TIP3   OH2 3518   0.716   0.276   5.134
 1171TIP3    H1 3519   0.697   0.288   5.227
 1171TIP3    H2 3520   0.647   0.324   5.089
 1172TIP3   OH2 3521   4.593   1.333   1.591
 1172TIP3    H1 3522   4.682   1.307   1.565
 1172TIP3    H2 3523   4.591   1.428   1.575
 1173TIP3   OH2 3524   2.467   3.422   3.695
 1173TIP3    H1 3525   2.485   3.390   3.784
 1173TIP3    H2 3526   2.392   3.480   3.705
 1174TIP3   OH2 3527   1.182   3.608   1.313
 1174TIP3    H1 3528   1.109   3.611   1.251
 1174TIP3    H2 3529   1.236   3.536   1.282
 1175TIP3   OH2 3530   3.360   3.703   2.571
 1175TIP3    H1 3531   3.434   3.724   2.627
 1175TIP3    H2 3532   3.354   3.607   2.574
 1176TIP3   OH2 3533   5.957   5.223   3.477
 1176TIP3    H1 3534   5.906   5.304   3.479
 1176TIP3    H2 3535   5.936   5.184   3.392
 1177TIP3   OH2 3536   5.274   0.649   0.721
 1177TIP3    H1 3537   5.357   0.602   0.729
 1177TIP3    H2 3538   5.284   0.703   0.643
 1178TIP3   OH2 3539   0.131   3.383   2.960
 1178TIP3    H1 3540   0.111   3.467   2.919
 1178TIP3    H2 3541   0.220   3.393   2.994
 1179TIP3   OH2 3542   1.895   3.913   4.579
 1179TIP3    H1 3543   1.828   3.870   4.632
 1179TIP3    H2 3544   1.891   3.870   4.494
 1180TIP3   OH2 3545   4.419   4.812   3.399
 1180TIP3    H1 3546   4.496   4.860   3.432
 1180TIP3    H2 3547   4.400   4.853   3.315
 1181TIP3   OH2 3548   0.843   4.555   5.034
 1181TIP3    H1 3549   0.884   4.636   5.063
 1181TIP3    H2 3550   0.911   4.488   5.042
 1182TIP3   OH2 3551   1.671   5.889   2.339
 1182TIP3    H1 3552   1.765   5.907   2.338
 1182TIP3    H2 3553   1.663   5.800   2.302
 1183TIP3   OH2 3554   0.626   5.241   4.181
 1183TIP3    H1 3555   0.651   5.309   4.118
 1183TIP3    H2 3556   0.606   5.289   4.262
 1184TIP3   OH2 3557   3.557   2.386   2.550
 1184TIP3    H1 3558   3.642   2.406   2.511
 1184TIP3    H2 3559   3.506   2.345   2.479
 1185TIP3   OH2 3560   4.484   5.439   0.381
 1185TIP3    H1 3561   4.541   5.514   0.368
 1185TIP3    H2 3562   4.415   5.450   0.314
 1186TIP3   OH2 3563   1.585   4.452   3.826
 1186TIP3    H1 3564   1.552   4.443   3.915
 1186TIP3    H2 3565   1.589   4.362   3.793
 1187TIP3   OH2 3566   4.694   3.997   1.380
 1187TIP3    H1 3567   4.653   3.929   1.434
 1187TIP3    H2 3568   4.751   4.045   1.440
 1188TIP3   OH2 3569   5.917   3.779   3.131
 1188TIP3    H1 3570   5.904   3.717   3.060
 1188TIP3    H2 3571   5.886   3.733   3.209
 1189TIP3   OH2 3572   2.514   1.122   2.930
 1189TIP3    H1 3573   2.461   1.161   2.999
 1189TIP3    H2 3574   2.533   1.195   2.871
 1190TIP3   OH2 3575   2.136   3.219   0.488
 1190TIP3    H1 3576   2.155   3.260   0.572
 1190TIP3    H2 3577   2.133   3.126   0.507
 1191TIP3   OH2 3578   4.324   2.905   3.114
 1191TIP3    H1 3579   4.321   2.856   3.031
 1191TIP3    H2 3580   4.235   2.936   3.126
 1192TIP3   OH2 3581   2.517   1.995   1.462
 1192TIP3    H1 3582   2.501   1.902   1.480
 1192TIP3    H2 3583   2.573   2.023   1.535
 1193TIP3   OH2 3584   4.098   4.244   2.257
 1193TIP3    H1 3585   4.173   4.303   2.259
 1193TIP3    H2 3586   4.083   4.226   2.165
 1194TIP3   OH2 3587   2.907   1.919   2.175
 1194TIP3    H1 3588   2.902   2.013   2.187
 1194TIP3    H2 3589   2.967   1.907   2.101
 1195TIP3   OH2 3590   5.523   2.937   2.715
 1195TIP3    H1 3591   5.479   3.016   2.748
 1195TIP3    H2 3592   5.537   2.883   2.793
 1196TIP3   OH2 3593   0.911   4.731   2.141
 1196TIP3    H1 3594   0.921   4.803   2.079
 1196TIP3    H2 3595   0.820   4.702   2.129
 1197TIP3   OH2 3596   6.154   3.167   4.941
 1197TIP3    H1 3597   6.221   3.130   4.883
 1197TIP3    H2 3598   6.193   3.163   5.028
 1198TIP3   OH2 3599   1.545   0.512   3.876
 1198TIP3    H1 3600   1.521   0.568   3.802
 1198TIP3    H2 3601   1.639   0.498   3.866
 1199TIP3   OH2 3602   6.098   0.679   0.819
 1199TIP3    H1 3603   6.093   0.645   0.908
 1199TIP3    H2 3604   6.067   0.769   0.825
 1200TIP3   OH2 3605   5.136   0.248   3.141
 1200TIP3    H1 3606   5.041   0.257   3.142
 1200TIP3    H2 3607   5.166   0.317   3.081
 1201TIP3   OH2 3608   4.517   5.721   4.256
 1201TIP3    H1 3609   4.470   5.741   4.337
 1201TIP3    H2 3610   4.581   5.792   4.248
 1202TIP3   OH2 3611   6.235   0.183   1.476
 1202TIP3    H1 3612   6.315   0.205   1.524
 1202TIP3    H2 3613   6.195   0.268   1.457
 1203TIP3   OH2 3614   0.531   1.712   2.077
 1203TIP3    H1 3615   0.528   1.617   2.063
 1203TIP3    H2 3616   0.572   1.746   1.997
 1204TIP3   OH2 3617   3.910   1.273   4.823
 1204TIP3    H1 3618   3.959   1.222   4.759
 1204TIP3    H2 3619   3.907   1.218   4.901
 1205TIP3   OH2 3620   0.627   0.045   4.268
 1205TIP3    H1 3621   0.574   0.025   4.345
 1205TIP3    H2 3622   0.571   0.020   4.194
 1206TIP3   OH2 3623   6.200   2.530   1.662
 1206TIP3    H1 3624   6.194   2.452   1.717
 1206TIP3    H2 3625   6.111   2.541   1.628
 1207TIP3   OH2 3626   2.402   4.789   3.294
 1207TIP3    H1 3627   2.451   4.812   3.215
 1207TIP3    H2 3628   2.332   4.854   3.298
 1208TIP3   OH2 3629   5.525   2.363   3.085
 1208TIP3    H1 3630   5.554   2.372   2.994
 1208TIP3    H2 3631   5.589   2.305   3.125
 1209TIP3   OH2 3632   5.531   5.486   0.365
 1209TIP3    H1 3633   5.528   5.442   0.280
 1209TIP3    H2 3634   5.440   5.483   0.397
 1210TIP3   OH2 3635   2.280   0.010   3.245
 1210TIP3    H1 3636   2.373  -0.006   3.264
 1210TIP3    H2 3637   2.274   0.105   3.237
 1211TIP3   OH2 3638   3.861   4.872   2.122
 1211TIP3    H1 3639   3.883   4.939   2.057
 1211TIP3    H2 3640   3.792   4.819   2.080
 1212TIP3   OH2 3641   3.990   1.050   4.643
 1212TIP3    H1 3642   3.927   0.980   4.629
 1212TIP3    H2 3643   3.994   1.096   4.560
 1213TIP3   OH2 3644   5.279   3.136   3.932
 1213TIP3    H1 3645   5.340   3.140   3.858
 1213TIP3    H2 3646   5.321   3.079   3.995
 1214TIP3   OH2 3647   2.707   3.464   3.947
 1214TIP3    H1 3648   2.781   3.448   4.005
 1214TIP3    H2 3649   2.736   3.428   3.862
 1215TIP3   OH2 3650   2.292   1.951   4.777
 1215TIP3    H1 3651   2.235   1.874   4.777
 1215TIP3    H2 3652   2.270   1.997   4.696
 1216TIP3   OH2 3653   5.456   0.583   1.275
 1216TIP3    H1 3654   5.531   0.603   1.331
 1216TIP3    H2 3655   5.386   0.639   1.310
 1217TIP3   OH2 3656   4.589   2.295   2.834
 1217TIP3    H1 3657   4.650   2.221   2.825
 1217TIP3    H2 3658   4.611   2.332   2.920
 1218TIP3   OH2 3659   5.088   4.190   3.204
 1218TIP3    H1 3660   5.123   4.230   3.124
 1218TIP3    H2 3661   5.063   4.102   3.176
 1219TIP3   OH2 3662   4.101   3.591   0.798
 1219TIP3    H1 3663   4.170   3.622   0.857
 1219TIP3    H2 3664   4.129   3.503   0.773
 1220TIP3   OH2 3665   5.214   0.695   4.817
 1220TIP3    H1 3666   5.306   0.701   4.845
 1220TIP3    H2 3667   5.200   0.774   4.765
 1221TIP3   OH2 3668   4.086   0.773   2.661
 1221TIP3    H1 3669   4.075   0.785   2.567
 1221TIP3    H2 3670   4.059   0.683   2.677
 1222TIP3   OH2 3671   3.342   1.397   0.507
 1222TIP3    H1 3672   3.395   1.413   0.429
 1222TIP3    H2 3673   3.264   1.352   0.474
 1223TIP3   OH2 3674   2.637   1.940   4.622
 1223TIP3    H1 3675   2.666   1.900   4.704
 1223TIP3    H2 3676   2.591   1.870   4.576
 1224TIP3   OH2 3677   5.618   2.005   5.141
 1224TIP3    H1 3678   5.617   2.044   5.228
 1224TIP3    H2 3679   5.665   2.067   5.086
 1225TIP3   OH2 3680   5.855   0.437   3.419
 1225TIP3    H1 3681   5.840   0.342   3.413
 1225TIP3    H2 3682   5.876   0.452   3.511
 1226TIP3   OH2 3683   4.255   4.282   3.779
 1226TIP3    H1 3684   4.244   4.243   3.692
 1226TIP3    H2 3685   4.176   4.256   3.826
 1227TIP3   OH2 3686   4.673   5.054   1.651
 1227TIP3    H1 3687   4.620   5.085   1.578
 1227TIP3    H2 3688   4.614   4.998   1.701
 1228TIP3   OH2 3689   2.843   1.640   4.170
 1228TIP3    H1 3690   2.803   1.705   4.113
 1228TIP3    H2 3691   2.788   1.641   4.249
 1229TIP3   OH2 3692   5.461   5.811   4.435
 1229TIP3    H1 3693   5.524   5.748   4.469
 1229TIP3    H2 3694   5.414   5.843   4.512
 1230TIP3   OH2 3695   4.994   4.466   0.482
 1230TIP3    H1 3696   5.025   4.439   0.569
 1230TIP3    H2 3697   4.979   4.384   0.435
 1231TIP3   OH2 3698   4.300   3.123   0.162
 1231TIP3    H1 3699   4.332   3.048   0.212
 1231TIP3    H2 3700   4.210   3.100   0.138
 1232TIP3   OH2 3701   6.110   2.919   1.079
 1232TIP3    H1 3702   6.090   2.930   0.986
 1232TIP3    H2 3703   6.078   2.831   1.100
 1233TIP3   OH2 3704   5.909   4.353   3.765
 1233TIP3    H1 3705   5.985   4.366   3.822
 1233TIP3    H2 3706   5.852   4.427   3.784
 1234TIP3   OH2 3707   4.856   0.908   2.628
 1234TIP3    H1 3708   4.769   0.877   2.603
 1234TIP3    H2 3709   4.901   0.829   2.661
 1235TIP3   OH2 3710   0.461   4.526   3.633
 1235TIP3    H1 3711   0.376   4.551   3.598
 1235TIP3    H2 3712   0.485   4.447   3.585
 1236TIP3   OH2 3713   4.466   4.163   0.760
 1236TIP3    H1 3714   4.532   4.224   0.726
 1236TIP3    H2 3715   4.432   4.119   0.682
 1237TIP3   OH2 3716   1.356   1.703   0.515
 1237TIP3    H1 3717   1.351   1.609   0.533
 1237TIP3    H2 3718   1.332   1.711   0.422
 1238TIP3   OH2 3719   5.991   3.687   3.461
 1238TIP3    H1 3720   5.922   3.633   3.422
 1238TIP3    H2 3721   5.950   3.727   3.537
 1239TIP3   OH2 3722   3.553   1.547   3.196
 1239TIP3    H1 3723   3.539   1.631   3.153
 1239TIP3    H2 3724   3.557   1.483   3.124
 1240TIP3   OH2 3725   3.233   1.352   2.547
 1240TIP3    H1 3726   3.144   1.387   2.544
 1240TIP3    H2 3727   3.226   1.266   2.505
 1241TIP3   OH2 3728   3.591   0.778   2.804
 1241TIP3    H1 3729   3.627   0.849   2.857
 1241TIP3    H2 3730   3.511   0.753   2.851
 1242TIP3   OH2 3731   0.758   4.453   3.358
 1242TIP3    H1 3732   0.709   4.530   3.328
 1242TIP3    H2 3733   0.809   4.426   3.281
 1243TIP3   OH2 3734   1.558   3.718   1.804
 1243TIP3    H1 3735   1.519   3.665   1.873
 1243TIP3    H2 3736   1.498   3.791   1.792
 1244TIP3   OH2 3737   5.372   5.037   1.277
 1244TIP3    H1 3738   5.379   5.017   1.370
 1244TIP3    H2 3739   5.463   5.037   1.246
 1245TIP3   OH2 3740   5.792   3.939   1.271
 1245TIP3    H1 3741   5.709   3.969   1.232
 1245TIP3    H2 3742   5.768   3.860   1.320
 1246TIP3   OH2 3743   4.926   6.019   3.573
 1246TIP3    H1 3744   4.951   5.927   3.576
 1246TIP3    H2 3745   4.993   6.063   3.626
 1247TIP3   OH2 3746   6.272   1.319   4.517
 1247TIP3    H1 3747   6.213   1.311   4.592
 1247TIP3    H2 3748   6.338   1.250   4.532
 1248TIP3   OH2 3749   0.891   2.220   2.382
 1248TIP3    H1 3750   0.940   2.254   2.307
 1248TIP3    H2 3751   0.920   2.273   2.456
 1249TIP3   OH2 3752   4.573   0.834   4.192
 1249TIP3    H1 3753   4.567   0.821   4.097
 1249TIP3    H2 3754   4.501   0.782   4.227
 1250TIP3   OH2 3755   5.676   3.069   3.778
 1250TIP3    H1 3756   5.724   3.094   3.857
 1250TIP3    H2 3757   5.623   2.994   3.805
 1251TIP3   OH2 3758   4.145   5.934   0.241
 1251TIP3    H1 3759   4.207   6.005   0.227
 1251TIP3    H2 3760   4.138   5.926   0.336
 1252TIP3   OH2 3761   1.885   0.726   1.026
 1252TIP3    H1 3762   1.927   0.787   1.086
 1252TIP3    H2 3763   1.898   0.764   0.939
 1253TIP3   OH2 3764   5.552   4.998   1.532
 1253TIP3    H1 3765   5.539   4.906   1.508
 1253TIP3    H2 3766   5.646   5.010   1.530
 1254TIP3   OH2 3767   5.021   1.445   3.981
 1254TIP3    H1 3768   5.016   1.353   4.006
 1254TIP3    H2 3769   5.057   1.444   3.893
 1255TIP3   OH2 3770   0.244   0.097   3.764
 1255TIP3    H1 3771   0.278   0.081   3.676
 1255TIP3    H2 3772   0.319   0.134   3.811
 1256TIP3   OH2 3773   5.914   1.629   3.836
 1256TIP3    H1 3774   5.845   1.643   3.771
 1256TIP3    H2 3775   5.933   1.535   3.830
 1257TIP3   OH2 3776   1.315   5.629   4.691
 1257TIP3    H1 3777   1.314   5.717   4.728
 1257TIP3    H2 3778   1.336   5.572   4.765
 1258TIP3   OH2 3779   3.757   3.850   3.845
 1258TIP3    H1 3780   3.672   3.821   3.813
 1258TIP3    H2 3781   3.799   3.771   3.879
 1259TIP3   OH2 3782   3.261   3.247   1.405
 1259TIP3    H1 3783   3.296   3.210   1.324
 1259TIP3    H2 3784   3.179   3.199   1.419
 1260TIP3   OH2 3785   6.141   2.750   4.954
 1260TIP3    H1 3786   6.110   2.798   4.877
 1260TIP3    H2 3787   6.062   2.737   5.006
 1261TIP3   OH2 3788   1.237   2.997   2.929
 1261TIP3    H1 3789   1.282   3.069   2.887
 1261TIP3    H2 3790   1.190   3.037   3.002
 1262TIP3   OH2 3791   5.876   3.026   1.588
 1262TIP3    H1 3792   5.936   2.974   1.535
 1262TIP3    H2 3793   5.920   3.037   1.672
 1263TIP3   OH2 3794   2.771   3.340   3.708
 1263TIP3    H1 3795   2.844   3.388   3.746
 1263TIP3    H2 3796   2.782   3.350   3.613
 1264TIP3   OH2 3797   1.516   0.634   0.470
 1264TIP3    H1 3798   1.540   0.560   0.526
 1264TIP3    H2 3799   1.424   0.620   0.448
 1265TIP3   OH2 3800   2.065   4.519   3.253
 1265TIP3    H1 3801   2.064   4.423   3.256
 1265TIP3    H2 3802   2.061   4.540   3.160
 1266TIP3   OH2 3803   1.553   5.802   0.432
 1266TIP3    H1 3804   1.615   5.875   0.437
 1266TIP3    H2 3805   1.470   5.843   0.407
 1267TIP3   OH2 3806   5.723   4.875   3.841
 1267TIP3    H1 3807   5.727   4.909   3.930
 1267TIP3    H2 3808   5.769   4.940   3.788
 1268TIP3   OH2 3809   5.006   1.469   3.298
 1268TIP3    H1 3810   4.993   1.530   3.225
 1268TIP3    H2 3811   4.918   1.456   3.334
 1269TIP3   OH2 3812   1.662   2.981   5.010
 1269TIP3    H1 3813   1.640   3.074   4.997
 1269TIP3    H2 3814   1.678   2.973   5.104
 1270TIP3   OH2 3815   1.969   5.891   0.963
 1270TIP3    H1 3816   2.026   5.968   0.971
 1270TIP3    H2 3817   1.883   5.928   0.944
 1271TIP3   OH2 3818   3.199   1.197   1.972
 1271TIP3    H1 3819   3.105   1.186   1.985
 1271TIP3    H2 3820   3.214   1.171   1.881
 1272TIP3   OH2 3821   3.918   3.662   3.443
 1272TIP3    H1 3822   3.940   3.604   3.516
 1272TIP3    H2 3823   3.868   3.607   3.383
 1273TIP3   OH2 3824   0.257   4.605   1.474
 1273TIP3    H1 3825   0.202   4.555   1.535
 1273TIP3    H2 3826   0.203   4.680   1.450
 1274TIP3   OH2 3827   2.527   2.600   1.585
 1274TIP3    H1 3828   2.472   2.642   1.651
 1274TIP3    H2 3829   2.472   2.598   1.506
 1275TIP3   OH2 3830   1.634   2.778   2.047
 1275TIP3    H1 3831   1.727   2.756   2.043
 1275TIP3    H2 3832   1.616   2.823   1.964
 1276TIP3   OH2 3833   4.484   1.861   0.489
 1276TIP3    H1 3834   4.514   1.826   0.405
 1276TIP3    H2 3835   4.534   1.941   0.501
 1277TIP3   OH2 3836   2.559   0.992   0.560
 1277TIP3    H1 3837   2.578   1.041   0.640
 1277TIP3    H2 3838   2.539   1.060   0.495
 1278TIP3   OH2 3839   1.040   1.941   0.213
 1278TIP3    H1 3840   0.991   1.921   0.134
 1278TIP3    H2 3841   1.064   2.033   0.204
 1279TIP3   OH2 3842   4.050   0.835   1.360
 1279TIP3    H1 3843   4.025   0.923   1.333
 1279TIP3    H2 3844   4.024   0.779   1.287
 1280TIP3   OH2 3845   1.675   1.361   0.762
 1280TIP3    H1 3846   1.677   1.360   0.858
 1280TIP3    H2 3847   1.760   1.324   0.736
 1281TIP3   OH2 3848   2.120   5.281   1.334
 1281TIP3    H1 3849   2.104   5.357   1.389
 1281TIP3    H2 3850   2.109   5.313   1.245
 1282TIP3   OH2 3851   2.402   0.515   3.842
 1282TIP3    H1 3852   2.333   0.449   3.842
 1282TIP3    H2 3853   2.469   0.479   3.901
 1283TIP3   OH2 3854   5.155   5.505   3.762
 1283TIP3    H1 3855   5.220   5.512   3.692
 1283TIP3    H2 3856   5.196   5.448   3.827
 1284TIP3   OH2 3857   4.248   0.976   4.274
 1284TIP3    H1 3858   4.253   1.043   4.206
 1284TIP3    H2 3859   4.323   0.994   4.331
 1285TIP3   OH2 3860   1.435   0.637   4.799
 1285TIP3    H1 3861   1.426   0.686   4.717
 1285TIP3    H2 3862   1.395   0.693   4.865
 1286TIP3   OH2 3863   0.801   4.008   3.387
 1286TIP3    H1 3864   0.790   3.995   3.481
 1286TIP3    H2 3865   0.746   4.084   3.367
 1287TIP3   OH2 3866   3.665   2.464   4.411
 1287TIP3    H1 3867   3.617   2.395   4.365
 1287TIP3    H2 3868   3.604   2.496   4.477
 1288TIP3   OH2 3869   4.072   2.384   2.043
 1288TIP3    H1 3870   4.036   2.420   2.124
 1288TIP3    H2 3871   4.155   2.343   2.070
 1289TIP3   OH2 3872   0.727   0.171   1.713
 1289TIP3    H1 3873   0.814   0.146   1.745
 1289TIP3    H2 3874   0.697   0.237   1.776
 1290TIP3   OH2 3875   3.015   3.930   4.894
 1290TIP3    H1 3876   3.061   3.900   4.815
 1290TIP3    H2 3877   3.021   3.856   4.955
 1291TIP3   OH2 3878   4.468   1.170   1.790
 1291TIP3    H1 3879   4.391   1.167   1.733
 1291TIP3    H2 3880   4.530   1.226   1.742
 1292TIP3   OH2 3881   5.259   0.961   4.548
 1292TIP3    H1 3882   5.180   1.006   4.578
 1292TIP3    H2 3883   5.236   0.927   4.462
 1293TIP3   OH2 3884   5.919   1.544   3.296
 1293TIP3    H1 3885   5.870   1.520   3.375
 1293TIP3    H2 3886   6.006   1.505   3.309
 1294TIP3   OH2 3887   5.103   5.628   4.030
 1294TIP3    H1 3888   5.188   5.616   4.074
 1294TIP3    H2 3889   5.118   5.599   3.940
 1295TIP3   OH2 3890   0.885   3.184   0.929
 1295TIP3    H1 3891   0.914   3.175   0.838
 1295TIP3    H2 3892   0.794   3.215   0.921
 1296TIP3   OH2 3893   5.951   1.688   1.567
 1296TIP3    H1 3894   5.996   1.606   1.548
 1296TIP3    H2 3895   5.917   1.718   1.482
 1297TIP3   OH2 3896   0.001   0.160   4.131
 1297TIP3    H1 3897   0.079   0.214   4.119
 1297TIP3    H2 3898  -0.016   0.124   4.044
 1298TIP3   OH2 3899   0.275   4.011   4.935
 1298TIP3    H1 3900   0.295   3.917   4.940
 1298TIP3    H2 3901   0.195   4.021   4.987
 1299TIP3   OH2 3902   1.284   0.766   0.180
 1299TIP3    H1 3903   1.256   0.713   0.106
 1299TIP3    H2 3904   1.279   0.706   0.255
 1300TIP3   OH2 3905   3.782   1.426   4.154
 1300TIP3    H1 3906   3.789   1.517   4.124
 1300TIP3    H2 3907   3.759   1.433   4.246
 1301TIP3   OH2 3908   0.460   2.084   1.509
 1301TIP3    H1 3909   0.479   2.061   1.418
 1301TIP3    H2 3910   0.403   2.013   1.540
 1302TIP3   OH2 3911   2.600   2.190   4.345
 1302TIP3    H1 3912   2.634   2.108   4.311
 1302TIP3    H2 3913   2.673   2.251   4.338
 1303TIP3   OH2 3914   2.555   4.206   4.747
 1303TIP3    H1 3915   2.480   4.237   4.696
 1303TIP3    H2 3916   2.618   4.175   4.682
 1304TIP3   OH2 3917   2.775   5.031   4.120
 1304TIP3    H1 3918   2.819   4.980   4.188
 1304TIP3    H2 3919   2.755   5.115   4.162
 1305TIP3   OH2 3920   1.090   1.748   2.079
 1305TIP3    H1 3921   1.182   1.757   2.053
 1305TIP3    H2 3922   1.090   1.677   2.143
 1306TIP3   OH2 3923   4.915   0.699   1.139
 1306TIP3    H1 3924   4.843   0.638   1.125
 1306TIP3    H2 3925   4.903   0.766   1.072
 1307TIP3   OH2 3926   2.787   0.376   3.858
 1307TIP3    H1 3927   2.775   0.402   3.766
 1307TIP3    H2 3928   2.698   0.379   3.895
 1308TIP3   OH2 3929   0.058   0.969   0.725
 1308TIP3    H1 3930   0.119   1.042   0.734
 1308TIP3    H2 3931   0.095   0.899   0.778
 1309TIP3   OH2 3932   1.575   1.706   4.498
 1309TIP3    H1 3933   1.603   1.758   4.574
 1309TIP3    H2 3934   1.492   1.667   4.525
 1310TIP3   OH2 3935   3.114   5.541   2.608
 1310TIP3    H1 3936   3.065   5.612   2.649
 1310TIP3    H2 3937   3.177   5.514   2.675
 1311TIP3   OH2 3938   0.798   4.193   2.675
 1311TIP3    H1 3939   0.860   4.257   2.640
 1311TIP3    H2 3940   0.714   4.217   2.636
 1312TIP3   OH2 3941   3.029   2.015   0.959
 1312TIP3    H1 3942   2.974   2.071   0.904
 1312TIP3    H2 3943   2.968   1.949   0.993
 1313TIP3   OH2 3944   0.803   4.808   3.947
 1313TIP3    H1 3945   0.793   4.775   3.858
 1313TIP3    H2 3946   0.733   4.872   3.957
 1314TIP3   OH2 3947   1.615   0.031   0.258
 1314TIP3    H1 3948   1.570   0.008   0.339
 1314TIP3    H2 3949   1.614  -0.049   0.206
 1315TIP3   OH2 3950   0.131   0.152   3.193
 1315TIP3    H1 3951   0.226   0.165   3.194
 1315TIP3    H2 3952   0.117   0.077   3.252
 1316TIP3   OH2 3953   0.208   2.204   1.481
 1316TIP3    H1 3954   0.242   2.293   1.476
 1316TIP3    H2 3955   0.269   2.152   1.429
 1317TIP3   OH2 3956   1.342   4.025   0.607
 1317TIP3    H1 3957   1.427   4.068   0.593
 1317TIP3    H2 3958   1.332   4.023   0.702
 1318TIP3   OH2 3959   6.127   0.452   2.934
 1318TIP3    H1 3960   6.151   0.430   3.024
 1318TIP3    H2 3961   6.126   0.548   2.932
 1319TIP3   OH2 3962   4.052   1.355   0.636
 1319TIP3    H1 3963   3.985   1.423   0.640
 1319TIP3    H2 3964   4.044   1.308   0.719
 1320TIP3   OH2 3965   2.866   1.935   0.418
 1320TIP3    H1 3966   2.917   1.953   0.338
 1320TIP3    H2 3967   2.816   2.015   0.434
 1321TIP3   OH2 3968   2.462   5.365   0.420
 1321TIP3    H1 3969   2.556   5.384   0.423
 1321TIP3    H2 3970   2.423   5.442   0.379
 1322TIP3   OH2 3971   5.203   3.724   1.746
 1322TIP3    H1 3972   5.277   3.696   1.800
 1322TIP3    H2 3973   5.125   3.693   1.793
 1323TIP3   OH2 3974   5.300   1.686   4.558
 1323TIP3    H1 3975   5.286   1.601   4.516
 1323TIP3    H2 3976   5.305   1.665   4.651
 1324TIP3   OH2 3977   4.403   0.821   0.757
 1324TIP3    H1 3978   4.350   0.828   0.677
 1324TIP3    H2 3979   4.369   0.889   0.814
 1325TIP3   OH2 3980   3.060   0.319   0.973
 1325TIP3    H1 3981   3.109   0.297   0.894
 1325TIP3    H2 3982   3.019   0.237   0.999
 1326TIP3   OH2 3983   0.680   1.765   3.687
 1326TIP3    H1 3984   0.674   1.707   3.763
 1326TIP3    H2 3985   0.707   1.850   3.724
 1327TIP3   OH2 3986   3.460   2.385   0.821
 1327TIP3    H1 3987   3.502   2.350   0.742
 1327TIP3    H2 3988   3.502   2.339   0.893
 1328TIP3   OH2 3989   4.713   4.604   4.557
 1328TIP3    H1 3990   4.796   4.561   4.578
 1328TIP3    H2 3991   4.738   4.693   4.529
 1329TIP3   OH2 3992   4.478   3.301   2.534
 1329TIP3    H1 3993   4.403   3.277   2.589
 1329TIP3    H2 3994   4.527   3.364   2.587
 1330TIP3   OH2 3995   3.799   0.321   4.473
 1330TIP3    H1 3996   3.834   0.237   4.445
 1330TIP3    H2 3997   3.877   0.374   4.494
 1331TIP3   OH2 3998   1.185   1.585   3.905
 1331TIP3    H1 3999   1.113   1.553   3.851
 1331TIP3    H2 4000   1.186   1.528   3.981
 1332TIP3   OH2 4001   3.572   5.942   5.128
 1332TIP3    H1 4002   3.624   5.889   5.067
 1332TIP3    H2 4003   3.569   5.890   5.208
 1333TIP3   OH2 4004   2.723   2.901   0.236
 1333TIP3    H1 4005   2.719   2.811   0.270
 1333TIP3    H2 4006   2.683   2.954   0.305
 1334TIP3   OH2 4007   5.860   4.492   0.043
 1334TIP3    H1 4008   5.764   4.492   0.043
 1334TIP3    H2 4009   5.883   4.578   0.079
 1335TIP3   OH2 4010   6.331   4.417   3.672
 1335TIP3    H1 4011   6.340   4.335   3.623
 1335TIP3    H2 4012   6.243   4.448   3.650
 1336TIP3   OH2 4013   5.199   4.079   4.397
 1336TIP3    H1 4014   5.154   4.012   4.347
 1336TIP3    H2 4015   5.205   4.154   4.337
 1337TIP3   OH2 4016   3.939   0.956   1.657
 1337TIP3    H1 4017   3.906   0.897   1.725
 1337TIP3    H2 4018   4.017   0.912   1.623
 1338TIP3   OH2 4019   6.048   2.602   2.942
 1338TIP3    H1 4020   6.109   2.645   2.881
 1338TIP3    H2 4021   6.103   2.571   3.013
 1339TIP3   OH2 4022   1.236   1.517   4.665
 1339TIP3    H1 4023   1.306   1.525   4.730
 1339TIP3    H2 4024   1.279   1.476   4.590
 1340TIP3   OH2 4025   2.746   4.450   3.309
 1340TIP3    H1 4026   2.813   4.405   3.360
 1340TIP3    H2 4027   2.673   4.461   3.370
 1341TIP3   OH2 4028   1.833   0.515   3.887
 1341TIP3    H1 4029   1.894   0.589   3.887
 1341TIP3    H2 4030   1.830   0.487   3.978
 1342TIP3   OH2 4031   1.129   3.829   1.525
 1342TIP3    H1 4032   1.189   3.766   1.566
 1342TIP3    H2 4033   1.174   3.858   1.447
 1343TIP3   OH2 4034   3.556   1.274   1.153
 1343TIP3    H1 4035   3.503   1.353   1.160
 1343TIP3    H2 4036   3.493   1.205   1.132
 1344TIP3   OH2 4037   1.942   2.257   0.859
 1344TIP3    H1 4038   1.978   2.309   0.787
 1344TIP3    H2 4039   1.852   2.240   0.834
 1345TIP3   OH2 4040   6.170   1.095   2.993
 1345TIP3    H1 4041   6.248   1.150   2.981
 1345TIP3    H2 4042   6.191   1.014   2.945
 1346TIP3   OH2 4043   5.284   5.825   0.215
 1346TIP3    H1 4044   5.329   5.777   0.284
 1346TIP3    H2 4045   5.346   5.893   0.188
 1347TIP3   OH2 4046   1.968   1.551   3.385
 1347TIP3    H1 4047   1.991   1.624   3.442
 1347TIP3    H2 4048   2.050   1.501   3.377
 1348TIP3   OH2 4049   1.730   3.916   0.823
 1348TIP3    H1 4050   1.812   3.946   0.785
 1348TIP3    H2 4051   1.684   3.996   0.846
 1349TIP3   OH2 4052   2.827   0.804   2.649
 1349TIP3    H1 4053   2.890   0.838   2.585
 1349TIP3    H2 4054   2.753   0.774   2.597
 1350TIP3   OH2 4055   2.314   4.616   2.860
 1350TIP3    H1 4056   2.242   4.559   2.887
 1350TIP3    H2 4057   2.389   4.584   2.910
 1351TIP3   OH2 4058   1.703   2.090   2.088
 1351TIP3    H1 4059   1.728   2.106   2.179
 1351TIP3    H2 4060   1.770   2.135   2.037
 1352TIP3   OH2 4061   5.073   4.161   0.383
 1352TIP3    H1 4062   5.151   4.131   0.336
 1352TIP3    H2 4063   5.101   4.164   0.475
 1353TIP3   OH2 4064   3.052   0.258   4.417
 1353TIP3    H1 4065   3.043   0.306   4.499
 1353TIP3    H2 4066   3.121   0.305   4.370
 1354TIP3   OH2 4067   2.042   1.437   0.591
 1354TIP3    H1 4068   2.008   1.380   0.660
 1354TIP3    H2 4069   2.123   1.393   0.562
 1355TIP3   OH2 4070   5.988   5.432   2.974
 1355TIP3    H1 4071   5.936   5.409   3.051
 1355TIP3    H2 4072   5.988   5.352   2.921
 1356TIP3   OH2 4073   0.177   3.227   2.716
 1356TIP3    H1 4074   0.085   3.209   2.738
 1356TIP3    H2 4075   0.205   3.290   2.783
 1357TIP3   OH2 4076   3.684   2.580   0.126
 1357TIP3    H1 4077   3.744   2.592   0.053
 1357TIP3    H2 4078   3.720   2.633   0.196
 1358TIP3   OH2 4079   5.914   3.781   3.721
 1358TIP3    H1 4080   5.863   3.804   3.798
 1358TIP3    H2 4081   5.988   3.841   3.723
 1359TIP3   OH2 4082   1.148   1.273   3.408
 1359TIP3    H1 4083   1.194   1.284   3.325
 1359TIP3    H2 4084   1.154   1.359   3.450
 1360TIP3   OH2 4085   5.576   2.757   0.567
 1360TIP3    H1 4086   5.508   2.716   0.513
 1360TIP3    H2 4087   5.539   2.841   0.593
 1361TIP3   OH2 4088   5.089   4.742   1.212
 1361TIP3    H1 4089   5.088   4.833   1.241
 1361TIP3    H2 4090   5.049   4.693   1.284
 1362TIP3   OH2 4091   3.023   1.261   4.630
 1362TIP3    H1 4092   2.947   1.250   4.687
 1362TIP3    H2 4093   3.096   1.224   4.680
 1363TIP3   OH2 4094   0.147   1.636   0.638
 1363TIP3    H1 4095   0.168   1.687   0.560
 1363TIP3    H2 4096   0.075   1.579   0.610
 1364TIP3   OH2 4097   3.172   2.671   5.095
 1364TIP3    H1 4098   3.108   2.730   5.135
 1364TIP3    H2 4099   3.152   2.585   5.132
 1365TIP3   OH2 4100   6.036   0.953   0.542
 1365TIP3    H1 4101   6.030   1.032   0.488
 1365TIP3    H2 4102   6.120   0.914   0.519
 1366TIP3   OH2 4103   3.434   2.938   0.632
 1366TIP3    H1 4104   3.514   2.959   0.679
 1366TIP3    H2 4105   3.458   2.865   0.575
 1367TIP3   OH2 4106   4.128   1.480   1.091
 1367TIP3    H1 4107   4.105   1.549   1.028
 1367TIP3    H2 4108   4.152   1.528   1.170
 1368TIP3   OH2 4109   5.655   3.689   4.770
 1368TIP3    H1 4110   5.685   3.745   4.842
 1368TIP3    H2 4111   5.560   3.685   4.781
 1369TIP3   OH2 4112   1.451   3.556   3.485
 1369TIP3    H1 4113   1.526   3.503   3.512
 1369TIP3    H2 4114   1.377   3.495   3.490
 1370TIP3   OH2 4115   0.106   4.263   2.124
 1370TIP3    H1 4116   0.061   4.284   2.043
 1370TIP3    H2 4117   0.042   4.212   2.174
 1371TIP3   OH2 4118   6.087   5.412   3.666
 1371TIP3    H1 4119   6.061   5.331   3.622
 1371TIP3    H2 4120   6.123   5.467   3.596
 1372TIP3   OH2 4121   0.122   5.598   0.777
 1372TIP3    H1 4122   0.081   5.512   0.779
 1372TIP3    H2 4123   0.207   5.583   0.736
 1373TIP3   OH2 4124   0.479   4.360   2.633
 1373TIP3    H1 4125   0.482   4.360   2.728
 1373TIP3    H2 4126   0.451   4.448   2.609
 1374TIP3   OH2 4127   3.739   3.282   4.966
 1374TIP3    H1 4128   3.695   3.221   4.908
 1374TIP3    H2 4129   3.815   3.234   4.998
 1375TIP3   OH2 4130   0.440   5.389   3.170
 1375TIP3    H1 4131   0.523   5.347   3.149
 1375TIP3    H2 4132   0.410   5.344   3.249
 1376TIP3   OH2 4133   4.749   5.846   1.266
 1376TIP3    H1 4134   4.680   5.912   1.268
 1376TIP3    H2 4135   4.704   5.764   1.247
 1377TIP3   OH2 4136   5.010   3.925   2.835
 1377TIP3    H1 4137   5.080   3.860   2.827
 1377TIP3    H2 4138   5.050   4.007   2.806
 1378TIP3   OH2 4139   4.257   2.772   4.323
 1378TIP3    H1 4140   4.172   2.729   4.308
 1378TIP3    H2 4141   4.279   2.811   4.239
 1379TIP3   OH2 4142   5.539   2.692   2.266
 1379TIP3    H1 4143   5.456   2.738   2.254
 1379TIP3    H2 4144   5.541   2.670   2.359
 1380TIP3   OH2 4145   0.837   2.379   4.849
 1380TIP3    H1 4146   0.757   2.345   4.807
 1380TIP3    H2 4147   0.878   2.434   4.782
 1381TIP3   OH2 4148   0.922   5.045   1.083
 1381TIP3    H1 4149   0.979   4.979   1.122
 1381TIP3    H2 4150   0.894   5.006   1.000
 1382TIP3   OH2 4151   2.385   4.104   3.556
 1382TIP3    H1 4152   2.407   4.015   3.585
 1382TIP3    H2 4153   2.455   4.159   3.591
 1383TIP3   OH2 4154   1.076   3.910   0.361
 1383TIP3    H1 4155   1.016   3.880   0.430
 1383TIP3    H2 4156   1.144   3.842   0.357
 1384TIP3   OH2 4157   0.808   5.690   2.253
 1384TIP3    H1 4158   0.825   5.780   2.282
 1384TIP3    H2 4159   0.722   5.695   2.210
 1385TIP3   OH2 4160   4.854   4.038   0.676
 1385TIP3    H1 4161   4.824   4.024   0.765
 1385TIP3    H2 4162   4.817   4.123   0.651
 1386TIP3   OH2 4163   1.187   5.174   2.357
 1386TIP3    H1 4164   1.224   5.257   2.389
 1386TIP3    H2 4165   1.173   5.189   2.263
 1387TIP3   OH2 4166   1.863   2.885   0.457
 1387TIP3    H1 4167   1.810   2.917   0.384
 1387TIP3    H2 4168   1.875   2.961   0.514
 1388TIP3   OH2 4169   4.610   5.220   3.809
 1388TIP3    H1 4170   4.636   5.229   3.900
 1388TIP3    H2 4171   4.624   5.127   3.789
 1389TIP3   OH2 4172   2.923   0.707   4.948
 1389TIP3    H1 4173   2.909   0.653   4.870
 1389TIP3    H2 4174   2.844   0.761   4.954
 1390TIP3   OH2 4175   1.260   3.415   5.069
 1390TIP3    H1 4176   1.343   3.422   5.116
 1390TIP3    H2 4177   1.194   3.440   5.133
 1391TIP3   OH2 4178   3.244   2.734   1.602
 1391TIP3    H1 4179   3.186   2.795   1.558
 1391TIP3    H2 4180   3.231   2.651   1.557
 1392TIP3   OH2 4181   5.147   2.180   0.571
 1392TIP3    H1 4182   5.207   2.136   0.510
 1392TIP3    H2 4183   5.168   2.143   0.657
 1393TIP3   OH2 4184   2.271   2.422   1.056
 1393TIP3    H1 4185   2.203   2.367   1.095
 1393TIP3    H2 4186   2.284   2.493   1.120
 1394TIP3   OH2 4187   2.793   4.346   4.280
 1394TIP3    H1 4188   2.834   4.359   4.365
 1394TIP3    H2 4189   2.767   4.433   4.252
 1395TIP3   OH2 4190   2.415   1.228   0.072
 1395TIP3    H1 4191   2.463   1.200  -0.005
 1395TIP3    H2 4192   2.387   1.317   0.051
 1396TIP3   OH2 4193   4.310   0.710   4.187
 1396TIP3    H1 4194   4.229   0.682   4.146
 1396TIP3    H2 4195   4.305   0.806   4.188
 1397TIP3   OH2 4196   0.784   3.271   3.744
 1397TIP3    H1 4197   0.825   3.239   3.664
 1397TIP3    H2 4198   0.791   3.198   3.806
 1398TIP3   OH2 4199   0.983   5.904   5.122
 1398TIP3    H1 4200   0.966   5.828   5.178
 1398TIP3    H2 4201   0.933   5.975   5.163
 1399TIP3   OH2 4202   5.476   1.819   3.165
 1399TIP3    H1 4203   5.552   1.865   3.130
 1399TIP3    H2 4204   5.484   1.730   3.131
 1400TIP3   OH2 4205   5.399   4.437   3.731
 1400TIP3    H1 4206   5.367   4.524   3.755
 1400TIP3    H2 4207   5.470   4.454   3.670
 1401TIP3   OH2 4208   1.799   0.302   1.804
 1401TIP3    H1 4209   1.724   0.268   1.756
 1401TIP3    H2 4210   1.796   0.397   1.790
 1402TIP3   OH2 4211   0.711   4.620   2.722
 1402TIP3    H1 4212   0.730   4.532   2.753
 1402TIP3    H2 4213   0.721   4.615   2.627
 1403TIP3   OH2 4214   1.309   5.547   2.210
 1403TIP3    H1 4215   1.285   5.638   2.227
 1403TIP3    H2 4216   1.380   5.553   2.146
 1404TIP3   OH2 4217   3.092   5.771   2.791
 1404TIP3    H1 4218   3.113   5.859   2.823
 1404TIP3    H2 4219   3.047   5.728   2.864
 1405TIP3   OH2 4220   2.156   1.657   3.576
 1405TIP3    H1 4221   2.143   1.563   3.569
 1405TIP3    H2 4222   2.170   1.673   3.669
 1406TIP3   OH2 4223   2.351   2.247   1.300
 1406TIP3    H1 4224   2.394   2.187   1.361
 1406TIP3    H2 4225   2.337   2.327   1.351
 1407TIP3   OH2 4226   5.728   0.172   2.097
 1407TIP3    H1 4227   5.810   0.123   2.101
 1407TIP3    H2 4228   5.664   0.117   2.142
 1408TIP3   OH2 4229   6.012   0.899   0.164
 1408TIP3    H1 4230   6.020   0.992   0.143
 1408TIP3    H2 4231   5.927   0.874   0.128
 1409TIP3   OH2 4232   1.335   0.692   1.561
 1409TIP3    H1 4233   1.380   0.673   1.480
 1409TIP3    H2 4234   1.244   0.706   1.536
 1410TIP3   OH2 4235   5.947   4.154   5.159
 1410TIP3    H1 4236   6.022   4.123   5.211
 1410TIP3    H2 4237   5.884   4.186   5.223
 1411TIP3   OH2 4238   2.850   3.787   0.709
 1411TIP3    H1 4239   2.886   3.754   0.791
 1411TIP3    H2 4240   2.763   3.819   0.732
 1412TIP3   OH2 4241   3.192   2.570   4.400
 1412TIP3    H1 4242   3.254   2.596   4.468
 1412TIP3    H2 4243   3.118   2.631   4.411
 1413TIP3   OH2 4244   0.313   2.114   2.942
 1413TIP3    H1 4245   0.236   2.167   2.921
 1413TIP3    H2 4246   0.369   2.122   2.866
 1414TIP3   OH2 4247   6.350   1.291   5.016
 1414TIP3    H1 4248   6.443   1.307   5.032
 1414TIP3    H2 4249   6.306   1.368   5.050
 1415TIP3   OH2 4250   1.543   5.293   2.982
 1415TIP3    H1 4251   1.452   5.287   3.014
 1415TIP3    H2 4252   1.536   5.279   2.888
 1416TIP3   OH2 4253   3.852   5.444   2.171
 1416TIP3    H1 4254   3.915   5.466   2.239
 1416TIP3    H2 4255   3.885   5.490   2.093
 1417TIP3   OH2 4256   2.093   2.552   5.107
 1417TIP3    H1 4257   2.142   2.549   5.025
 1417TIP3    H2 4258   2.046   2.635   5.103
 1418TIP3   OH2 4259   0.205   4.897   3.731
 1418TIP3    H1 4260   0.168   4.815   3.764
 1418TIP3    H2 4261   0.151   4.965   3.770
 1419TIP3   OH2 4262   4.219   3.652   3.613
 1419TIP3    H1 4263   4.311   3.673   3.628
 1419TIP3    H2 4264   4.220   3.572   3.560
 1420TIP3   OH2 4265   1.379   1.210   0.018
 1420TIP3    H1 4266   1.292   1.230   0.051
 1420TIP3    H2 4267   1.437   1.221   0.094
 1421TIP3   OH2 4268   0.612   2.226   1.695
 1421TIP3    H1 4269   0.562   2.175   1.631
 1421TIP3    H2 4270   0.648   2.299   1.644
 1422TIP3   OH2 4271   1.332   1.358   2.886
 1422TIP3    H1 4272   1.315   1.440   2.932
 1422TIP3    H2 4273   1.395   1.312   2.941
 1423TIP3   OH2 4274   5.642   1.160   1.493
 1423TIP3    H1 4275   5.548   1.142   1.486
 1423TIP3    H2 4276   5.647   1.248   1.530
 1424TIP3   OH2 4277   5.198   3.408   2.775
 1424TIP3    H1 4278   5.259   3.446   2.711
 1424TIP3    H2 4279   5.128   3.473   2.783
 1425TIP3   OH2 4280   1.432   4.037   1.697
 1425TIP3    H1 4281   1.340   4.009   1.692
 1425TIP3    H2 4282   1.451   4.075   1.611
 1426TIP3   OH2 4283   3.568   1.003   2.168
 1426TIP3    H1 4284   3.535   1.015   2.257
 1426TIP3    H2 4285   3.577   0.909   2.157
 1427TIP3   OH2 4286   3.793   4.145   1.749
 1427TIP3    H1 4287   3.764   4.224   1.795
 1427TIP3    H2 4288   3.715   4.089   1.747
 1428TIP3   OH2 4289   6.121   1.033   4.244
 1428TIP3    H1 4290   6.179   0.960   4.261
 1428TIP3    H2 4291   6.034   1.003   4.272
 1429TIP3   OH2 4292   1.007   3.714   2.982
 1429TIP3    H1 4293   0.932   3.656   2.992
 1429TIP3    H2 4294   0.981   3.795   3.027
 1430TIP3   OH2 4295   4.433   1.745   3.582
 1430TIP3    H1 4296   4.350   1.786   3.608
 1430TIP3    H2 4297   4.499   1.788   3.636
 1431TIP3   OH2 4298   2.288   1.525   1.642
 1431TIP3    H1 4299   2.241   1.603   1.612
 1431TIP3    H2 4300   2.274   1.525   1.737
 1432TIP3   OH2 4301   0.189   4.543   3.508
 1432TIP3    H1 4302   0.148   4.468   3.465
 1432TIP3    H2 4303   0.116   4.590   3.548
 1433TIP3   OH2 4304   1.640   4.461   1.534
 1433TIP3    H1 4305   1.577   4.481   1.464
 1433TIP3    H2 4306   1.720   4.506   1.508
 1434TIP3   OH2 4307   0.738   0.676   3.499
 1434TIP3    H1 4308   0.809   0.724   3.458
 1434TIP3    H2 4309   0.716   0.727   3.577
 1435TIP3   OH2 4310   4.219   2.465   3.928
 1435TIP3    H1 4311   4.279   2.539   3.925
 1435TIP3    H2 4312   4.177   2.471   4.014
 1436TIP3   OH2 4313   1.692   4.960   0.582
 1436TIP3    H1 4314   1.626   4.900   0.617
 1436TIP3    H2 4315   1.773   4.909   0.580
 1437TIP3   OH2 4316   2.389   3.051   3.794
 1437TIP3    H1 4317   2.353   3.016   3.875
 1437TIP3    H2 4318   2.457   3.112   3.823
 1438TIP3   OH2 4319   3.402   1.991   2.851
 1438TIP3    H1 4320   3.319   2.011   2.895
 1438TIP3    H2 4321   3.395   2.032   2.765
 1439TIP3   OH2 4322   3.252   3.281   2.532
 1439TIP3    H1 4323   3.222   3.319   2.615
 1439TIP3    H2 4324   3.342   3.314   2.523
 1440TIP3   OH2 4325   4.759   3.119   3.499
 1440TIP3    H1 4326   4.742   3.213   3.493
 1440TIP3    H2 4327   4.709   3.090   3.576
 1441TIP3   OH2 4328   1.173   4.453   3.021
 1441TIP3    H1 4329   1.259   4.455   3.065
 1441TIP3    H2 4330   1.176   4.376   2.965
 1442TIP3   OH2 4331   5.087   1.660   4.301
 1442TIP3    H1 4332   5.141   1.671   4.223
 1442TIP3    H2 4333   5.143   1.610   4.361
 1443TIP3   OH2 4334   4.668   3.907   0.241
 1443TIP3    H1 4335   4.710   3.947   0.317
 1443TIP3    H2 4336   4.739   3.896   0.178
 1444TIP3   OH2 4337   0.385   3.932   3.204
 1444TIP3    H1 4338   0.312   3.870   3.213
 1444TIP3    H2 4339   0.463   3.879   3.223
 1445TIP3   OH2 4340   1.203   2.196   4.371
 1445TIP3    H1 4341   1.260   2.204   4.294
 1445TIP3    H2 4342   1.246   2.250   4.438
 1446TIP3   OH2 4343   0.671   5.776   3.004
 1446TIP3    H1 4344   0.623   5.789   2.923
 1446TIP3    H2 4345   0.740   5.843   3.002
 1447TIP3   OH2 4346   1.251   1.046   0.758
 1447TIP3    H1 4347   1.274   1.134   0.730
 1447TIP3    H2 4348   1.261   1.047   0.853
 1448TIP3   OH2 4349   5.845   5.841   3.956
 1448TIP3    H1 4350   5.769   5.897   3.939
 1448TIP3    H2 4351   5.896   5.845   3.875
 1449TIP3   OH2 4352   5.576   3.973   2.537
 1449TIP3    H1 4353   5.523   4.013   2.469
 1449TIP3    H2 4354   5.603   3.889   2.500
 1450TIP3   OH2 4355   0.258   0.385   2.436
 1450TIP3    H1 4356   0.236   0.405   2.527
 1450TIP3    H2 4357   0.350   0.408   2.428
 1451TIP3   OH2 4358   0.415   0.665   1.328
 1451TIP3    H1 4359   0.490   0.613   1.302
 1451TIP3    H2 4360   0.452   0.749   1.355
 1452TIP3   OH2 4361   2.749   2.056   5.152
 1452TIP3    H1 4362   2.667   2.042   5.105
 1452TIP3    H2 4363   2.789   2.132   5.110
 1453TIP3   OH2 4364   3.212   1.906   0.305
 1453TIP3    H1 4365   3.204   1.895   0.400
 1453TIP3    H2 4366   3.134   1.956   0.281
 1454TIP3   OH2 4367   0.971   0.972   2.563
 1454TIP3    H1 4368   0.918   0.938   2.490
 1454TIP3    H2 4369   1.059   0.981   2.526
 1455TIP3   OH2 4370   2.453   2.143   3.885
 1455TIP3    H1 4371   2.447   2.059   3.840
 1455TIP3    H2 4372   2.363   2.174   3.891
 1456TIP3   OH2 4373   4.825   2.132   1.461
 1456TIP3    H1 4374   4.899   2.191   1.445
 1456TIP3    H2 4375   4.809   2.138   1.556
 1457TIP3   OH2 4376   1.447   5.381   2.424
 1457TIP3    H1 4377   1.397   5.453   2.386
 1457TIP3    H2 4378   1.535   5.391   2.388
 1458TIP3   OH2 4379   1.351   4.361   4.670
 1458TIP3    H1 4380   1.358   4.445   4.625
 1458TIP3    H2 4381   1.334   4.298   4.600
 1459TIP3   OH2 4382   1.887   2.531   1.584
 1459TIP3    H1 4383   1.853   2.620   1.576
 1459TIP3    H2 4384   1.936   2.517   1.502
 1460TIP3   OH2 4385   4.261   4.998   5.074
 1460TIP3    H1 4386   4.235   5.020   5.164
 1460TIP3    H2 4387   4.294   5.080   5.038
 1461TIP3   OH2 4388   4.607   5.031   0.364
 1461TIP3    H1 4389   4.541   4.967   0.391
 1461TIP3    H2 4390   4.673   4.979   0.318
 1462TIP3   OH2 4391   1.450   5.358   0.290
 1462TIP3    H1 4392   1.458   5.418   0.364
 1462TIP3    H2 4393   1.497   5.401   0.219
 1463TIP3   OH2 4394   4.756   3.573   2.236
 1463TIP3    H1 4395   4.840   3.539   2.205
 1463TIP3    H2 4396   4.704   3.495   2.257
 1464TIP3   OH2 4397   2.515   2.329   4.902
 1464TIP3    H1 4398   2.534   2.293   4.815
 1464TIP3    H2 4399   2.573   2.281   4.961
 1465TIP3   OH2 4400   3.657   2.784   4.603
 1465TIP3    H1 4401   3.637   2.778   4.697
 1465TIP3    H2 4402   3.746   2.750   4.595
 1466TIP3   OH2 4403   1.566   3.449   4.854
 1466TIP3    H1 4404   1.594   3.404   4.774
 1466TIP3    H2 4405   1.485   3.493   4.830
 1467TIP3   OH2 4406   5.132   0.741   4.192
 1467TIP3    H1 4407   5.101   0.782   4.112
 1467TIP3    H2 4408   5.184   0.666   4.162
 1468TIP3   OH2 4409   0.664   3.267   2.466
 1468TIP3    H1 4410   0.666   3.357   2.435
 1468TIP3    H2 4411   0.600   3.223   2.409
 1469TIP3   OH2 4412   3.243   2.885   3.612
 1469TIP3    H1 4413   3.329   2.921   3.636
 1469TIP3    H2 4414   3.180   2.941   3.656
 1470TIP3   OH2 4415   4.468   0.446   1.263
 1470TIP3    H1 4416   4.451   0.394   1.342
 1470TIP3    H2 4417   4.388   0.438   1.211
 1471TIP3   OH2 4418   5.503   0.963   4.015
 1471TIP3    H1 4419   5.589   0.982   3.978
 1471TIP3    H2 4420   5.521   0.922   4.100
 1472TIP3   OH2 4421   1.784   4.545   2.321
 1472TIP3    H1 4422   1.809   4.563   2.412
 1472TIP3    H2 4423   1.693   4.515   2.326
 1473TIP3   OH2 4424   4.928   0.747   2.364
 1473TIP3    H1 4425   4.890   0.661   2.382
 1473TIP3    H2 4426   4.871   0.808   2.411
 1474TIP3   OH2 4427   0.961   3.443   0.668
 1474TIP3    H1 4428   0.886   3.444   0.728
 1474TIP3    H2 4429   0.977   3.350   0.652
 1475TIP3   OH2 4430   2.917   0.172   4.785
 1475TIP3    H1 4431   2.935   0.093   4.733
 1475TIP3    H2 4432   2.831   0.156   4.823
 1476TIP3   OH2 4433   0.364   4.579   2.307
 1476TIP3    H1 4434   0.457   4.603   2.314
 1476TIP3    H2 4435   0.318   4.649   2.352
 1477TIP3   OH2 4436   0.520   2.745   4.831
 1477TIP3    H1 4437   0.613   2.729   4.849
 1477TIP3    H2 4438   0.479   2.752   4.918
 1478TIP3   OH2 4439   2.963   3.663   4.178
 1478TIP3    H1 4440   2.973   3.756   4.158
 1478TIP3    H2 4441   3.002   3.617   4.103
 1479TIP3   OH2 4442   2.595   1.063   4.505
 1479TIP3    H1 4443   2.598   0.978   4.550
 1479TIP3    H2 4444   2.604   1.128   4.575
 1480TIP3   OH2 4445   1.538   4.250   2.974
 1480TIP3    H1 4446   1.536   4.300   2.892
 1480TIP3    H2 4447   1.522   4.160   2.948
 1481TIP3   OH2 4448   5.712   1.879   4.525
 1481TIP3    H1 4449   5.731   1.802   4.472
 1481TIP3    H2 4450   5.769   1.948   4.490
 1482TIP3   OH2 4451   0.249   2.322   3.841
 1482TIP3    H1 4452   0.169   2.308   3.893
 1482TIP3    H2 4453   0.321   2.308   3.903
 1483TIP3   OH2 4454   5.554   5.073   1.788
 1483TIP3    H1 4455   5.541   5.052   1.695
 1483TIP3    H2 4456   5.510   5.002   1.835
 1484TIP3   OH2 4457   4.100   0.906   3.581
 1484TIP3    H1 4458   4.054   0.964   3.642
 1484TIP3    H2 4459   4.187   0.944   3.573
 1485TIP3   OH2 4460   1.059   0.472   1.172
 1485TIP3    H1 4461   1.078   0.379   1.188
 1485TIP3    H2 4462   1.125   0.499   1.109
 1486TIP3   OH2 4463   2.607   2.876   4.168
 1486TIP3    H1 4464   2.588   2.843   4.081
 1486TIP3    H2 4465   2.622   2.970   4.156
 1487TIP3   OH2 4466   4.103   1.932   1.346
 1487TIP3    H1 4467   4.038   1.998   1.320
 1487TIP3    H2 4468   4.183   1.981   1.361
 1488TIP3   OH2 4469   4.718   4.061   5.076
 1488TIP3    H1 4470   4.809   4.060   5.104
 1488TIP3    H2 4471   4.721   4.089   4.984
 1489TIP3   OH2 4472   3.026   1.265   2.962
 1489TIP3    H1 4473   3.050   1.190   3.016
 1489TIP3    H2 4474   2.932   1.277   2.978
 1490TIP3   OH2 4475   3.950   2.000   1.668
 1490TIP3    H1 4476   3.977   2.070   1.728
 1490TIP3    H2 4477   3.998   1.923   1.698
 1491TIP3   OH2 4478   5.883   1.164   0.683
 1491TIP3    H1 4479   5.856   1.191   0.595
 1491TIP3    H2 4480   5.923   1.078   0.670
 1492TIP3   OH2 4481   2.574   2.027   2.600
 1492TIP3    H1 4482   2.601   2.058   2.687
 1492TIP3    H2 4483   2.656   2.013   2.553
 1493TIP3   OH2 4484   2.666   4.944   1.485
 1493TIP3    H1 4485   2.593   5.003   1.501
 1493TIP3    H2 4486   2.632   4.880   1.423
 1494TIP3   OH2 4487   5.152   1.315   0.683
 1494TIP3    H1 4488   5.112   1.370   0.616
 1494TIP3    H2 4489   5.130   1.225   0.658
 1495TIP3   OH2 4490   4.731   5.473   1.738
 1495TIP3    H1 4491   4.793   5.402   1.721
 1495TIP3    H2 4492   4.746   5.536   1.668
 1496TIP3   OH2 4493   3.727   2.542   1.035
 1496TIP3    H1 4494   3.780   2.601   1.088
 1496TIP3    H2 4495   3.650   2.594   1.011
 1497TIP3   OH2 4496   4.995   2.996   3.588
 1497TIP3    H1 4497   5.010   2.948   3.507
 1497TIP3    H2 4498   4.925   3.059   3.567
 1498TIP3   OH2 4499   5.597   0.823   4.242
 1498TIP3    H1 4500   5.663   0.763   4.275
 1498TIP3    H2 4501   5.555   0.860   4.320
 1499TIP3   OH2 4502   1.507   5.122   1.540
 1499TIP3    H1 4503   1.473   5.194   1.593
 1499TIP3    H2 4504   1.433   5.061   1.532
 1500TIP3   OH2 4505   4.992   5.489   0.977
 1500TIP3    H1 4506   5.038   5.481   1.061
 1500TIP3    H2 4507   4.928   5.559   0.991
 1501TIP3   OH2 4508   0.540   4.971   4.211
 1501TIP3    H1 4509   0.458   4.975   4.262
 1501TIP3    H2 4510   0.557   5.063   4.188
 1502TIP3   OH2 4511   2.125   2.342   0.029
 1502TIP3    H1 4512   2.062   2.400  -0.014
 1502TIP3    H2 4513   2.168   2.398   0.093
 1503TIP3   OH2 4514   0.043   4.675   1.057
 1503TIP3    H1 4515   0.015   4.585   1.038
 1503TIP3    H2 4516  -0.027   4.730   1.020
 1504TIP3   OH2 4517   4.485   0.254   3.626
 1504TIP3    H1 4518   4.397   0.292   3.624
 1504TIP3    H2 4519   4.543   0.329   3.608
 1505TIP3   OH2 4520   0.715   4.484   3.908
 1505TIP3    H1 4521   0.755   4.413   3.858
 1505TIP3    H2 4522   0.703   4.555   3.844
 1506TIP3   OH2 4523   4.462   4.154   4.296
 1506TIP3    H1 4524   4.453   4.137   4.202
 1506TIP3    H2 4525   4.493   4.071   4.333
 1507TIP3   OH2 4526   5.934   4.813   1.697
 1507TIP3    H1 4527   6.000   4.744   1.688
 1507TIP3    H2 4528   5.974   4.877   1.756
 1508TIP3   OH2 4529   0.808   3.454   4.264
 1508TIP3    H1 4530   0.744   3.386   4.247
 1508TIP3    H2 4531   0.755   3.531   4.289
 1509TIP3   OH2 4532   5.549   2.164   4.737
 1509TIP3    H1 4533   5.479   2.102   4.718
 1509TIP3    H2 4534   5.552   2.222   4.661
 1510TIP3   OH2 4535   1.489   2.314   0.753
 1510TIP3    H1 4536   1.466   2.330   0.845
 1510TIP3    H2 4537   1.571   2.264   0.758
 1511TIP3   OH2 4538   3.808   2.535   2.266
 1511TIP3    H1 4539   3.842   2.624   2.266
 1511TIP3    H2 4540   3.734   2.537   2.206
 1512TIP3   OH2 4541   0.143   2.116   0.330
 1512TIP3    H1 4542   0.049   2.120   0.347
 1512TIP3    H2 4543   0.183   2.151   0.410
 1513TIP3   OH2 4544   1.360   0.093   1.072
 1513TIP3    H1 4545   1.418   0.154   1.118
 1513TIP3    H2 4546   1.272   0.129   1.085
 1514TIP3   OH2 4547   3.160   0.795   4.009
 1514TIP3    H1 4548   3.077   0.778   4.054
 1514TIP3    H2 4549   3.142   0.872   3.955
 1515TIP3   OH2 4550   1.044   1.646   1.543
 1515TIP3    H1 4551   0.968   1.594   1.515
 1515TIP3    H2 4552   1.115   1.619   1.485
 1516TIP3   OH2 4553   4.718   4.620   3.553
 1516TIP3    H1 4554   4.787   4.683   3.529
 1516TIP3    H2 4555   4.765   4.537   3.562
 1517TIP3   OH2 4556   0.266   5.653   2.618
 1517TIP3    H1 4557   0.342   5.630   2.672
 1517TIP3    H2 4558   0.192   5.610   2.661
 1518TIP3   OH2 4559   1.871   4.104   2.147
 1518TIP3    H1 4560   1.856   4.185   2.098
 1518TIP3    H2 4561   1.793   4.051   2.129
 1519TIP3   OH2 4562   4.805   4.173   4.291
 1519TIP3    H1 4563   4.845   4.258   4.312
 1519TIP3    H2 4564   4.760   4.148   4.372
 1520TIP3   OH2 4565   2.558   4.807   0.286
 1520TIP3    H1 4566   2.468   4.783   0.267
 1520TIP3    H2 4567   2.591   4.844   0.204
 1521TIP3   OH2 4568   4.950   3.177   1.165
 1521TIP3    H1 4569   4.944   3.105   1.227
 1521TIP3    H2 4570   4.923   3.139   1.081
 1522TIP3   OH2 4571   5.998   4.746   0.112
 1522TIP3    H1 4572   6.049   4.682   0.163
 1522TIP3    H2 4573   6.037   4.830   0.134
 1523TIP3   OH2 4574   4.201   4.106   1.684
 1523TIP3    H1 4575   4.128   4.043   1.680
 1523TIP3    H2 4576   4.164   4.187   1.648
 1524TIP3   OH2 4577   2.480   1.697   5.013
 1524TIP3    H1 4578   2.511   1.607   5.023
 1524TIP3    H2 4579   2.470   1.730   5.103
 1525TIP3   OH2 4580   3.544   5.744   0.443
 1525TIP3    H1 4581   3.633   5.724   0.471
 1525TIP3    H2 4582   3.510   5.661   0.410
 1526TIP3   OH2 4583   2.403   3.604   1.953
 1526TIP3    H1 4584   2.480   3.623   1.900
 1526TIP3    H2 4585   2.353   3.686   1.952
 1527TIP3   OH2 4586   4.549   0.060   4.595
 1527TIP3    H1 4587   4.546   0.155   4.584
 1527TIP3    H2 4588   4.460   0.036   4.620
 1528TIP3   OH2 4589   3.064   5.287   0.103
 1528TIP3    H1 4590   2.984   5.337   0.085
 1528TIP3    H2 4591   3.033   5.203   0.137
 1529TIP3   OH2 4592   0.252   1.565   3.059
 1529TIP3    H1 4593   0.241   1.518   2.976
 1529TIP3    H2 4594   0.267   1.656   3.034
 1530TIP3   OH2 4595   1.181   2.563   0.425
 1530TIP3    H1 4596   1.135   2.540   0.345
 1530TIP3    H2 4597   1.256   2.504   0.428
 1531TIP3   OH2 4598   6.247   2.862   3.497
 1531TIP3    H1 4599   6.325   2.835   3.547
 1531TIP3    H2 4600   6.232   2.952   3.525
 1532TIP3   OH2 4601   4.236   3.087   1.729
 1532TIP3    H1 4602   4.187   3.073   1.648
 1532TIP3    H2 4603   4.328   3.088   1.702
 1533TIP3   OH2 4604   3.481   5.711   3.805
 1533TIP3    H1 4605   3.561   5.666   3.833
 1533TIP3    H2 4606   3.428   5.718   3.884
 1534TIP3   OH2 4607   3.732   4.301   1.512
 1534TIP3    H1 4608   3.755   4.214   1.543
 1534TIP3    H2 4609   3.643   4.315   1.545
 1535TIP3   OH2 4610   1.197   1.940   4.796
 1535TIP3    H1 4611   1.246   1.897   4.726
 1535TIP3    H2 4612   1.248   2.019   4.815
 1536TIP3   OH2 4613   3.424   4.088   0.322
 1536TIP3    H1 4614   3.394   4.127   0.240
 1536TIP3    H2 4615   3.347   4.084   0.378
 1537TIP3   OH2 4616   2.866   2.104   4.177
 1537TIP3    H1 4617   2.906   2.188   4.202
 1537TIP3    H2 4618   2.792   2.129   4.120
 1538TIP3   OH2 4619   3.206   0.900   0.298
 1538TIP3    H1 4620   3.206   0.931   0.207
 1538TIP3    H2 4621   3.116   0.914   0.328
 1539TIP3   OH2 4622   3.630   4.485   3.785
 1539TIP3    H1 4623   3.654   4.441   3.703
 1539TIP3    H2 4624   3.682   4.441   3.851
 1540TIP3   OH2 4625   2.816   5.971   1.890
 1540TIP3    H1 4626   2.788   5.880   1.879
 1540TIP3    H2 4627   2.911   5.967   1.887
 1541TIP3   OH2 4628   4.506   3.666   4.715
 1541TIP3    H1 4629   4.418   3.666   4.679
 1541TIP3    H2 4630   4.500   3.612   4.794
 1542TIP3   OH2 4631   1.994   5.640   2.161
 1542TIP3    H1 4632   1.956   5.727   2.175
 1542TIP3    H2 4633   1.958   5.587   2.233
 1543TIP3   OH2 4634   5.764   4.758   0.812
 1543TIP3    H1 4635   5.784   4.819   0.883
 1543TIP3    H2 4636   5.719   4.685   0.855
 1544TIP3   OH2 4637   5.317   2.850   3.313
 1544TIP3    H1 4638   5.310   2.894   3.398
 1544TIP3    H2 4639   5.384   2.899   3.266
 1545TIP3   OH2 4640   2.332   3.639   4.755
 1545TIP3    H1 4641   2.321   3.726   4.716
 1545TIP3    H2 4642   2.361   3.656   4.844
 1546TIP3   OH2 4643   2.945   3.958   2.016
 1546TIP3    H1 4644   3.002   3.960   1.939
 1546TIP3    H2 4645   3.002   3.929   2.087
 1547TIP3   OH2 4646   2.045   2.468   1.368
 1547TIP3    H1 4647   2.138   2.475   1.387
 1547TIP3    H2 4648   2.040   2.417   1.287
 1548TIP3   OH2 4649   2.511   4.243   2.061
 1548TIP3    H1 4650   2.436   4.265   2.005
 1548TIP3    H2 4651   2.491   4.155   2.092
 1549TIP3   OH2 4652   5.226   0.050   2.903
 1549TIP3    H1 4653   5.191   0.099   2.828
 1549TIP3    H2 4654   5.168   0.073   2.975
 1550TIP3   OH2 4655   3.220   0.103   4.164
 1550TIP3    H1 4656   3.292   0.143   4.212
 1550TIP3    H2 4657   3.227   0.139   4.076
 1551TIP3   OH2 4658   5.491   2.851   4.374
 1551TIP3    H1 4659   5.511   2.943   4.390
 1551TIP3    H2 4660   5.471   2.815   4.461
 1552TIP3   OH2 4661   4.381   5.839   3.248
 1552TIP3    H1 4662   4.437   5.763   3.259
 1552TIP3    H2 4663   4.367   5.845   3.153
 1553TIP3   OH2 4664   5.879   0.022   3.164
 1553TIP3    H1 4665   5.803   0.056   3.116
 1553TIP3    H2 4666   5.876   0.066   3.249
 1554TIP3   OH2 4667   4.688   3.556   1.644
 1554TIP3    H1 4668   4.771   3.558   1.598
 1554TIP3    H2 4669   4.668   3.463   1.657
 1555TIP3   OH2 4670   1.551   2.067   3.768
 1555TIP3    H1 4671   1.522   1.978   3.750
 1555TIP3    H2 4672   1.645   2.066   3.749
 1556TIP3   OH2 4673   0.365   2.739   1.960
 1556TIP3    H1 4674   0.422   2.801   1.913
 1556TIP3    H2 4675   0.277   2.759   1.929
 1557TIP3   OH2 4676   2.072   4.611   1.557
 1557TIP3    H1 4677   2.015   4.638   1.485
 1557TIP3    H2 4678   2.124   4.539   1.522
 1558TIP3   OH2 4679   1.734   1.582   5.046
 1558TIP3    H1 4680   1.823   1.553   5.066
 1558TIP3    H2 4681   1.680   1.542   5.114
 1559TIP3   OH2 4682   0.600   5.006   3.902
 1559TIP3    H1 4683   0.563   4.972   3.821
 1559TIP3    H2 4684   0.639   5.090   3.877
 1560TIP3   OH2 4685   5.041   2.479   4.930
 1560TIP3    H1 4686   5.101   2.553   4.928
 1560TIP3    H2 4687   5.093   2.407   4.967
 1561TIP3   OH2 4688   0.861   3.727   1.164
 1561TIP3    H1 4689   0.843   3.648   1.113
 1561TIP3    H2 4690   0.941   3.762   1.127
 1562TIP3   OH2 4691   3.308   0.173   3.911
 1562TIP3    H1 4692   3.314   0.237   3.840
 1562TIP3    H2 4693   3.293   0.089   3.866
 1563TIP3   OH2 4694   0.031   0.499   1.546
 1563TIP3    H1 4695   0.030   0.543   1.461
 1563TIP3    H2 4696   0.112   0.448   1.546
 1564TIP3   OH2 4697   4.437   4.520   2.581
 1564TIP3    H1 4698   4.355   4.470   2.588
 1564TIP3    H2 4699   4.491   4.469   2.522
 1565TIP3   OH2 4700   1.014   4.987   2.525
 1565TIP3    H1 4701   0.992   5.080   2.528
 1565TIP3    H2 4702   1.091   4.979   2.581
 1566TIP3   OH2 4703   3.228   0.562   3.517
 1566TIP3    H1 4704   3.210   0.600   3.431
 1566TIP3    H2 4705   3.259   0.636   3.570
 1567TIP3   OH2 4706   4.474   3.026   4.322
 1567TIP3    H1 4707   4.517   3.096   4.371
 1567TIP3    H2 4708   4.455   3.065   4.237
 1568TIP3   OH2 4709   2.952   3.249   2.949
 1568TIP3    H1 4710   3.018   3.203   3.001
 1568TIP3    H2 4711   2.883   3.268   3.012
 1569TIP3   OH2 4712   1.694   0.403   4.949
 1569TIP3    H1 4713   1.654   0.377   4.866
 1569TIP3    H2 4714   1.620   0.430   5.004
 1570TIP3   OH2 4715   0.423   1.358   0.538
 1570TIP3    H1 4716   0.420   1.412   0.617
 1570TIP3    H2 4717   0.334   1.323   0.531
 1571TIP3   OH2 4718   2.815   3.563   0.458
 1571TIP3    H1 4719   2.897   3.580   0.503
 1571TIP3    H2 4720   2.762   3.642   0.472
 1572TIP3   OH2 4721   4.104   4.849   2.484
 1572TIP3    H1 4722   4.098   4.843   2.579
 1572TIP3    H2 4723   4.133   4.763   2.456
 1573TIP3   OH2 4724   0.276   0.183   2.253
 1573TIP3    H1 4725   0.258   0.208   2.163
 1573TIP3    H2 4726   0.277   0.265   2.301
 1574TIP3   OH2 4727   0.786   2.432   0.029
 1574TIP3    H1 4728   0.835   2.513   0.044
 1574TIP3    H2 4729   0.711   2.438   0.088
 1575TIP3   OH2 4730   6.002   2.729   2.076
 1575TIP3    H1 4731   5.972   2.640   2.095
 1575TIP3    H2 4732   6.071   2.745   2.140
 1576TIP3   OH2 4733   4.291   5.144   0.572
 1576TIP3    H1 4734   4.212   5.188   0.541
 1576TIP3    H2 4735   4.340   5.211   0.619
 1577TIP3   OH2 4736   1.685   3.897   2.052
 1577TIP3    H1 4737   1.690   3.945   1.970
 1577TIP3    H2 4738   1.737   3.818   2.037
 1578TIP3   OH2 4739   5.581   4.991   4.186
 1578TIP3    H1 4740   5.581   4.898   4.165
 1578TIP3    H2 4741   5.620   5.032   4.108
 1579TIP3   OH2 4742   4.993   3.985   2.520
 1579TIP3    H1 4743   4.957   3.998   2.608
 1579TIP3    H2 4744   4.932   3.926   2.477
 1580TIP3   OH2 4745   3.636   0.102   3.774
 1580TIP3    H1 4746   3.546   0.069   3.773
 1580TIP3    H2 4747   3.629   0.188   3.816
 1581TIP3   OH2 4748   4.026   5.891   2.602
 1581TIP3    H1 4749   3.992   5.954   2.540
 1581TIP3    H2 4750   4.107   5.930   2.635
 1582TIP3   OH2 4751   2.045   1.799   1.767
 1582TIP3    H1 4752   2.028   1.893   1.772
 1582TIP3    H2 4753   2.073   1.785   1.676
 1583TIP3   OH2 4754   5.342   2.147   0.988
 1583TIP3    H1 4755   5.283   2.212   0.949
 1583TIP3    H2 4756   5.284   2.087   1.034
 1584TIP3   OH2 4757   3.388   5.385   3.838
 1584TIP3    H1 4758   3.323   5.327   3.797
 1584TIP3    H2 4759   3.470   5.335   3.834
 1585TIP3   OH2 4760   5.520   2.101   3.784
 1585TIP3    H1 4761   5.607   2.124   3.817
 1585TIP3    H2 4762   5.463   2.107   3.861
 1586TIP3   OH2 4763   5.327   4.503   5.108
 1586TIP3    H1 4764   5.389   4.550   5.052
 1586TIP3    H2 4765   5.290   4.570   5.165
 1587TIP3   OH2 4766   0.974   2.984   3.698
 1587TIP3    H1 4767   0.964   2.897   3.737
 1587TIP3    H2 4768   1.013   2.967   3.612
 1588TIP3   OH2 4769   1.422   0.012   2.919
 1588TIP3    H1 4770   1.337  -0.029   2.929
 1588TIP3    H2 4771   1.458  -0.025   2.839
 1589TIP3   OH2 4772   1.363   2.164   4.879
 1589TIP3    H1 4773   1.448   2.204   4.893
 1589TIP3    H2 4774   1.326   2.154   4.966
 1590TIP3   OH2 4775   0.158   2.699   4.610
 1590TIP3    H1 4776   0.089   2.651   4.655
 1590TIP3    H2 4777   0.152   2.672   4.519
 1591TIP3   OH2 4778   0.854   0.832   1.328
 1591TIP3    H1 4779   0.759   0.827   1.342
 1591TIP3    H2 4780   0.882   0.906   1.381
 1592TIP3   OH2 4781   4.142   1.237   2.505
 1592TIP3    H1 4782   4.115   1.244   2.596
 1592TIP3    H2 4783   4.091   1.304   2.459
 1593TIP3   OH2 4784   6.265   2.372   3.452
 1593TIP3    H1 4785   6.329   2.320   3.403
 1593TIP3    H2 4786   6.261   2.331   3.538
 1594TIP3   OH2 4787   4.332   2.741   2.207
 1594TIP3    H1 4788   4.360   2.803   2.275
 1594TIP3    H2 4789   4.408   2.685   2.194
 1595TIP3   OH2 4790   1.629   5.776   4.192
 1595TIP3    H1 4791   1.654   5.810   4.106
 1595TIP3    H2 4792   1.668   5.836   4.254
 1596TIP3   OH2 4793   2.226   0.657   1.341
 1596TIP3    H1 4794   2.320   0.640   1.348
 1596TIP3    H2 4795   2.218   0.752   1.350
 1597TIP3   OH2 4796   2.988   2.641   0.676
 1597TIP3    H1 4797   3.054   2.710   0.682
 1597TIP3    H2 4798   3.021   2.583   0.607
 1598TIP3   OH2 4799   2.363   4.337   1.291
 1598TIP3    H1 4800   2.412   4.271   1.340
 1598TIP3    H2 4801   2.292   4.363   1.351
 1599TIP3   OH2 4802   3.952   2.543   4.455
 1599TIP3    H1 4803   3.943   2.586   4.370
 1599TIP3    H2 4804   3.866   2.504   4.472
 1600TIP3   OH2 4805   1.085   4.755   3.623
 1600TIP3    H1 4806   1.128   4.716   3.699
 1600TIP3    H2 4807   1.019   4.691   3.597
 1601TIP3   OH2 4808   5.855   4.807   3.096
 1601TIP3    H1 4809   5.780   4.762   3.136
 1601TIP3    H2 4810   5.816   4.871   3.036
 1602TIP3   OH2 4811   5.908   2.284   4.562
 1602TIP3    H1 4812   5.962   2.223   4.511
 1602TIP3    H2 4813   5.835   2.306   4.504
 1603TIP3   OH2 4814   5.283   5.535   0.282
 1603TIP3    H1 4815   5.260   5.445   0.304
 1603TIP3    H2 4816   5.313   5.531   0.191
 1604TIP3   OH2 4817   4.332   0.505   4.376
 1604TIP3    H1 4818   4.328   0.571   4.306
 1604TIP3    H2 4819   4.398   0.443   4.346
 1605TIP3   OH2 4820   2.142   5.412   2.979
 1605TIP3    H1 4821   2.050   5.436   2.974
 1605TIP3    H2 4822   2.153   5.376   3.067
 1606TIP3   OH2 4823   0.358   3.518   0.865
 1606TIP3    H1 4824   0.305   3.545   0.790
 1606TIP3    H2 4825   0.349   3.423   0.869
 1607TIP3   OH2 4826   4.096   3.629   5.116
 1607TIP3    H1 4827   4.013   3.597   5.152
 1607TIP3    H2 4828   4.075   3.715   5.081
 1608TIP3   OH2 4829   3.995   4.179   1.955
 1608TIP3    H1 4830   3.938   4.179   1.878
 1608TIP3    H2 4831   4.056   4.252   1.939
 1609TIP3   OH2 4832   3.990   3.617   4.842
 1609TIP3    H1 4833   3.954   3.584   4.924
 1609TIP3    H2 4834   3.933   3.689   4.817
 1610TIP3   OH2 4835   0.725   3.143   1.768
 1610TIP3    H1 4836   0.741   3.123   1.676
 1610TIP3    H2 4837   0.802   3.191   1.796
 1611TIP3   OH2 4838   0.997   0.980   0.658
 1611TIP3    H1 4839   1.079   0.979   0.707
 1611TIP3    H2 4840   1.009   1.050   0.593
 1612TIP3   OH2 4841   5.617   2.066   2.685
 1612TIP3    H1 4842   5.537   2.015   2.689
 1612TIP3    H2 4843   5.618   2.103   2.596
 1613TIP3   OH2 4844   5.596   1.515   1.321
 1613TIP3    H1 4845   5.615   1.564   1.241
 1613TIP3    H2 4846   5.571   1.428   1.291
 1614TIP3   OH2 4847   2.642   1.895   1.159
 1614TIP3    H1 4848   2.601   1.982   1.163
 1614TIP3    H2 4849   2.626   1.856   1.245
 1615TIP3   OH2 4850   0.187   1.098   0.245
 1615TIP3    H1 4851   0.271   1.103   0.200
 1615TIP3    H2 4852   0.148   1.015   0.217
 1616TIP3   OH2 4853   2.183   2.182   3.365
 1616TIP3    H1 4854   2.277   2.184   3.348
 1616TIP3    H2 4855   2.150   2.260   3.319
 1617TIP3   OH2 4856   0.168   3.070   2.084
 1617TIP3    H1 4857   0.118   2.989   2.078
 1617TIP3    H2 4858   0.162   3.095   2.177
 1618TIP3   OH2 4859   3.541   2.451   3.258
 1618TIP3    H1 4860   3.614   2.448   3.196
 1618TIP3    H2 4861   3.576   2.501   3.332
 1619TIP3   OH2 4862   5.982   4.778   2.723
 1619TIP3    H1 4863   5.969   4.689   2.692
 1619TIP3    H2 4864   6.043   4.817   2.659
 1620TIP3   OH2 4865   1.952   1.559   4.790
 1620TIP3    H1 4866   1.961   1.540   4.883
 1620TIP3    H2 4867   1.858   1.547   4.772
 1621TIP3   OH2 4868   2.311   0.433   0.801
 1621TIP3    H1 4869   2.382   0.372   0.821
 1621TIP3    H2 4870   2.271   0.453   0.886
 1622TIP3   OH2 4871   4.954   0.670   3.140
 1622TIP3    H1 4872   5.018   0.612   3.181
 1622TIP3    H2 4873   4.975   0.756   3.175
 1623TIP3   OH2 4874   5.926   5.273   2.031
 1623TIP3    H1 4875   5.957   5.223   2.107
 1623TIP3    H2 4876   5.924   5.364   2.062
 1624TIP3   OH2 4877   0.973   5.858   3.438
 1624TIP3    H1 4878   0.990   5.900   3.353
 1624TIP3    H2 4879   0.910   5.916   3.481
 1625TIP3   OH2 4880   0.962   1.940   4.050
 1625TIP3    H1 4881   0.958   1.980   4.136
 1625TIP3    H2 4882   1.054   1.943   4.026
 1626TIP3   OH2 4883   5.381   3.418   4.802
 1626TIP3    H1 4884   5.427   3.380   4.727
 1626TIP3    H2 4885   5.392   3.512   4.792
 1627TIP3   OH2 4886   0.652   4.293   5.165
 1627TIP3    H1 4887   0.714   4.354   5.124
 1627TIP3    H2 4888   0.617   4.243   5.093
 1628TIP3   OH2 4889   0.033   0.802   3.646
 1628TIP3    H1 4890  -0.045   0.846   3.611
 1628TIP3    H2 4891   0.090   0.789   3.570
 1629TIP3   OH2 4892   5.095   5.297   3.476
 1629TIP3    H1 4893   5.018   5.337   3.515
 1629TIP3    H2 4894   5.168   5.354   3.502
 1630TIP3   OH2 4895   0.500   3.484   2.183
 1630TIP3    H1 4896   0.523   3.392   2.190
 1630TIP3    H2 4897   0.411   3.484   2.148
 1631TIP3   OH2 4898   5.779   2.723   4.926
 1631TIP3    H1 4899   5.788   2.654   4.860
 1631TIP3    H2 4900   5.766   2.803   4.876
 1632TIP3   OH2 4901   5.884   5.565   3.810
 1632TIP3    H1 4902   5.943   5.503   3.766
 1632TIP3    H2 4903   5.932   5.593   3.888
 1633TIP3   OH2 4904   4.816   1.264   1.026
 1633TIP3    H1 4905   4.877   1.198   0.993
 1633TIP3    H2 4906   4.731   1.221   1.024
 1634TIP3   OH2 4907   0.061   2.597   2.182
 1634TIP3    H1 4908   0.002   2.544   2.128
 1634TIP3    H2 4909   0.146   2.554   2.172
 1635TIP3   OH2 4910   0.764   3.773   4.124
 1635TIP3    H1 4911   0.785   3.859   4.086
 1635TIP3    H2 4912   0.674   3.756   4.096
 1636TIP3   OH2 4913   0.754   1.387   0.729
 1636TIP3    H1 4914   0.740   1.325   0.801
 1636TIP3    H2 4915   0.768   1.471   0.772
 1637TIP3   OH2 4916   3.869   1.509   3.101
 1637TIP3    H1 4917   3.839   1.521   3.191
 1637TIP3    H2 4918   3.880   1.598   3.067
 1638TIP3   OH2 4919   0.023   1.488   3.235
 1638TIP3    H1 4920   0.003   1.580   3.255
 1638TIP3    H2 4921   0.078   1.492   3.157
 1639TIP3   OH2 4922   1.993   0.278   4.578
 1639TIP3    H1 4923   2.053   0.203   4.580
 1639TIP3    H2 4924   1.909   0.241   4.549
 1640TIP3   OH2 4925   2.708   0.321   4.556
 1640TIP3    H1 4926   2.648   0.387   4.591
 1640TIP3    H2 4927   2.782   0.371   4.522
 1641TIP3   OH2 4928   4.786   3.887   3.692
 1641TIP3    H1 4929   4.786   3.918   3.601
 1641TIP3    H2 4930   4.861   3.828   3.697
 1642TIP3   OH2 4931   2.436   1.880   3.811
 1642TIP3    H1 4932   2.482   1.846   3.734
 1642TIP3    H2 4933   2.471   1.828   3.884
 1643TIP3   OH2 4934   6.020   2.792   4.684
 1643TIP3    H1 4935   6.086   2.831   4.626
 1643TIP3    H2 4936   5.946   2.853   4.680
 1644TIP3   OH2 4937   5.481   0.499   2.810
 1644TIP3    H1 4938   5.565   0.546   2.811
 1644TIP3    H2 4939   5.471   0.470   2.719
 1645TIP3   OH2 4940   3.622   4.754   2.083
 1645TIP3    H1 4941   3.602   4.720   2.170
 1645TIP3    H2 4942   3.541   4.741   2.033
 1646TIP3   OH2 4943   5.836   1.606   0.424
 1646TIP3    H1 4944   5.775   1.669   0.461
 1646TIP3    H2 4945   5.829   1.619   0.329
 1647TIP3   OH2 4946   1.398   4.088   1.421
 1647TIP3    H1 4947   1.393   3.993   1.418
 1647TIP3    H2 4948   1.308   4.118   1.406
 1648TIP3   OH2 4949   3.368   5.982   1.627
 1648TIP3    H1 4950   3.335   6.067   1.596
 1648TIP3    H2 4951   3.311   5.917   1.584
 1649TIP3   OH2 4952   4.062   0.662   4.021
 1649TIP3    H1 4953   4.020   0.693   3.941
 1649TIP3    H2 4954   3.991   0.654   4.084
 1650TIP3   OH2 4955   0.470   3.043   3.270
 1650TIP3    H1 4956   0.388   2.995   3.258
 1650TIP3    H2 4957   0.479   3.053   3.365
 1651TIP3   OH2 4958   2.008   3.308   3.081
 1651TIP3    H1 4959   1.966   3.223   3.090
 1651TIP3    H2 4960   2.066   3.315   3.157
 1652TIP3   OH2 4961   4.224   2.934   0.559
 1652TIP3    H1 4962   4.299   2.904   0.508
 1652TIP3    H2 4963   4.168   2.856   0.568
 1653TIP3   OH2 4964   2.109   2.006   0.430
 1653TIP3    H1 4965   2.105   1.919   0.469
 1653TIP3    H2 4966   2.116   2.066   0.505
 1654TIP3   OH2 4967   0.220   5.219   3.263
 1654TIP3    H1 4968   0.214   5.275   3.186
 1654TIP3    H2 4969   0.143   5.240   3.316
 1655TIP3   OH2 4970   3.847   2.707   3.953
 1655TIP3    H1 4971   3.764   2.754   3.949
 1655TIP3    H2 4972   3.823   2.614   3.946
 1656TIP3   OH2 4973   2.709   3.703   1.551
 1656TIP3    H1 4974   2.655   3.662   1.620
 1656TIP3    H2 4975   2.799   3.679   1.573
 1657TIP3   OH2 4976   2.085   3.865   4.182
 1657TIP3    H1 4977   2.003   3.845   4.226
 1657TIP3    H2 4978   2.140   3.905   4.250
 1658TIP3   OH2 4979   3.210   5.452   3.253
 1658TIP3    H1 4980   3.198   5.503   3.173
 1658TIP3    H2 4981   3.149   5.379   3.244
 1659TIP3   OH2 4982   4.653   3.133   4.927
 1659TIP3    H1 4983   4.643   3.124   4.832
 1659TIP3    H2 4984   4.705   3.213   4.938
 1660TIP3   OH2 4985   2.537   5.639   0.627
 1660TIP3    H1 4986   2.615   5.628   0.573
 1660TIP3    H2 4987   2.476   5.688   0.572
 1661TIP3   OH2 4988   2.273   5.842   0.390
 1661TIP3    H1 4989   2.366   5.849   0.366
 1661TIP3    H2 4990   2.263   5.898   0.467
 1662TIP3   OH2 4991   0.614   2.167   3.689
 1662TIP3    H1 4992   0.670   2.137   3.761
 1662TIP3    H2 4993   0.535   2.200   3.733
 1663TIP3   OH2 4994   2.468   5.147   0.630
 1663TIP3    H1 4995   2.377   5.135   0.602
 1663TIP3    H2 4996   2.488   5.238   0.608
 1664TIP3   OH2 4997   2.315   0.716   0.742
 1664TIP3    H1 4998   2.325   0.731   0.648
 1664TIP3    H2 4999   2.318   0.621   0.752
 1665TIP3   OH2 5000   2.048   3.824   3.423
 1665TIP3    H1 5001   2.053   3.900   3.481
 1665TIP3    H2 5002   2.138   3.792   3.417
 1666TIP3   OH2 5003   4.053   3.230   4.482
 1666TIP3    H1 5004   4.084   3.140   4.492
 1666TIP3    H2 5005   4.066   3.269   4.568
 1667TIP3   OH2 5006   1.287   4.399   2.724
 1667TIP3    H1 5007   1.306   4.346   2.647
 1667TIP3    H2 5008   1.261   4.336   2.791
 1668TIP3   OH2 5009   0.812   0.466   3.095
 1668TIP3    H1 5010   0.767   0.537   3.049
 1668TIP3    H2 5011   0.821   0.397   3.030
 1669TIP3   OH2 5012   1.972   0.846   1.573
 1669TIP3    H1 5013   1.975   0.941   1.590
 1669TIP3    H2 5014   2.057   0.814   1.604
 1670TIP3   OH2 5015   2.295   1.709   0.766
 1670TIP3    H1 5016   2.244   1.681   0.841
 1670TIP3    H2 5017   2.358   1.771   0.802
 1671TIP3   OH2 5018   1.805   5.605   0.566
 1671TIP3    H1 5019   1.721   5.611   0.613
 1671TIP3    H2 5020   1.780   5.578   0.477
 1672TIP3   OH2 5021   2.114   3.125   1.496
 1672TIP3    H1 5022   2.022   3.125   1.522
 1672TIP3    H2 5023   2.125   3.043   1.447
 1673TIP3   OH2 5024   0.651   3.875   1.973
 1673TIP3    H1 5025   0.584   3.849   2.036
 1673TIP3    H2 5026   0.717   3.920   2.025
 1674TIP3   OH2 5027   2.461   5.691   4.102
 1674TIP3    H1 5028   2.440   5.721   4.190
 1674TIP3    H2 5029   2.484   5.772   4.055
 1675TIP3   OH2 5030   4.868   2.677   0.070
 1675TIP3    H1 5031   4.819   2.597   0.091
 1675TIP3    H2 5032   4.808   2.728   0.017
 1676TIP3   OH2 5033   5.027   4.972   1.347
 1676TIP3    H1 5034   5.064   5.058   1.363
 1676TIP3    H2 5035   4.971   4.955   1.423
 1677TIP3   OH2 5036   6.327   1.913   0.665
 1677TIP3    H1 5037   6.256   1.929   0.726
 1677TIP3    H2 5038   6.356   1.824   0.684
 1678TIP3   OH2 5039   2.153   1.833   2.405
 1678TIP3    H1 5040   2.124   1.924   2.405
 1678TIP3    H2 5041   2.074   1.782   2.422
 1679TIP3   OH2 5042   2.690   2.913   4.620
 1679TIP3    H1 5043   2.727   2.846   4.676
 1679TIP3    H2 5044   2.711   2.884   4.531
 1680TIP3   OH2 5045   5.711   3.691   1.397
 1680TIP3    H1 5046   5.622   3.705   1.428
 1680TIP3    H2 5047   5.766   3.704   1.475
 1681TIP3   OH2 5048   1.118   4.059   1.661
 1681TIP3    H1 5049   1.123   3.975   1.616
 1681TIP3    H2 5050   1.030   4.061   1.699
 1682TIP3   OH2 5051   1.152   0.835   3.918
 1682TIP3    H1 5052   1.233   0.819   3.967
 1682TIP3    H2 5053   1.095   0.762   3.942
 1683TIP3   OH2 5054   5.351   2.841   3.680
 1683TIP3    H1 5055   5.310   2.765   3.640
 1683TIP3    H2 5056   5.382   2.893   3.606
 1684TIP3   OH2 5057   1.641   1.000   2.744
 1684TIP3    H1 5058   1.615   0.927   2.687
 1684TIP3    H2 5059   1.581   1.071   2.721
 1685TIP3   OH2 5060   0.352   0.812   0.197
 1685TIP3    H1 5061   0.433   0.796   0.149
 1685TIP3    H2 5062   0.364   0.898   0.237
 1686TIP3   OH2 5063   2.656   4.591   2.460
 1686TIP3    H1 5064   2.617   4.556   2.380
 1686TIP3    H2 5065   2.706   4.667   2.432
 1687TIP3   OH2 5066   3.221   4.592   4.619
 1687TIP3    H1 5067   3.240   4.642   4.698
 1687TIP3    H2 5068   3.186   4.509   4.652
 1688TIP3   OH2 5069   2.106   3.076   1.771
 1688TIP3    H1 5070   2.092   3.051   1.680
 1688TIP3    H2 5071   2.030   3.129   1.793
 1689TIP3   OH2 5072   3.939   1.462   5.033
 1689TIP3    H1 5073   3.882   1.489   5.105
 1689TIP3    H2 5074   3.885   1.477   4.955
 1690TIP3   OH2 5075   1.480   0.267   0.824
 1690TIP3    H1 5076   1.421   0.328   0.779
 1690TIP3    H2 5077   1.427   0.189   0.840
 1691TIP3   OH2 5078   3.766   0.302   2.592
 1691TIP3    H1 5079   3.861   0.305   2.591
 1691TIP3    H2 5080   3.741   0.299   2.500
 1692TIP3   OH2 5081   1.421   1.806   0.762
 1692TIP3    H1 5082   1.402   1.729   0.816
 1692TIP3    H2 5083   1.400   1.778   0.672
 1693TIP3   OH2 5084   0.435   1.662   4.095
 1693TIP3    H1 5085   0.465   1.591   4.152
 1693TIP3    H2 5086   0.340   1.655   4.096
 1694TIP3   OH2 5087   5.685   4.260   2.381
 1694TIP3    H1 5088   5.636   4.180   2.365
 1694TIP3    H2 5089   5.671   4.313   2.303
 1695TIP3   OH2 5090   3.531   3.991   1.516
 1695TIP3    H1 5091   3.475   3.914   1.503
 1695TIP3    H2 5092   3.484   4.062   1.472
 1696TIP3   OH2 5093   5.647   5.628   3.054
 1696TIP3    H1 5094   5.653   5.537   3.085
 1696TIP3    H2 5095   5.615   5.621   2.964
 1697TIP3   OH2 5096   4.970   0.788   0.478
 1697TIP3    H1 5097   5.028   0.714   0.461
 1697TIP3    H2 5098   4.913   0.759   0.549
 1698TIP3   OH2 5099   3.860   1.068   1.420
 1698TIP3    H1 5100   3.881   1.016   1.498
 1698TIP3    H2 5101   3.804   1.010   1.368
 1699TIP3   OH2 5102   3.214   1.786   0.042
 1699TIP3    H1 5103   3.199   1.863  -0.012
 1699TIP3    H2 5104   3.227   1.820   0.131
 1700TIP3   OH2 5105   0.079   3.644   0.114
 1700TIP3    H1 5106   0.095   3.574   0.050
 1700TIP3    H2 5107  -0.013   3.666   0.104
 1701TIP3   OH2 5108   1.768   1.197   3.545
 1701TIP3    H1 5109   1.691   1.173   3.494
 1701TIP3    H2 5110   1.840   1.196   3.482
 1702TIP3   OH2 5111   3.765   5.220   0.648
 1702TIP3    H1 5112   3.802   5.173   0.723
 1702TIP3    H2 5113   3.722   5.296   0.687
 1703TIP3   OH2 5114   4.931   5.476   0.505
 1703TIP3    H1 5115   4.933   5.398   0.449
 1703TIP3    H2 5116   4.889   5.447   0.586
 1704TIP3   OH2 5117   2.262   4.344   1.999
 1704TIP3    H1 5118   2.340   4.388   1.963
 1704TIP3    H2 5119   2.200   4.342   1.927
 1705TIP3   OH2 5120   3.515   0.823   4.362
 1705TIP3    H1 5121   3.421   0.806   4.361
 1705TIP3    H2 5122   3.536   0.837   4.454
 1706TIP3   OH2 5123   0.457   2.044   4.777
 1706TIP3    H1 5124   0.446   2.020   4.868
 1706TIP3    H2 5125   0.450   1.962   4.729
 1707TIP3   OH2 5126   2.266   4.338   1.030
 1707TIP3    H1 5127   2.334   4.297   0.977
 1707TIP3    H2 5128   2.301   4.338   1.119
 1708TIP3   OH2 5129   0.605   0.415   2.835
 1708TIP3    H1 5130   0.695   0.392   2.810
 1708TIP3    H2 5131   0.612   0.506   2.866
 1709TIP3   OH2 5132   4.477   2.706   1.952
 1709TIP3    H1 5133   4.401   2.657   1.920
 1709TIP3    H2 5134   4.440   2.773   2.009
 1710TIP3   OH2 5135   1.436   1.861   1.785
 1710TIP3    H1 5136   1.382   1.783   1.789
 1710TIP3    H2 5137   1.524   1.829   1.765
 1711TIP3   OH2 5138   1.537   4.341   0.983
 1711TIP3    H1 5139   1.443   4.333   0.995
 1711TIP3    H2 5140   1.574   4.269   1.033
 1712TIP3   OH2 5141   2.808   3.337   1.496
 1712TIP3    H1 5142   2.802   3.283   1.574
 1712TIP3    H2 5143   2.717   3.348   1.467
 1713TIP3   OH2 5144   0.770   5.408   4.008
 1713TIP3    H1 5145   0.731   5.366   3.932
 1713TIP3    H2 5146   0.833   5.471   3.971
 1714TIP3   OH2 5147   1.734   5.540   4.073
 1714TIP3    H1 5148   1.747   5.598   4.149
 1714TIP3    H2 5149   1.723   5.453   4.111
 1715TIP3   OH2 5150   1.060   4.340   1.576
 1715TIP3    H1 5151   1.026   4.334   1.666
 1715TIP3    H2 5152   1.088   4.251   1.555
 1716TIP3   OH2 5153   2.393   0.365   2.200
 1716TIP3    H1 5154   2.373   0.333   2.288
 1716TIP3    H2 5155   2.403   0.286   2.147
 1717TIP3   OH2 5156   0.640   5.543   0.115
 1717TIP3    H1 5157   0.678   5.457   0.132
 1717TIP3    H2 5158   0.618   5.578   0.201
 1718TIP3   OH2 5159   2.930   1.638   1.339
 1718TIP3    H1 5160   2.978   1.701   1.285
 1718TIP3    H2 5161   2.998   1.591   1.387
 1719TIP3   OH2 5162   1.937   3.546   4.558
 1719TIP3    H1 5163   2.017   3.500   4.584
 1719TIP3    H2 5164   1.929   3.618   4.620
 1720TIP3   OH2 5165   0.455   0.211   1.921
 1720TIP3    H1 5166   0.493   0.272   1.985
 1720TIP3    H2 5167   0.430   0.266   1.847
 1721TIP3   OH2 5168   4.150   3.761   3.978
 1721TIP3    H1 5169   4.212   3.833   3.970
 1721TIP3    H2 5170   4.202   3.682   3.967
 1722TIP3   OH2 5171   3.254   0.140   0.167
 1722TIP3    H1 5172   3.193   0.205   0.205
 1722TIP3    H2 5173   3.197   0.076   0.126
 1723TIP3   OH2 5174   6.076   2.522   0.639
 1723TIP3    H1 5175   5.982   2.513   0.628
 1723TIP3    H2 5176   6.106   2.434   0.664
 1724TIP3   OH2 5177   2.710   2.716   3.018
 1724TIP3    H1 5178   2.725   2.678   2.931
 1724TIP3    H2 5179   2.666   2.648   3.068
 1725TIP3   OH2 5180   4.084   0.730   3.018
 1725TIP3    H1 5181   4.002   0.697   3.056
 1725TIP3    H2 5182   4.085   0.823   3.039
 1726TIP3   OH2 5183   5.804   2.457   0.395
 1726TIP3    H1 5184   5.740   2.402   0.349
 1726TIP3    H2 5185   5.761   2.480   0.477
 1727TIP3   OH2 5186   5.204   5.508   2.695
 1727TIP3    H1 5187   5.167   5.499   2.607
 1727TIP3    H2 5188   5.156   5.444   2.748
 1728TIP3   OH2 5189   3.609   3.132   3.392
 1728TIP3    H1 5190   3.614   3.063   3.458
 1728TIP3    H2 5191   3.516   3.154   3.387
 1729TIP3   OH2 5192   4.778   2.149   3.342
 1729TIP3    H1 5193   4.811   2.237   3.362
 1729TIP3    H2 5194   4.704   2.165   3.284
 1730TIP3   OH2 5195   1.399   5.587   0.796
 1730TIP3    H1 5196   1.399   5.492   0.811
 1730TIP3    H2 5197   1.312   5.615   0.826
 1731TIP3   OH2 5198   0.136   4.409   0.806
 1731TIP3    H1 5199   0.093   4.401   0.721
 1731TIP3    H2 5200   0.067   4.390   0.870
 1732TIP3   OH2 5201   0.505   4.966   0.518
 1732TIP3    H1 5202   0.469   4.881   0.495
 1732TIP3    H2 5203   0.589   4.970   0.473
 1733TIP3   OH2 5204   5.657   5.533   4.378
 1733TIP3    H1 5205   5.693   5.608   4.331
 1733TIP3    H2 5206   5.673   5.552   4.470
 1734TIP3   OH2 5207   1.678   3.177   3.985
 1734TIP3    H1 5208   1.604   3.213   3.937
 1734TIP3    H2 5209   1.665   3.206   4.075
 1735TIP3   OH2 5210   6.187   0.730   2.971
 1735TIP3    H1 5211   6.223   0.766   3.051
 1735TIP3    H2 5212   6.262   0.716   2.914
 1736TIP3   OH2 5213   1.904   3.064   1.182
 1736TIP3    H1 5214   1.886   3.007   1.108
 1736TIP3    H2 5215   1.894   3.007   1.259
 1737TIP3   OH2 5216   2.538   2.914   0.796
 1737TIP3    H1 5217   2.559   2.997   0.754
 1737TIP3    H2 5218   2.594   2.850   0.753
 1738TIP3   OH2 5219   4.538   2.129   0.249
 1738TIP3    H1 5220   4.567   2.038   0.250
 1738TIP3    H2 5221   4.520   2.150   0.341
 1739TIP3   OH2 5222   3.796  -0.035   3.975
 1739TIP3    H1 5223   3.739  -0.003   3.905
 1739TIP3    H2 5224   3.853   0.039   3.995
 1740TIP3   OH2 5225   4.033   2.431   0.114
 1740TIP3    H1 5226   4.026   2.386   0.198
 1740TIP3    H2 5227   4.116   2.399   0.077
 1741TIP3   OH2 5228   0.474   3.095   3.829
 1741TIP3    H1 5229   0.552   3.081   3.776
 1741TIP3    H2 5230   0.500   3.159   3.895
 1742TIP3   OH2 5231   1.252   0.327   5.192
 1742TIP3    H1 5232   1.163   0.348   5.164
 1742TIP3    H2 5233   1.257   0.232   5.187
 1743TIP3   OH2 5234   3.546   3.131   2.716
 1743TIP3    H1 5235   3.458   3.134   2.753
 1743TIP3    H2 5236   3.603   3.114   2.792
 1744TIP3   OH2 5237   5.824   2.703   2.533
 1744TIP3    H1 5238   5.760   2.711   2.604
 1744TIP3    H2 5239   5.793   2.631   2.480
 1745TIP3   OH2 5240   1.160  -0.013   4.883
 1745TIP3    H1 5241   1.098   0.047   4.924
 1745TIP3    H2 5242   1.210   0.042   4.822
 1746TIP3   OH2 5243   1.833   5.584   3.555
 1746TIP3    H1 5244   1.880   5.502   3.540
 1746TIP3    H2 5245   1.772   5.564   3.626
 1747TIP3   OH2 5246   1.099   1.493   1.283
 1747TIP3    H1 5247   1.124   1.409   1.320
 1747TIP3    H2 5248   1.043   1.471   1.209
 1748TIP3   OH2 5249   3.494   3.018   3.786
 1748TIP3    H1 5250   3.546   3.099   3.788
 1748TIP3    H2 5251   3.529   2.969   3.712
 1749TIP3   OH2 5252   3.281   3.415   3.894
 1749TIP3    H1 5253   3.343   3.352   3.930
 1749TIP3    H2 5254   3.294   3.411   3.800
 1750TIP3   OH2 5255   2.081   2.979   4.781
 1750TIP3    H1 5256   2.077   3.071   4.753
 1750TIP3    H2 5257   2.174   2.960   4.791
 1751TIP3   OH2 5258   5.064   1.565   0.173
 1751TIP3    H1 5259   5.045   1.472   0.177
 1751TIP3    H2 5260   5.037   1.592   0.086
 1752TIP3   OH2 5261   0.378   4.619   2.706
 1752TIP3    H1 5262   0.292   4.603   2.744
 1752TIP3    H2 5263   0.376   4.711   2.680
 1753TIP3   OH2 5264   1.342   1.932   0.152
 1753TIP3    H1 5265   1.248   1.915   0.144
 1753TIP3    H2 5266   1.380   1.891   0.075
 1754TIP3   OH2 5267   4.026   4.333   1.565
 1754TIP3    H1 5268   4.035   4.400   1.497
 1754TIP3    H2 5269   3.932   4.316   1.570
 1755TIP3   OH2 5270   2.365   1.507   4.476
 1755TIP3    H1 5271   2.404   1.458   4.403
 1755TIP3    H2 5272   2.274   1.479   4.477
 1756TIP3   OH2 5273   5.039   3.943   1.383
 1756TIP3    H1 5274   5.007   4.008   1.446
 1756TIP3    H2 5275   5.075   3.995   1.311
 1757TIP3   OH2 5276   3.814   0.232   3.177
 1757TIP3    H1 5277   3.906   0.227   3.201
 1757TIP3    H2 5278   3.814   0.251   3.083
 1758TIP3   OH2 5279   5.264   3.908   2.484
 1758TIP3    H1 5280   5.257   3.813   2.471
 1758TIP3    H2 5281   5.177   3.941   2.463
 1759TIP3   OH2 5282   0.737   3.767   3.816
 1759TIP3    H1 5283   0.713   3.676   3.834
 1759TIP3    H2 5284   0.675   3.819   3.869
 1760TIP3   OH2 5285   2.181   3.819   2.895
 1760TIP3    H1 5286   2.104   3.765   2.916
 1760TIP3    H2 5287   2.252   3.780   2.947
 1761TIP3   OH2 5288   5.098   0.928   2.838
 1761TIP3    H1 5289   5.115   0.834   2.831
 1761TIP3    H2 5290   5.002   0.935   2.838
 1762TIP3   OH2 5291   0.618   0.794   0.053
 1762TIP3    H1 5292   0.639   0.860  -0.012
 1762TIP3    H2 5293   0.649   0.711   0.015
 1763TIP3   OH2 5294   6.273   1.472   0.592
 1763TIP3    H1 5295   6.209   1.538   0.566
 1763TIP3    H2 5296   6.259   1.399   0.532
 1764TIP3   OH2 5297   1.124   2.700   0.678
 1764TIP3    H1 5298   1.201   2.658   0.718
 1764TIP3    H2 5299   1.148   2.711   0.586
 1765TIP3   OH2 5300   3.668   4.079   0.164
 1765TIP3    H1 5301   3.670   4.146   0.233
 1765TIP3    H2 5302   3.660   4.129   0.083
 1766TIP3   OH2 5303   0.798   5.434   1.417
 1766TIP3    H1 5304   0.715   5.457   1.375
 1766TIP3    H2 5305   0.865   5.473   1.360
 1767TIP3   OH2 5306   4.438   5.318   2.271
 1767TIP3    H1 5307   4.472   5.316   2.360
 1767TIP3    H2 5308   4.476   5.397   2.233
 1768TIP3   OH2 5309   4.279   4.974   3.941
 1768TIP3    H1 5310   4.270   4.902   4.004
 1768TIP3    H2 5311   4.355   5.023   3.971
 1769TIP3   OH2 5312   5.101   3.730   0.065
 1769TIP3    H1 5313   5.192   3.701   0.067
 1769TIP3    H2 5314   5.060   3.686   0.139
 1770TIP3   OH2 5315   5.807   3.282   4.634
 1770TIP3    H1 5316   5.778   3.340   4.704
 1770TIP3    H2 5317   5.842   3.340   4.567
 1771TIP3   OH2 5318   3.301   1.431   1.855
 1771TIP3    H1 5319   3.327   1.402   1.768
 1771TIP3    H2 5320   3.282   1.351   1.903
 1772TIP3   OH2 5321   4.180   3.474   2.483
 1772TIP3    H1 5322   4.268   3.513   2.486
 1772TIP3    H2 5323   4.127   3.541   2.440
 1773TIP3   OH2 5324   1.979   0.328   3.705
 1773TIP3    H1 5325   1.944   0.408   3.744
 1773TIP3    H2 5326   1.951   0.258   3.763
 1774TIP3   OH2 5327   6.195   2.550   1.288
 1774TIP3    H1 5328   6.141   2.543   1.367
 1774TIP3    H2 5329   6.136   2.586   1.222
 1775TIP3   OH2 5330   0.600   0.937   4.211
 1775TIP3    H1 5331   0.556   0.855   4.234
 1775TIP3    H2 5332   0.582   0.949   4.118
 1776TIP3   OH2 5333   1.865   2.315   5.032
 1776TIP3    H1 5334   1.795   2.258   4.998
 1776TIP3    H2 5335   1.873   2.383   4.966
 1777TIP3   OH2 5336   4.818   2.276   4.682
 1777TIP3    H1 5337   4.890   2.266   4.620
 1777TIP3    H2 5338   4.739   2.270   4.628
 1778TIP3   OH2 5339   1.859   4.836   3.155
 1778TIP3    H1 5340   1.935   4.794   3.114
 1778TIP3    H2 5341   1.877   4.829   3.249
 1779TIP3   OH2 5342   3.319   5.891   3.451
 1779TIP3    H1 5343   3.301   5.801   3.479
 1779TIP3    H2 5344   3.247   5.913   3.393
 1780TIP3   OH2 5345   4.828   0.043   0.946
 1780TIP3    H1 5346   4.748   0.095   0.950
 1780TIP3    H2 5347   4.894   0.104   0.914
 1781TIP3   OH2 5348   1.463   2.299   3.845
 1781TIP3    H1 5349   1.487   2.216   3.806
 1781TIP3    H2 5350   1.534   2.319   3.905
 1782TIP3   OH2 5351   2.596   3.200   3.869
 1782TIP3    H1 5352   2.658   3.229   3.802
 1782TIP3    H2 5353   2.627   3.241   3.950
 1783TIP3   OH2 5354   0.957   0.260   2.439
 1783TIP3    H1 5355   0.919   0.177   2.411
 1783TIP3    H2 5356   1.051   0.250   2.422
 1784TIP3   OH2 5357   0.088   2.941   2.764
 1784TIP3    H1 5358   0.183   2.926   2.765
 1784TIP3    H2 5359   0.075   3.010   2.830
 1785TIP3   OH2 5360   4.417   4.272   4.031
 1785TIP3    H1 5361   4.341   4.262   3.972
 1785TIP3    H2 5362   4.405   4.359   4.070
 1786TIP3   OH2 5363   2.892   2.807   1.230
 1786TIP3    H1 5364   2.964   2.856   1.269
 1786TIP3    H2 5365   2.882   2.843   1.142
 1787TIP3   OH2 5366   3.801   5.461   1.303
 1787TIP3    H1 5367   3.778   5.554   1.308
 1787TIP3    H2 5368   3.884   5.460   1.256
 1788TIP3   OH2 5369   4.456   0.018   0.995
 1788TIP3    H1 5370   4.444  -0.065   0.949
 1788TIP3    H2 5371   4.424   0.000   1.083
 1789TIP3   OH2 5372   4.433   3.107   2.219
 1789TIP3    H1 5373   4.387   3.052   2.155
 1789TIP3    H2 5374   4.465   3.046   2.285
 1790TIP3   OH2 5375   4.895   2.034   0.997
 1790TIP3    H1 5376   4.983   2.031   1.035
 1790TIP3    H2 5377   4.897   1.968   0.928
 1791TIP3   OH2 5378   3.141   4.859   2.534
 1791TIP3    H1 5379   3.167   4.951   2.542
 1791TIP3    H2 5380   3.072   4.848   2.600
 1792TIP3   OH2 5381   1.859   5.438   4.612
 1792TIP3    H1 5382   1.942   5.421   4.569
 1792TIP3    H2 5383   1.881   5.454   4.704
 1793TIP3   OH2 5384   6.406   2.049   3.993
 1793TIP3    H1 5385   6.382   2.032   3.902
 1793TIP3    H2 5386   6.330   2.021   4.044
 1794TIP3   OH2 5387   1.712   4.068   0.095
 1794TIP3    H1 5388   1.742   3.989   0.140
 1794TIP3    H2 5389   1.685   4.127   0.165
 1795TIP3   OH2 5390   6.058   2.907   0.795
 1795TIP3    H1 5391   6.095   2.857   0.722
 1795TIP3    H2 5392   6.096   2.994   0.785
 1796TIP3   OH2 5393   3.001   5.671   1.630
 1796TIP3    H1 5394   3.025   5.655   1.721
 1796TIP3    H2 5395   2.916   5.627   1.619
 1797TIP3   OH2 5396   1.819   1.873   0.812
 1797TIP3    H1 5397   1.787   1.788   0.784
 1797TIP3    H2 5398   1.826   1.867   0.908
 1798TIP3   OH2 5399   5.137   5.195   4.699
 1798TIP3    H1 5400   5.068   5.205   4.765
 1798TIP3    H2 5401   5.210   5.156   4.747
 1799TIP3   OH2 5402   5.856   4.994   3.640
 1799TIP3    H1 5403   5.893   5.059   3.581
 1799TIP3    H2 5404   5.929   4.934   3.659
 1800TIP3   OH2 5405   2.473   3.211   0.939
 1800TIP3    H1 5406   2.546   3.164   0.980
 1800TIP3    H2 5407   2.397   3.189   0.994
 1801TIP3   OH2 5408   3.227   0.556   4.572
 1801TIP3    H1 5409   3.165   0.499   4.616
 1801TIP3    H2 5410   3.287   0.496   4.528
 1802TIP3   OH2 5411   1.678   1.938   1.290
 1802TIP3    H1 5412   1.657   1.867   1.351
 1802TIP3    H2 5413   1.594   1.962   1.251
 1803TIP3   OH2 5414   2.306   2.248   0.840
 1803TIP3    H1 5415   2.282   2.314   0.905
 1803TIP3    H2 5416   2.226   2.235   0.788
 1804TIP3   OH2 5417   4.605   4.224   0.073
 1804TIP3    H1 5418   4.550   4.211   0.150
 1804TIP3    H2 5419   4.688   4.180   0.094
 1805TIP3   OH2 5420   6.197   3.540   4.640
 1805TIP3    H1 5421   6.156   3.500   4.718
 1805TIP3    H2 5422   6.290   3.520   4.650
 1806TIP3   OH2 5423   4.905   4.014   3.086
 1806TIP3    H1 5424   4.923   4.004   2.992
 1806TIP3    H2 5425   4.838   4.083   3.090
 1807TIP3   OH2 5426   1.462   4.891   2.931
 1807TIP3    H1 5427   1.431   4.805   2.904
 1807TIP3    H2 5428   1.473   4.939   2.848
 1808TIP3   OH2 5429   3.429   5.929   2.784
 1808TIP3    H1 5430   3.412   5.884   2.867
 1808TIP3    H2 5431   3.447   6.020   2.809
 1809TIP3   OH2 5432   4.105   2.069   2.866
 1809TIP3    H1 5433   4.086   2.124   2.943
 1809TIP3    H2 5434   4.147   1.991   2.903
 1810TIP3   OH2 5435   5.554   2.744   0.955
 1810TIP3    H1 5436   5.613   2.792   0.896
 1810TIP3    H2 5437   5.475   2.729   0.903
 1811TIP3   OH2 5438   6.095   5.803   0.747
 1811TIP3    H1 5439   6.108   5.723   0.695
 1811TIP3    H2 5440   6.179   5.818   0.789
 1812TIP3   OH2 5441   1.117   0.742   1.368
 1812TIP3    H1 5442   1.021   0.744   1.370
 1812TIP3    H2 5443   1.138   0.661   1.321
 1813TIP3   OH2 5444   4.590   1.118   0.955
 1813TIP3    H1 5445   4.577   1.050   0.889
 1813TIP3    H2 5446   4.502   1.152   0.971
 1814TIP3   OH2 5447   3.188   2.581   1.308
 1814TIP3    H1 5448   3.214   2.511   1.368
 1814TIP3    H2 5449   3.104   2.552   1.272
 1815TIP3   OH2 5450   4.951   3.641   4.024
 1815TIP3    H1 5451   4.872   3.595   4.051
 1815TIP3    H2 5452   5.010   3.635   4.099
 1816TIP3   OH2 5453   0.669   4.173   1.954
 1816TIP3    H1 5454   0.604   4.187   1.885
 1816TIP3    H2 5455   0.618   4.171   2.035
 1817TIP3   OH2 5456   4.675   2.652   2.515
 1817TIP3    H1 5457   4.740   2.708   2.557
 1817TIP3    H2 5458   4.727   2.585   2.469
 1818TIP3   OH2 5459   5.106   1.375   2.700
 1818TIP3    H1 5460   5.178   1.404   2.643
 1818TIP3    H2 5461   5.141   1.302   2.749
 1819TIP3   OH2 5462   0.696   4.740   1.658
 1819TIP3    H1 5463   0.668   4.831   1.666
 1819TIP3    H2 5464   0.791   4.744   1.651
 1820TIP3   OH2 5465   2.290   4.751   0.208
 1820TIP3    H1 5466   2.207   4.740   0.255
 1820TIP3    H2 5467   2.282   4.834   0.163
 1821TIP3   OH2 5468   3.871   0.578   5.110
 1821TIP3    H1 5469   3.889   0.604   5.020
 1821TIP3    H2 5470   3.841   0.488   5.104
 1822TIP3   OH2 5471   6.099   0.082   4.969
 1822TIP3    H1 5472   6.079   0.125   5.052
 1822TIP3    H2 5473   6.188   0.111   4.948
 1823TIP3   OH2 5474   3.201   3.959   5.182
 1823TIP3    H1 5475   3.143   3.900   5.134
 1823TIP3    H2 5476   3.274   3.975   5.123
 1824TIP3   OH2 5477   4.049   3.217   4.773
 1824TIP3    H1 5478   4.127   3.166   4.795
 1824TIP3    H2 5479   3.976   3.169   4.813
 1825TIP3   OH2 5480   1.439   4.813   1.676
 1825TIP3    H1 5481   1.383   4.867   1.619
 1825TIP3    H2 5482   1.464   4.872   1.747
 1826TIP3   OH2 5483   0.173   4.877   0.461
 1826TIP3    H1 5484   0.242   4.811   0.463
 1826TIP3    H2 5485   0.209   4.949   0.409
 1827TIP3   OH2 5486   2.288   2.929   4.366
 1827TIP3    H1 5487   2.194   2.914   4.375
 1827TIP3    H2 5488   2.323   2.845   4.339
 1828TIP3   OH2 5489   5.790   0.095   4.153
 1828TIP3    H1 5490   5.782   0.002   4.135
 1828TIP3    H2 5491   5.883   0.108   4.173
 1829TIP3   OH2 5492   0.254   4.456   0.154
 1829TIP3    H1 5493   0.279   4.547   0.172
 1829TIP3    H2 5494   0.162   4.461   0.127
 1830TIP3   OH2 5495   4.333   1.488   4.001
 1830TIP3    H1 5496   4.241   1.480   3.977
 1830TIP3    H2 5497   4.332   1.537   4.083
 1831TIP3   OH2 5498   3.240   3.619   1.120
 1831TIP3    H1 5499   3.242   3.714   1.131
 1831TIP3    H2 5500   3.247   3.607   1.025
 1832TIP3   OH2 5501   3.500   1.492   0.303
 1832TIP3    H1 5502   3.556   1.415   0.315
 1832TIP3    H2 5503   3.506   1.512   0.210
 1833TIP3   OH2 5504   1.770   0.148   2.651
 1833TIP3    H1 5505   1.705   0.173   2.585
 1833TIP3    H2 5506   1.736   0.184   2.733
 1834TIP3   OH2 5507   2.454   3.035   1.527
 1834TIP3    H1 5508   2.388   2.966   1.518
 1834TIP3    H2 5509   2.426   3.084   1.604
 1835TIP3   OH2 5510   1.807   1.596   0.761
 1835TIP3    H1 5511   1.818   1.628   0.671
 1835TIP3    H2 5512   1.746   1.523   0.753
 1836TIP3   OH2 5513   5.285   3.975   4.647
 1836TIP3    H1 5514   5.254   4.037   4.580
 1836TIP3    H2 5515   5.327   3.905   4.597
 1837TIP3   OH2 5516   0.740   0.831   3.975
 1837TIP3    H1 5517   0.756   0.915   4.017
 1837TIP3    H2 5518   0.675   0.850   3.907
 1838TIP3   OH2 5519   1.276   2.852   1.975
 1838TIP3    H1 5520   1.316   2.767   1.954
 1838TIP3    H2 5521   1.234   2.837   2.060
 1839TIP3   OH2 5522   0.548   1.101   0.471
 1839TIP3    H1 5523   0.486   1.168   0.500
 1839TIP3    H2 5524   0.633   1.144   0.475
 1840TIP3   OH2 5525   4.291   2.968   1.132
 1840TIP3    H1 5526   4.304   3.062   1.123
 1840TIP3    H2 5527   4.235   2.958   1.209
 1841TIP3   OH2 5528   0.051   0.204   0.266
 1841TIP3    H1 5529   0.070   0.270   0.333
 1841TIP3    H2 5530   0.135   0.165   0.246
 1842TIP3   OH2 5531   4.608   4.841   4.000
 1842TIP3    H1 5532   4.572   4.794   3.925
 1842TIP3    H2 5533   4.546   4.824   4.071
 1843TIP3   OH2 5534   2.518   5.473   3.529
 1843TIP3    H1 5535   2.468   5.534   3.476
 1843TIP3    H2 5536   2.452   5.421   3.574
 1844TIP3   OH2 5537   3.577   5.352   2.148
 1844TIP3    H1 5538   3.593   5.274   2.201
 1844TIP3    H2 5539   3.664   5.391   2.137
 1845TIP3   OH2 5540   1.330   4.867   3.548
 1845TIP3    H1 5541   1.264   4.841   3.612
 1845TIP3    H2 5542   1.409   4.819   3.573
 1846TIP3   OH2 5543   2.892   4.286   4.523
 1846TIP3    H1 5544   2.855   4.353   4.580
 1846TIP3    H2 5545   2.982   4.315   4.507
 1847TIP3   OH2 5546   1.557   0.040   3.474
 1847TIP3    H1 5547   1.583   0.083   3.393
 1847TIP3    H2 5548   1.574  -0.052   3.459
 1848TIP3   OH2 5549   4.877   4.879   1.562
 1848TIP3    H1 5550   4.817   4.938   1.609
 1848TIP3    H2 5551   4.822   4.805   1.536
 1849TIP3   OH2 5552   5.652   1.534   5.203
 1849TIP3    H1 5553   5.607   1.592   5.141
 1849TIP3    H2 5554   5.679   1.593   5.274
 1850TIP3   OH2 5555   3.078   2.811   4.410
 1850TIP3    H1 5556   3.096   2.896   4.450
 1850TIP3    H2 5557   3.075   2.829   4.316
 1851TIP3   OH2 5558   4.831   0.629   0.269
 1851TIP3    H1 5559   4.754   0.636   0.326
 1851TIP3    H2 5560   4.905   0.641   0.328
 1852TIP3   OH2 5561   0.441   2.149   2.187
 1852TIP3    H1 5562   0.370   2.112   2.134
 1852TIP3    H2 5563   0.398   2.215   2.242
 1853TIP3   OH2 5564   0.463   2.796   2.237
 1853TIP3    H1 5565   0.532   2.793   2.172
 1853TIP3    H2 5566   0.382   2.782   2.188
 1854TIP3   OH2 5567   5.632   1.508   2.334
 1854TIP3    H1 5568   5.719   1.520   2.371
 1854TIP3    H2 5569   5.633   1.554   2.251
 1855TIP3   OH2 5570   5.832   5.876   1.581
 1855TIP3    H1 5571   5.824   5.786   1.614
 1855TIP3    H2 5572   5.855   5.928   1.658
 1856TIP3   OH2 5573   0.244   0.707   2.401
 1856TIP3    H1 5574   0.205   0.746   2.479
 1856TIP3    H2 5575   0.322   0.661   2.433
 1857TIP3   OH2 5576   0.595   3.170   4.645
 1857TIP3    H1 5577   0.545   3.230   4.700
 1857TIP3    H2 5578   0.683   3.208   4.640
 1858TIP3   OH2 5579   4.186   5.276   2.164
 1858TIP3    H1 5580   4.279   5.286   2.188
 1858TIP3    H2 5581   4.160   5.194   2.206
 1859TIP3   OH2 5582   2.568   3.350   4.826
 1859TIP3    H1 5583   2.632   3.287   4.795
 1859TIP3    H2 5584   2.509   3.299   4.882
 1860TIP3   OH2 5585   1.378   2.330   2.013
 1860TIP3    H1 5586   1.298   2.383   2.016
 1860TIP3    H2 5587   1.447   2.389   2.045
 1861TIP3   OH2 5588   4.798   3.841   2.341
 1861TIP3    H1 5589   4.795   3.857   2.247
 1861TIP3    H2 5590   4.797   3.745   2.349
 1862TIP3   OH2 5591   4.320   5.501   2.576
 1862TIP3    H1 5592   4.278   5.571   2.625
 1862TIP3    H2 5593   4.248   5.449   2.541
 1863TIP3   OH2 5594   2.478   2.496   5.107
 1863TIP3    H1 5595   2.508   2.470   5.020
 1863TIP3    H2 5596   2.483   2.415   5.159
 1864TIP3   OH2 5597   2.907   4.489   0.429
 1864TIP3    H1 5598   2.967   4.424   0.466
 1864TIP3    H2 5599   2.963   4.544   0.375
 1865TIP3   OH2 5600   5.962   3.509   3.700
 1865TIP3    H1 5601   5.892   3.479   3.641
 1865TIP3    H2 5602   5.951   3.604   3.702
 1866TIP3   OH2 5603   3.581   4.214   0.946
 1866TIP3    H1 5604   3.543   4.268   1.015
 1866TIP3    H2 5605   3.649   4.162   0.991
 1867TIP3   OH2 5606   3.537   5.282   1.109
 1867TIP3    H1 5607   3.612   5.318   1.061
 1867TIP3    H2 5608   3.549   5.187   1.104
 1868TIP3   OH2 5609   5.748   4.291   0.278
 1868TIP3    H1 5610   5.684   4.339   0.224
 1868TIP3    H2 5611   5.805   4.249   0.214
 1869TIP3   OH2 5612   4.676   5.331   4.048
 1869TIP3    H1 5613   4.630   5.411   4.075
 1869TIP3    H2 5614   4.767   5.347   4.071
 1870TIP3   OH2 5615   4.158   4.208   1.206
 1870TIP3    H1 5616   4.225   4.214   1.274
 1870TIP3    H2 5617   4.076   4.196   1.254
 1871TIP3   OH2 5618   5.833   4.447   1.849
 1871TIP3    H1 5619   5.773   4.522   1.858
 1871TIP3    H2 5620   5.915   4.485   1.818
 1872TIP3   OH2 5621   0.218   3.161   4.003
 1872TIP3    H1 5622   0.312   3.148   4.012
 1872TIP3    H2 5623   0.183   3.147   4.091
 1873TIP3   OH2 5624   3.704   2.265   0.737
 1873TIP3    H1 5625   3.704   2.251   0.831
 1873TIP3    H2 5626   3.778   2.325   0.722
 1874TIP3   OH2 5627   5.034   2.465   0.479
 1874TIP3    H1 5628   5.060   2.495   0.566
 1874TIP3    H2 5629   4.952   2.511   0.461
 1875TIP3   OH2 5630   5.961   0.444   4.953
 1875TIP3    H1 5631   6.028   0.419   5.016
 1875TIP3    H2 5632   5.886   0.388   4.975
 1876TIP3   OH2 5633   3.972   2.554   2.655
 1876TIP3    H1 5634   3.973   2.502   2.575
 1876TIP3    H2 5635   3.889   2.602   2.652
 1877TIP3   OH2 5636   5.297   4.405   2.018
 1877TIP3    H1 5637   5.284   4.496   2.044
 1877TIP3    H2 5638   5.278   4.404   1.924
 1878TIP3   OH2 5639   0.942   3.526   4.018
 1878TIP3    H1 5640   0.889   3.494   4.091
 1878TIP3    H2 5641   0.923   3.620   4.014
 1879TIP3   OH2 5642   2.608   3.525   4.622
 1879TIP3    H1 5643   2.616   3.456   4.688
 1879TIP3    H2 5644   2.536   3.580   4.654
 1880TIP3   OH2 5645   1.406   1.094   4.768
 1880TIP3    H1 5646   1.407   1.118   4.676
 1880TIP3    H2 5647   1.346   1.019   4.773
 1881TIP3   OH2 5648   2.057   0.220   1.826
 1881TIP3    H1 5649   1.971   0.262   1.821
 1881TIP3    H2 5650   2.047   0.154   1.894
 1882TIP3   OH2 5651   5.190   5.896   4.100
 1882TIP3    H1 5652   5.174   5.924   4.190
 1882TIP3    H2 5653   5.138   5.816   4.091
 1883TIP3   OH2 5654   0.442   1.438   1.664
 1883TIP3    H1 5655   0.394   1.355   1.665
 1883TIP3    H2 5656   0.376   1.505   1.649
 1884TIP3   OH2 5657   3.123   3.616   1.915
 1884TIP3    H1 5658   3.047   3.631   1.970
 1884TIP3    H2 5659   3.112   3.527   1.881
 1885TIP3   OH2 5660   2.821   4.035   4.648
 1885TIP3    H1 5661   2.903   3.992   4.673
 1885TIP3    H2 5662   2.848   4.119   4.612
 1886TIP3   OH2 5663   2.098   2.699   2.600
 1886TIP3    H1 5664   2.058   2.785   2.586
 1886TIP3    H2 5665   2.047   2.660   2.671
 1887TIP3   OH2 5666   4.469   2.759   0.606
 1887TIP3    H1 5667   4.547   2.813   0.602
 1887TIP3    H2 5668   4.445   2.757   0.699
 1888TIP3   OH2 5669   0.008   4.083   3.823
 1888TIP3    H1 5670   0.013   4.107   3.916
 1888TIP3    H2 5671   0.096   4.100   3.790
 1889TIP3   OH2 5672   3.889   3.956   0.421
 1889TIP3    H1 5673   3.945   3.958   0.498
 1889TIP3    H2 5674   3.908   4.039   0.376
 1890TIP3   OH2 5675   2.397   5.074   4.564
 1890TIP3    H1 5676   2.422   5.004   4.625
 1890TIP3    H2 5677   2.309   5.099   4.592
 1891TIP3   OH2 5678   1.065   5.507   4.557
 1891TIP3    H1 5679   1.158   5.499   4.540
 1891TIP3    H2 5680   1.059   5.517   4.652
 1892TIP3   OH2 5681   4.834   1.519   4.499
 1892TIP3    H1 5682   4.863   1.610   4.489
 1892TIP3    H2 5683   4.882   1.486   4.575
 1893TIP3   OH2 5684   3.016   5.308   0.464
 1893TIP3    H1 5685   3.054   5.395   0.467
 1893TIP3    H2 5686   3.088   5.251   0.437
 1894TIP3   OH2 5687   0.629   0.020   3.159
 1894TIP3    H1 5688   0.684   0.046   3.232
 1894TIP3    H2 5689   0.677   0.049   3.081
 1895TIP3   OH2 5690   1.109   5.661   4.069
 1895TIP3    H1 5691   1.200   5.689   4.074
 1895TIP3    H2 5692   1.106   5.580   4.120
 1896TIP3   OH2 5693   1.812   1.817   1.093
 1896TIP3    H1 5694   1.768   1.873   1.156
 1896TIP3    H2 5695   1.742   1.764   1.054
 1897TIP3   OH2 5696   3.325   3.596   4.821
 1897TIP3    H1 5697   3.340   3.690   4.830
 1897TIP3    H2 5698   3.271   3.587   4.742
 1898TIP3   OH2 5699   4.004   0.314   4.972
 1898TIP3    H1 5700   4.029   0.357   4.890
 1898TIP3    H2 5701   3.909   0.314   4.971
 1899TIP3   OH2 5702   4.214   4.180   3.042
 1899TIP3    H1 5703   4.222   4.225   3.126
 1899TIP3    H2 5704   4.241   4.245   2.977
 1900TIP3   OH2 5705   5.655   1.894   4.784
 1900TIP3    H1 5706   5.664   1.897   4.688
 1900TIP3    H2 5707   5.623   1.981   4.808
 1901TIP3   OH2 5708   1.662   0.055   0.716
 1901TIP3    H1 5709   1.685   0.143   0.746
 1901TIP3    H2 5710   1.747   0.011   0.706
 1902TIP3   OH2 5711   1.666   0.114   5.126
 1902TIP3    H1 5712   1.736   0.176   5.147
 1902TIP3    H2 5713   1.645   0.132   5.034
 1903TIP3   OH2 5714   1.623   5.966   0.078
 1903TIP3    H1 5715   1.686   6.038   0.080
 1903TIP3    H2 5716   1.550   5.997   0.133
 1904TIP3   OH2 5717   1.138   1.893   1.199
 1904TIP3    H1 5718   1.085   1.885   1.120
 1904TIP3    H2 5719   1.093   1.960   1.251
 1905TIP3   OH2 5720   1.342   3.266   4.103
 1905TIP3    H1 5721   1.435   3.269   4.125
 1905TIP3    H2 5722   1.304   3.210   4.171
 1906TIP3   OH2 5723   4.165   5.508   0.381
 1906TIP3    H1 5724   4.232   5.566   0.418
 1906TIP3    H2 5725   4.106   5.491   0.454
 1907TIP3   OH2 5726   0.196   3.549   4.886
 1907TIP3    H1 5727   0.162   3.461   4.870
 1907TIP3    H2 5728   0.183   3.563   4.980
 1908TIP3   OH2 5729   4.530   2.499   2.170
 1908TIP3    H1 5730   4.618   2.532   2.186
 1908TIP3    H2 5731   4.525   2.490   2.074
 1909TIP3   OH2 5732   3.129   0.276   2.908
 1909TIP3    H1 5733   3.212   0.319   2.925
 1909TIP3    H2 5734   3.068   0.316   2.969
 1910TIP3   OH2 5735   5.718   2.116   1.116
 1910TIP3    H1 5736   5.691   2.194   1.068
 1910TIP3    H2 5737   5.730   2.049   1.049
 1911TIP3   OH2 5738   0.463   3.929   1.063
 1911TIP3    H1 5739   0.502   3.992   1.123
 1911TIP3    H2 5740   0.490   3.959   0.976
 1912TIP3   OH2 5741   5.956   0.810   3.505
 1912TIP3    H1 5742   5.903   0.740   3.541
 1912TIP3    H2 5743   5.952   0.797   3.410
 1913TIP3   OH2 5744   5.788   0.855   1.025
 1913TIP3    H1 5745   5.695   0.869   1.044
 1913TIP3    H2 5746   5.805   0.910   0.949
 1914TIP3   OH2 5747   3.888   5.592   4.167
 1914TIP3    H1 5748   3.846   5.525   4.222
 1914TIP3    H2 5749   3.952   5.543   4.115
 1915TIP3   OH2 5750   4.120   5.655   3.200
 1915TIP3    H1 5751   4.103   5.737   3.154
 1915TIP3    H2 5752   4.205   5.668   3.243
 1916TIP3   OH2 5753   4.940   1.792   4.504
 1916TIP3    H1 5754   4.987   1.839   4.573
 1916TIP3    H2 5755   5.008   1.768   4.441
 1917TIP3   OH2 5756   5.716   0.859   5.070
 1917TIP3    H1 5757   5.689   0.889   5.156
 1917TIP3    H2 5758   5.694   0.766   5.069
 1918TIP3   OH2 5759   5.223   1.441   4.436
 1918TIP3    H1 5760   5.190   1.391   4.510
 1918TIP3    H2 5761   5.265   1.376   4.380
 1919TIP3   OH2 5762   3.633   2.899   3.577
 1919TIP3    H1 5763   3.632   2.854   3.493
 1919TIP3    H2 5764   3.721   2.882   3.612
 1920TIP3   OH2 5765   0.847   2.636   1.026
 1920TIP3    H1 5766   0.941   2.643   1.037
 1920TIP3    H2 5767   0.835   2.609   0.935
 1921TIP3   OH2 5768   1.928   3.905   3.834
 1921TIP3    H1 5769   2.013   3.946   3.846
 1921TIP3    H2 5770   1.906   3.922   3.743
 1922TIP3   OH2 5771   3.209   3.227   0.785
 1922TIP3    H1 5772   3.260   3.203   0.708
 1922TIP3    H2 5773   3.123   3.253   0.750
 1923TIP3   OH2 5774   3.144   3.842   2.843
 1923TIP3    H1 5775   3.072   3.900   2.865
 1923TIP3    H2 5776   3.154   3.852   2.748
 1924TIP3   OH2 5777   3.791   5.029   0.848
 1924TIP3    H1 5778   3.720   5.015   0.911
 1924TIP3    H2 5779   3.870   5.032   0.901
 1925TIP3   OH2 5780   2.540   2.086   0.869
 1925TIP3    H1 5781   2.469   2.145   0.843
 1925TIP3    H2 5782   2.549   2.099   0.963
 1926TIP3   OH2 5783   1.846   4.589   3.421
 1926TIP3    H1 5784   1.883   4.567   3.335
 1926TIP3    H2 5785   1.894   4.667   3.448
 1927TIP3   OH2 5786   3.379   3.809   0.398
 1927TIP3    H1 5787   3.288   3.823   0.375
 1927TIP3    H2 5788   3.428   3.826   0.317
 1928TIP3   OH2 5789   0.799   3.593   2.017
 1928TIP3    H1 5790   0.759   3.680   2.017
 1928TIP3    H2 5791   0.886   3.607   2.054
 1929TIP3   OH2 5792   1.934   1.249   0.763
 1929TIP3    H1 5793   1.977   1.209   0.839
 1929TIP3    H2 5794   1.930   1.179   0.698
 1930TIP3   OH2 5795   1.263   0.851   4.704
 1930TIP3    H1 5796   1.224   0.837   4.790
 1930TIP3    H2 5797   1.194   0.827   4.642
 1931TIP3   OH2 5798   4.045   1.634   3.470
 1931TIP3    H1 5799   4.092   1.714   3.448
 1931TIP3    H2 5800   4.079   1.609   3.556
 1932TIP3   OH2 5801   4.088   1.379   3.007
 1932TIP3    H1 5802   4.008   1.430   3.009
 1932TIP3    H2 5803   4.080   1.319   3.082
 1933TIP3   OH2 5804   5.392   4.307   2.824
 1933TIP3    H1 5805   5.452   4.304   2.899
 1933TIP3    H2 5806   5.442   4.350   2.755
 1934TIP3   OH2 5807   2.655   0.773   3.948
 1934TIP3    H1 5808   2.583   0.795   3.889
 1934TIP3    H2 5809   2.708   0.852   3.952
 1935TIP3   OH2 5810   2.717   1.268   3.734
 1935TIP3    H1 5811   2.642   1.215   3.706
 1935TIP3    H2 5812   2.698   1.288   3.826
 1936TIP3   OH2 5813   0.171   1.417   0.195
 1936TIP3    H1 5814   0.124   1.354   0.139
 1936TIP3    H2 5815   0.185   1.370   0.277
 1937TIP3   OH2 5816   0.891   4.497   1.120
 1937TIP3    H1 5817   0.798   4.476   1.122
 1937TIP3    H2 5818   0.916   4.506   1.212
 1938TIP3   OH2 5819   0.537   4.498   4.306
 1938TIP3    H1 5820   0.541   4.442   4.384
 1938TIP3    H2 5821   0.608   4.560   4.317
 1939TIP3   OH2 5822   2.906   2.758   2.744
 1939TIP3    H1 5823   2.931   2.796   2.660
 1939TIP3    H2 5824   2.989   2.728   2.781
 1940TIP3   OH2 5825   0.107   1.299   3.559
 1940TIP3    H1 5826   0.072   1.278   3.645
 1940TIP3    H2 5827   0.200   1.315   3.574
 1941TIP3   OH2 5828   5.889   1.501   1.191
 1941TIP3    H1 5829   5.882   1.583   1.239
 1941TIP3    H2 5830   5.824   1.509   1.121
 1942TIP3   OH2 5831   5.524   1.151   3.734
 1942TIP3    H1 5832   5.601   1.158   3.678
 1942TIP3    H2 5833   5.517   1.236   3.777
 1943TIP3   OH2 5834   0.808   0.315   1.034
 1943TIP3    H1 5835   0.751   0.245   1.063
 1943TIP3    H2 5836   0.887   0.270   1.003
 1944TIP3   OH2 5837   0.993   4.258   3.525
 1944TIP3    H1 5838   1.002   4.165   3.505
 1944TIP3    H2 5839   0.993   4.302   3.440
 1945TIP3   OH2 5840   1.113   5.847   1.883
 1945TIP3    H1 5841   1.083   5.764   1.919
 1945TIP3    H2 5842   1.042   5.908   1.903
 1946TIP3   OH2 5843   3.214   4.081   4.005
 1946TIP3    H1 5844   3.145   4.063   4.069
 1946TIP3    H2 5845   3.292   4.100   4.057
 1947TIP3   OH2 5846   1.728   2.486   1.087
 1947TIP3    H1 5847   1.799   2.525   1.036
 1947TIP3    H2 5848   1.729   2.393   1.065
 1948TIP3   OH2 5849   6.126   3.427   3.893
 1948TIP3    H1 5850   6.207   3.468   3.862
 1948TIP3    H2 5851   6.062   3.444   3.823
 1949TIP3   OH2 5852   5.677   2.295   0.174
 1949TIP3    H1 5853   5.674   2.390   0.163
 1949TIP3    H2 5854   5.600   2.264   0.127
 1950TIP3   OH2 5855   5.990   5.398   4.428
 1950TIP3    H1 5856   5.916   5.403   4.489
 1950TIP3    H2 5857   5.949   5.382   4.343
 1951TIP3   OH2 5858   4.484   0.053   3.377
 1951TIP3    H1 5859   4.407   0.008   3.410
 1951TIP3    H2 5860   4.522   0.095   3.454
 1952TIP3   OH2 5861   4.147   5.388   1.481
 1952TIP3    H1 5862   4.230   5.432   1.499
 1952TIP3    H2 5863   4.081   5.458   1.483
 1953TIP3   OH2 5864   6.194   4.871   4.793
 1953TIP3    H1 5865   6.254   4.861   4.718
 1953TIP3    H2 5866   6.216   4.956   4.830
 1954TIP3   OH2 5867   2.907   0.418   1.605
 1954TIP3    H1 5868   2.981   0.377   1.650
 1954TIP3    H2 5869   2.855   0.457   1.675
 1955TIP3   OH2 5870   5.800   5.362   0.255
 1955TIP3    H1 5871   5.728   5.325   0.202
 1955TIP3    H2 5872   5.806   5.453   0.226
 1956TIP3   OH2 5873   2.088   2.460   2.015
 1956TIP3    H1 5874   2.172   2.450   2.060
 1956TIP3    H2 5875   2.112   2.475   1.924
 1957TIP3   OH2 5876   0.313   1.261   1.966
 1957TIP3    H1 5877   0.388   1.202   1.977
 1957TIP3    H2 5878   0.250   1.211   1.914
 1958TIP3   OH2 5879   0.780   5.210   5.009
 1958TIP3    H1 5880   0.798   5.175   4.922
 1958TIP3    H2 5881   0.731   5.290   4.993
 1959TIP3   OH2 5882   3.837   3.598   5.093
 1959TIP3    H1 5883   3.776   3.640   5.154
 1959TIP3    H2 5884   3.782   3.540   5.040
 1960TIP3   OH2 5885   3.309   5.842   1.245
 1960TIP3    H1 5886   3.245   5.791   1.195
 1960TIP3    H2 5887   3.294   5.816   1.336
 1961TIP3   OH2 5888   1.689   5.469   3.783
 1961TIP3    H1 5889   1.598   5.491   3.765
 1961TIP3    H2 5890   1.715   5.529   3.852
 1962TIP3   OH2 5891   6.000   0.353   0.905
 1962TIP3    H1 5892   5.999   0.310   0.990
 1962TIP3    H2 5893   5.945   0.431   0.917
 1963TIP3   OH2 5894   5.786   0.655   2.531
 1963TIP3    H1 5895   5.697   0.637   2.500
 1963TIP3    H2 5896   5.792   0.605   2.613
 1964TIP3   OH2 5897   1.979   0.630   2.015
 1964TIP3    H1 5898   1.951   0.620   2.106
 1964TIP3    H2 5899   1.900   0.612   1.963
 1965TIP3   OH2 5900   4.844   2.909   2.724
 1965TIP3    H1 5901   4.805   2.961   2.793
 1965TIP3    H2 5902   4.923   2.871   2.764
 1966TIP3   OH2 5903   0.203   3.943   3.501
 1966TIP3    H1 5904   0.164   3.879   3.561
 1966TIP3    H2 5905   0.194   3.903   3.415
 1967TIP3   OH2 5906   5.589   3.829   3.112
 1967TIP3    H1 5907   5.630   3.860   3.032
 1967TIP3    H2 5908   5.523   3.895   3.133
 1968TIP3   OH2 5909   2.643   5.041   5.056
 1968TIP3    H1 5910   2.617   5.113   5.114
 1968TIP3    H2 5911   2.686   5.085   4.982
 1969TIP3   OH2 5912   0.426   0.083   3.556
 1969TIP3    H1 5913   0.419   0.114   3.466
 1969TIP3    H2 5914   0.520   0.074   3.571
 1970TIP3   OH2 5915   0.780   1.626   1.270
 1970TIP3    H1 5916   0.784   1.573   1.349
 1970TIP3    H2 5917   0.846   1.588   1.211
 1971TIP3   OH2 5918   4.927   2.750   1.862
 1971TIP3    H1 5919   4.831   2.750   1.868
 1971TIP3    H2 5920   4.956   2.707   1.943
 1972TIP3   OH2 5921   0.639   4.312   2.406
 1972TIP3    H1 5922   0.638   4.396   2.360
 1972TIP3    H2 5923   0.570   4.319   2.471
 1973TIP3   OH2 5924   5.191   1.956   5.014
 1973TIP3    H1 5925   5.250   1.926   4.945
 1973TIP3    H2 5926   5.247   2.009   5.071
 1974TIP3   OH2 5927   5.238   5.017   5.049
 1974TIP3    H1 5928   5.163   5.057   5.094
 1974TIP3    H2 5929   5.199   4.972   4.974
 1975TIP3   OH2 5930   3.655   0.240   0.261
 1975TIP3    H1 5931   3.663   0.335   0.266
 1975TIP3    H2 5932   3.586   0.225   0.196
 1976TIP3   OH2 5933   4.067   5.386   3.261
 1976TIP3    H1 5934   4.070   5.478   3.233
 1976TIP3    H2 5935   4.084   5.390   3.355
 1977TIP3   OH2 5936   2.992   3.156   4.830
 1977TIP3    H1 5937   2.912   3.203   4.807
 1977TIP3    H2 5938   3.063   3.216   4.808
 1978TIP3   OH2 5939   4.549   0.563   2.873
 1978TIP3    H1 5940   4.473   0.620   2.859
 1978TIP3    H2 5941   4.604   0.612   2.935
 1979TIP3   OH2 5942   1.067   4.626   0.940
 1979TIP3    H1 5943   1.017   4.580   1.008
 1979TIP3    H2 5944   1.006   4.634   0.866
 1980TIP3   OH2 5945   2.794   2.175   2.200
 1980TIP3    H1 5946   2.835   2.225   2.270
 1980TIP3    H2 5947   2.801   2.231   2.122
 1981TIP3   OH2 5948   4.148   1.441   0.054
 1981TIP3    H1 5949   4.186   1.523   0.023
 1981TIP3    H2 5950   4.134   1.455   0.148
 1982TIP3   OH2 5951   2.819   5.846   3.176
 1982TIP3    H1 5952   2.808   5.886   3.090
 1982TIP3    H2 5953   2.730   5.824   3.204
 1983TIP3   OH2 5954   2.978   1.983   0.134
 1983TIP3    H1 5955   3.014   2.072   0.127
 1983TIP3    H2 5956   2.914   1.978   0.063
 1984TIP3   OH2 5957   4.218   2.185   1.232
 1984TIP3    H1 5958   4.147   2.177   1.169
 1984TIP3    H2 5959   4.294   2.209   1.180
 1985TIP3   OH2 5960   4.619   4.395   2.087
 1985TIP3    H1 5961   4.597   4.456   2.157
 1985TIP3    H2 5962   4.621   4.449   2.008
 1986TIP3   OH2 5963   2.401   2.557   3.831
 1986TIP3    H1 5964   2.443   2.637   3.860
 1986TIP3    H2 5965   2.446   2.534   3.750
 1987TIP3   OH2 5966   4.048   4.175   3.969
 1987TIP3    H1 5967   4.043   4.115   4.043
 1987TIP3    H2 5968   3.967   4.226   3.973
 1988TIP3   OH2 5969   4.874   2.765   4.455
 1988TIP3    H1 5970   4.807   2.824   4.491
 1988TIP3    H2 5971   4.954   2.817   4.456
 1989TIP3   OH2 5972   3.598   1.839   1.590
 1989TIP3    H1 5973   3.628   1.929   1.603
 1989TIP3    H2 5974   3.633   1.815   1.505
 1990TIP3   OH2 5975   2.995   4.210   4.810
 1990TIP3    H1 5976   3.083   4.247   4.808
 1990TIP3    H2 5977   3.008   4.115   4.809
 1991TIP3   OH2 5978   1.017   4.392   3.292
 1991TIP3    H1 5979   1.067   4.334   3.236
 1991TIP3    H2 5980   1.083   4.444   3.338
 1992TIP3   OH2 5981   4.944   0.429   4.060
 1992TIP3    H1 5982   4.995   0.464   4.133
 1992TIP3    H2 5983   4.987   0.462   3.982
 1993TIP3   OH2 5984   1.258   3.093   4.288
 1993TIP3    H1 5985   1.225   3.026   4.228
 1993TIP3    H2 5986   1.204   3.082   4.367
 1994TIP3   OH2 5987   0.624   5.421   2.463
 1994TIP3    H1 5988   0.698   5.365   2.487
 1994TIP3    H2 5989   0.624   5.422   2.367
 1995TIP3   OH2 5990   5.013   5.878   4.644
 1995TIP3    H1 5991   5.008   5.973   4.631
 1995TIP3    H2 5992   4.940   5.858   4.702
 1996TIP3   OH2 5993   0.200   0.650   4.483
 1996TIP3    H1 5994   0.214   0.558   4.506
 1996TIP3    H2 5995   0.105   0.663   4.495
 1997TIP3   OH2 5996   3.450   2.766   4.252
 1997TIP3    H1 5997   3.513   2.781   4.323
 1997TIP3    H2 5998   3.364   2.775   4.294
 1998TIP3   OH2 5999   3.433   3.330   0.298
 1998TIP3    H1 6000   3.437   3.335   0.202
 1998TIP3    H2 6001   3.513   3.284   0.323
 1999TIP3   OH2 6002   3.137   2.974   1.241
 1999TIP3    H1 6003   3.092   3.039   1.294
 1999TIP3    H2 6004   3.130   3.007   1.151
 2000TIP3   OH2 6005   0.185   2.802   3.038
 2000TIP3    H1 6006   0.271   2.817   2.999
 2000TIP3    H2 6007   0.199   2.813   3.132
 2001TIP3   OH2 6008   5.964   0.263   4.526
 2001TIP3    H1 6009   5.949   0.322   4.452
 2001TIP3    H2 6010   6.004   0.319   4.593
 2002TIP3   OH2 6011   5.265   0.398   2.942
 2002TIP3    H1 6012   5.352   0.430   2.918
 2002TIP3    H2 6013   5.237   0.346   2.866
 2003TIP3   OH2 6014   1.024   0.285   4.686
 2003TIP3    H1 6015   0.989   0.374   4.689
 2003TIP3    H2 6016   0.947   0.228   4.682
 2004TIP3   OH2 6017   6.112   4.226   1.576
 2004TIP3    H1 6018   6.172   4.298   1.596
 2004TIP3    H2 6019   6.057   4.260   1.506
 2005TIP3   OH2 6020   1.601   3.772   4.765
 2005TIP3    H1 6021   1.602   3.810   4.678
 2005TIP3    H2 6022   1.514   3.733   4.774
 2006TIP3   OH2 6023   3.873   0.149   1.254
 2006TIP3    H1 6024   3.777   0.151   1.248
 2006TIP3    H2 6025   3.894   0.056   1.262
 2007TIP3   OH2 6026   4.439   3.383   0.109
 2007TIP3    H1 6027   4.476   3.387   0.020
 2007TIP3    H2 6028   4.378   3.310   0.106
 2008TIP3   OH2 6029   4.503   5.387   1.320
 2008TIP3    H1 6030   4.443   5.419   1.386
 2008TIP3    H2 6031   4.577   5.352   1.369
 2009TIP3   OH2 6032   6.314   4.175   2.774
 2009TIP3    H1 6033   6.325   4.235   2.700
 2009TIP3    H2 6034   6.220   4.161   2.780
 2010TIP3   OH2 6035   2.976   0.563   1.073
 2010TIP3    H1 6036   2.998   0.483   1.026
 2010TIP3    H2 6037   2.962   0.628   1.004
 2011TIP3   OH2 6038   5.686   0.292   3.975
 2011TIP3    H1 6039   5.686   0.382   4.007
 2011TIP3    H2 6040   5.741   0.244   4.037
 2012TIP3   OH2 6041   1.686   5.998   1.590
 2012TIP3    H1 6042   1.620   5.934   1.617
 2012TIP3    H2 6043   1.708   5.973   1.500
 2013TIP3   OH2 6044   5.469   1.421   2.068
 2013TIP3    H1 6045   5.535   1.367   2.111
 2013TIP3    H2 6046   5.397   1.360   2.049
 2014TIP3   OH2 6047   3.470   3.850   0.952
 2014TIP3    H1 6048   3.470   3.754   0.949
 2014TIP3    H2 6049   3.432   3.877   0.869
 2015TIP3   OH2 6050   1.374   3.212   0.087
 2015TIP3    H1 6051   1.368   3.162   0.169
 2015TIP3    H2 6052   1.383   3.146   0.019
 2016TIP3   OH2 6053   4.252   4.104   3.566
 2016TIP3    H1 6054   4.295   4.125   3.484
 2016TIP3    H2 6055   4.199   4.026   3.547
 2017TIP3   OH2 6056   1.759   1.155   1.430
 2017TIP3    H1 6057   1.830   1.119   1.483
 2017TIP3    H2 6058   1.691   1.088   1.431
 2018TIP3   OH2 6059   4.082   0.324   0.526
 2018TIP3    H1 6060   3.999   0.327   0.572
 2018TIP3    H2 6061   4.066   0.368   0.443
 2019TIP3   OH2 6062   0.998   5.812   1.607
 2019TIP3    H1 6063   1.038   5.818   1.694
 2019TIP3    H2 6064   0.933   5.742   1.615
 2020TIP3   OH2 6065   0.505   5.837   1.957
 2020TIP3    H1 6066   0.552   5.826   1.874
 2020TIP3    H2 6067   0.445   5.910   1.941
 2021TIP3   OH2 6068   4.376   4.439   0.030
 2021TIP3    H1 6069   4.431   4.513   0.055
 2021TIP3    H2 6070   4.438   4.370   0.005
 2022TIP3   OH2 6071   1.785   1.872   3.130
 2022TIP3    H1 6072   1.822   1.940   3.186
 2022TIP3    H2 6073   1.718   1.830   3.185
 2023TIP3   OH2 6074   0.071   3.066   1.784
 2023TIP3    H1 6075   0.097   3.060   1.876
 2023TIP3    H2 6076   0.136   3.013   1.737
 2024TIP3   OH2 6077   1.760   5.482   2.555
 2024TIP3    H1 6078   1.824   5.463   2.487
 2024TIP3    H2 6079   1.745   5.397   2.598
 2025TIP3   OH2 6080   3.214   0.814   4.594
 2025TIP3    H1 6081   3.214   0.828   4.499
 2025TIP3    H2 6082   3.213   0.719   4.604
 2026TIP3   OH2 6083   6.159   3.171   2.419
 2026TIP3    H1 6084   6.205   3.091   2.444
 2026TIP3    H2 6085   6.210   3.207   2.347
 2027TIP3   OH2 6086   5.650   0.877   2.199
 2027TIP3    H1 6087   5.682   0.922   2.277
 2027TIP3    H2 6088   5.570   0.832   2.228
 2028TIP3   OH2 6089   3.301   2.311   0.283
 2028TIP3    H1 6090   3.385   2.265   0.291
 2028TIP3    H2 6091   3.312   2.366   0.206
 2029TIP3   OH2 6092   0.850   1.121   3.146
 2029TIP3    H1 6093   0.919   1.186   3.131
 2029TIP3    H2 6094   0.857   1.100   3.239
 2030TIP3   OH2 6095   2.150   5.154   3.834
 2030TIP3    H1 6096   2.108   5.223   3.886
 2030TIP3    H2 6097   2.083   5.087   3.824
 2031TIP3   OH2 6098   3.961   1.949   2.658
 2031TIP3    H1 6099   3.987   1.960   2.749
 2031TIP3    H2 6100   4.044   1.942   2.610
 2032TIP3   OH2 6101   0.758   4.665   4.353
 2032TIP3    H1 6102   0.777   4.661   4.447
 2032TIP3    H2 6103   0.802   4.745   4.324
 2033TIP3   OH2 6104   0.059   2.620   1.469
 2033TIP3    H1 6105   0.012   2.570   1.535
 2033TIP3    H2 6106   0.012   2.603   1.387
 2034TIP3   OH2 6107   5.228   2.475   3.359
 2034TIP3    H1 6108   5.261   2.410   3.422
 2034TIP3    H2 6109   5.154   2.516   3.404
 2035TIP3   OH2 6110   2.209   5.270   2.737
 2035TIP3    H1 6111   2.123   5.245   2.772
 2035TIP3    H2 6112   2.252   5.316   2.809
 2036TIP3   OH2 6113   4.626   2.260   3.801
 2036TIP3    H1 6114   4.668   2.190   3.751
 2036TIP3    H2 6115   4.567   2.214   3.860
 2037TIP3   OH2 6116   0.466   1.450   2.061
 2037TIP3    H1 6117   0.539   1.406   2.105
 2037TIP3    H2 6118   0.420   1.380   2.015
 2038TIP3   OH2 6119   2.509   5.558   5.092
 2038TIP3    H1 6120   2.446   5.501   5.048
 2038TIP3    H2 6121   2.583   5.501   5.112
 2039TIP3   OH2 6122   1.671   1.788   3.894
 2039TIP3    H1 6123   1.666   1.696   3.918
 2039TIP3    H2 6124   1.759   1.799   3.859
 2040TIP3   OH2 6125   2.980   4.204   3.861
 2040TIP3    H1 6126   3.022   4.122   3.836
 2040TIP3    H2 6127   3.052   4.263   3.882
 2041TIP3   OH2 6128   3.375   4.464   5.086
 2041TIP3    H1 6129   3.345   4.448   4.997
 2041TIP3    H2 6130   3.311   4.419   5.141
 2042TIP3   OH2 6131   1.495   4.609   5.085
 2042TIP3    H1 6132   1.521   4.658   5.008
 2042TIP3    H2 6133   1.403   4.586   5.069
 2043TIP3   OH2 6134   2.427   0.626   2.173
 2043TIP3    H1 6135   2.394   0.661   2.255
 2043TIP3    H2 6136   2.384   0.541   2.163
 2044TIP3   OH2 6137   3.279   1.064   4.189
 2044TIP3    H1 6138   3.369   1.047   4.161
 2044TIP3    H2 6139   3.257   1.150   4.151
 2045TIP3   OH2 6140   1.986   3.293   1.299
 2045TIP3    H1 6141   2.056   3.281   1.364
 2045TIP3    H2 6142   1.960   3.204   1.276
 2046TIP3   OH2 6143   2.470   4.453   2.633
 2046TIP3    H1 6144   2.515   4.503   2.565
 2046TIP3    H2 6145   2.516   4.476   2.714
 2047TIP3   OH2 6146   3.021   3.589   3.359
 2047TIP3    H1 6147   3.108   3.590   3.318
 2047TIP3    H2 6148   3.036   3.623   3.447
 2048TIP3   OH2 6149   1.253   0.771   2.740
 2048TIP3    H1 6150   1.311   0.710   2.784
 2048TIP3    H2 6151   1.226   0.726   2.660
 2049TIP3   OH2 6152   1.244   3.187   3.693
 2049TIP3    H1 6153   1.243   3.094   3.670
 2049TIP3    H2 6154   1.187   3.192   3.770
 2050TIP3   OH2 6155   4.830   2.186   0.583
 2050TIP3    H1 6156   4.919   2.216   0.604
 2050TIP3    H2 6157   4.842   2.121   0.515
 2051TIP3   OH2 6158   3.471   2.382   3.962
 2051TIP3    H1 6159   3.539   2.389   4.029
 2051TIP3    H2 6160   3.390   2.402   4.008
 2052TIP3   OH2 6161   6.083   4.553   4.827
 2052TIP3    H1 6162   6.081   4.493   4.902
 2052TIP3    H2 6163   6.149   4.618   4.850
 2053TIP3   OH2 6164   5.149   3.182   0.055
 2053TIP3    H1 6165   5.244   3.170   0.059
 2053TIP3    H2 6166   5.132   3.218  -0.032
 2054TIP3   OH2 6167   2.054   2.815   1.340
 2054TIP3    H1 6168   2.053   2.720   1.326
 2054TIP3    H2 6169   2.133   2.831   1.393
 2055TIP3   OH2 6170   0.237   0.739   4.815
 2055TIP3    H1 6171   0.256   0.698   4.731
 2055TIP3    H2 6172   0.172   0.681   4.856
 2056TIP3   OH2 6173   5.166   0.924   1.192
 2056TIP3    H1 6174   5.128   1.009   1.212
 2056TIP3    H2 6175   5.150   0.912   1.099
 2057TIP3   OH2 6176   1.516   2.061   4.564
 2057TIP3    H1 6177   1.459   2.015   4.503
 2057TIP3    H2 6178   1.544   1.994   4.626
 2058TIP3   OH2 6179   0.296   5.368   4.103
 2058TIP3    H1 6180   0.300   5.296   4.039
 2058TIP3    H2 6181   0.202   5.378   4.121
 2059TIP3   OH2 6182   3.545   2.673   2.381
 2059TIP3    H1 6183   3.569   2.751   2.331
 2059TIP3    H2 6184   3.498   2.618   2.317
 2060TIP3   OH2 6185   4.789   2.297   4.338
 2060TIP3    H1 6186   4.761   2.377   4.294
 2060TIP3    H2 6187   4.883   2.307   4.350
 2061TIP3   OH2 6188   2.022   4.994   0.435
 2061TIP3    H1 6189   1.955   5.062   0.445
 2061TIP3    H2 6190   2.103   5.043   0.424
 2062TIP3   OH2 6191   4.740   2.081   3.616
 2062TIP3    H1 6192   4.751   2.100   3.523
 2062TIP3    H2 6193   4.712   1.989   3.618
 2063TIP3   OH2 6194   3.580   2.279   2.147
 2063TIP3    H1 6195   3.557   2.252   2.059
 2063TIP3    H2 6196   3.594   2.373   2.141
 2064TIP3   OH2 6197   1.893   5.646   1.249
 2064TIP3    H1 6198   1.879   5.605   1.163
 2064TIP3    H2 6199   1.897   5.572   1.310
 2065TIP3   OH2 6200   3.392   5.971   2.194
 2065TIP3    H1 6201   3.381   5.877   2.210
 2065TIP3    H2 6202   3.365   5.983   2.103
 2066TIP3   OH2 6203   2.712   4.031   0.506
 2066TIP3    H1 6204   2.648   4.102   0.495
 2066TIP3    H2 6205   2.709   4.011   0.599
 2067TIP3   OH2 6206   3.247   1.212   0.250
 2067TIP3    H1 6207   3.316   1.149   0.273
 2067TIP3    H2 6208   3.239   1.205   0.155
 2068TIP3   OH2 6209   5.289   4.755   3.409
 2068TIP3    H1 6210   5.276   4.675   3.459
 2068TIP3    H2 6211   5.309   4.821   3.475
 2069TIP3   OH2 6212   3.244   0.084   3.617
 2069TIP3    H1 6213   3.247   0.062   3.524
 2069TIP3    H2 6214   3.305   0.157   3.627
 2070TIP3   OH2 6215   3.547   2.456   0.361
 2070TIP3    H1 6216   3.483   2.464   0.432
 2070TIP3    H2 6217   3.534   2.535   0.309
 2071TIP3   OH2 6218   3.783   2.013   3.143
 2071TIP3    H1 6219   3.775   1.931   3.093
 2071TIP3    H2 6220   3.708   2.065   3.115
 2072TIP3   OH2 6221   0.297   3.300   0.495
 2072TIP3    H1 6222   0.239   3.358   0.545
 2072TIP3    H2 6223   0.238   3.245   0.443
 2073TIP3   OH2 6224   0.207   2.779   4.301
 2073TIP3    H1 6225   0.295   2.743   4.289
 2073TIP3    H2 6226   0.149   2.703   4.294
 2074TIP3   OH2 6227   0.075   0.105   4.387
 2074TIP3    H1 6228   0.078   0.112   4.291
 2074TIP3    H2 6229  -0.018   0.118   4.408
 2075TIP3   OH2 6230   5.621   4.403   2.146
 2075TIP3    H1 6231   5.555   4.448   2.093
 2075TIP3    H2 6232   5.663   4.343   2.085
 2076TIP3   OH2 6233   1.448   3.182   4.812
 2076TIP3    H1 6234   1.451   3.107   4.753
 2076TIP3    H2 6235   1.431   3.256   4.755
 2077TIP3   OH2 6236   5.567   2.069   1.784
 2077TIP3    H1 6237   5.535   2.159   1.782
 2077TIP3    H2 6238   5.517   2.028   1.855
 2078TIP3   OH2 6239   1.973   1.468   3.100
 2078TIP3    H1 6240   2.037   1.472   3.171
 2078TIP3    H2 6241   2.022   1.489   3.021
 2079TIP3   OH2 6242   0.686   5.667   3.737
 2079TIP3    H1 6243   0.719   5.619   3.661
 2079TIP3    H2 6244   0.591   5.663   3.727
 2080TIP3   OH2 6245   2.545   1.745   2.632
 2080TIP3    H1 6246   2.512   1.750   2.722
 2080TIP3    H2 6247   2.553   1.836   2.604
 2081TIP3   OH2 6248   1.760   4.135   4.787
 2081TIP3    H1 6249   1.723   4.110   4.702
 2081TIP3    H2 6250   1.851   4.108   4.782
 2082TIP3   OH2 6251   2.247   5.100   2.994
 2082TIP3    H1 6252   2.307   5.026   2.995
 2082TIP3    H2 6253   2.294   5.170   2.947
 2083TIP3   OH2 6254   4.225   4.750   4.955
 2083TIP3    H1 6255   4.256   4.839   4.971
 2083TIP3    H2 6256   4.139   4.762   4.913
 2084TIP3   OH2 6257   1.139   2.448   4.950
 2084TIP3    H1 6258   1.085   2.434   4.872
 2084TIP3    H2 6259   1.076   2.459   5.021
 2085TIP3   OH2 6260   3.712   0.054   2.116
 2085TIP3    H1 6261   3.617   0.060   2.130
 2085TIP3    H2 6262   3.744   0.004   2.191
 2086TIP3   OH2 6263   3.774   2.484   3.112
 2086TIP3    H1 6264   3.777   2.476   3.017
 2086TIP3    H2 6265   3.859   2.523   3.135
 2087TIP3   OH2 6266   3.219   4.451   1.971
 2087TIP3    H1 6267   3.291   4.388   1.975
 2087TIP3    H2 6268   3.262   4.536   1.965
 2088TIP3   OH2 6269   5.296   1.697   1.249
 2088TIP3    H1 6270   5.340   1.762   1.193
 2088TIP3    H2 6271   5.259   1.634   1.188
 2089TIP3   OH2 6272   1.181   4.951   4.164
 2089TIP3    H1 6273   1.211   5.041   4.173
 2089TIP3    H2 6274   1.132   4.950   4.082
 2090TIP3   OH2 6275   5.086   4.866   3.770
 2090TIP3    H1 6276   5.098   4.961   3.771
 2090TIP3    H2 6277   5.007   4.851   3.822
 2091TIP3   OH2 6278   2.068   5.117   4.305
 2091TIP3    H1 6279   2.011   5.075   4.240
 2091TIP3    H2 6280   2.151   5.129   4.259
 2092TIP3   OH2 6281   3.240   2.074   3.472
 2092TIP3    H1 6282   3.223   2.015   3.399
 2092TIP3    H2 6283   3.275   2.153   3.431
 2093TIP3   OH2 6284   2.019   2.583   2.855
 2093TIP3    H1 6285   2.070   2.539   2.923
 2093TIP3    H2 6286   1.937   2.607   2.899
 2094TIP3   OH2 6287   2.155   0.947   3.848
 2094TIP3    H1 6288   2.110   0.954   3.764
 2094TIP3    H2 6289   2.234   0.896   3.829
 2095TIP3   OH2 6290   5.864   1.896   2.668
 2095TIP3    H1 6291   5.814   1.970   2.704
 2095TIP3    H2 6292   5.798   1.838   2.631
 2096TIP3   OH2 6293   2.829   3.226   0.442
 2096TIP3    H1 6294   2.906   3.278   0.420
 2096TIP3    H2 6295   2.825   3.228   0.538
 2097TIP3   OH2 6296   4.538   4.613   1.925
 2097TIP3    H1 6297   4.451   4.581   1.950
 2097TIP3    H2 6298   4.525   4.707   1.910
 2098TIP3   OH2 6299   0.770   0.561   0.060
 2098TIP3    H1 6300   0.837   0.537  -0.004
 2098TIP3    H2 6301   0.819   0.575   0.141
 2099TIP3   OH2 6302   2.713   3.404   3.018
 2099TIP3    H1 6303   2.746   3.471   3.078
 2099TIP3    H2 6304   2.770   3.410   2.942
 2100TIP3   OH2 6305   1.927   2.768   5.087
 2100TIP3    H1 6306   1.935   2.763   4.992
 2100TIP3    H2 6307   1.984   2.841   5.112
 2101TIP3   OH2 6308   5.456   4.869   2.326
 2101TIP3    H1 6309   5.388   4.803   2.344
 2101TIP3    H2 6310   5.416   4.952   2.351
 2102TIP3   OH2 6311   1.115   4.806   0.119
 2102TIP3    H1 6312   1.088   4.898   0.124
 2102TIP3    H2 6313   1.132   4.791   0.026
 2103TIP3   OH2 6314   6.019   5.391   1.604
 2103TIP3    H1 6315   6.033   5.429   1.518
 2103TIP3    H2 6316   6.035   5.297   1.593
 2104TIP3   OH2 6317   4.679   5.903   1.648
 2104TIP3    H1 6318   4.590   5.900   1.613
 2104TIP3    H2 6319   4.706   5.994   1.638
 2105TIP3   OH2 6320   4.851   0.382   2.087
 2105TIP3    H1 6321   4.840   0.432   2.006
 2105TIP3    H2 6322   4.797   0.429   2.151
 2106TIP3   OH2 6323   3.931   2.675   0.107
 2106TIP3    H1 6324   3.968   2.587   0.095
 2106TIP3    H2 6325   3.921   2.683   0.202
 2107TIP3   OH2 6326   3.383   2.694   2.621
 2107TIP3    H1 6327   3.404   2.602   2.631
 2107TIP3    H2 6328   3.433   2.723   2.545
 2108TIP3   OH2 6329   1.065   1.276   2.768
 2108TIP3    H1 6330   1.113   1.203   2.730
 2108TIP3    H2 6331   1.053   1.338   2.696
 2109TIP3   OH2 6332   3.188   3.445   3.121
 2109TIP3    H1 6333   3.244   3.449   3.198
 2109TIP3    H2 6334   3.141   3.362   3.131
 2110TIP3   OH2 6335   2.079   4.898   1.584
 2110TIP3    H1 6336   2.049   4.941   1.504
 2110TIP3    H2 6337   2.074   4.804   1.565
 2111TIP3   OH2 6338   3.338   1.687   0.936
 2111TIP3    H1 6339   3.306   1.774   0.910
 2111TIP3    H2 6340   3.306   1.629   0.868
 2112TIP3   OH2 6341   6.079   5.757   4.324
 2112TIP3    H1 6342   6.156   5.699   4.327
 2112TIP3    H2 6343   6.043   5.755   4.413
 2113TIP3   OH2 6344   3.930   1.997   0.455
 2113TIP3    H1 6345   3.961   2.050   0.529
 2113TIP3    H2 6346   3.834   1.997   0.464
 2114TIP3   OH2 6347   4.623   5.278   0.854
 2114TIP3    H1 6348   4.558   5.259   0.922
 2114TIP3    H2 6349   4.571   5.291   0.775
 2115TIP3   OH2 6350   4.149   1.883   2.151
 2115TIP3    H1 6351   4.226   1.912   2.200
 2115TIP3    H2 6352   4.075   1.917   2.202
 2116TIP3   OH2 6353   4.546   1.666   4.618
 2116TIP3    H1 6354   4.458   1.684   4.651
 2116TIP3    H2 6355   4.554   1.571   4.621
 2117TIP3   OH2 6356   1.235   4.608   5.080
 2117TIP3    H1 6357   1.166   4.544   5.098
 2117TIP3    H2 6358   1.212   4.644   4.994
 2118TIP3   OH2 6359   5.467   5.297   4.651
 2118TIP3    H1 6360   5.440   5.259   4.735
 2118TIP3    H2 6361   5.497   5.385   4.673
 2119TIP3   OH2 6362   1.422   0.497   1.771
 2119TIP3    H1 6363   1.470   0.551   1.834
 2119TIP3    H2 6364   1.422   0.548   1.690
 2120TIP3   OH2 6365   4.226   0.759   3.388
 2120TIP3    H1 6366   4.284   0.835   3.377
 2120TIP3    H2 6367   4.170   0.783   3.462
 2121TIP3   OH2 6368   3.816   4.614   2.524
 2121TIP3    H1 6369   3.876   4.623   2.451
 2121TIP3    H2 6370   3.871   4.589   2.598
 2122TIP3   OH2 6371   4.708   4.832   2.058
 2122TIP3    H1 6372   4.685   4.878   2.139
 2122TIP3    H2 6373   4.749   4.751   2.087
 2123TIP3   OH2 6374   3.522   2.657   0.860
 2123TIP3    H1 6375   3.505   2.565   0.841
 2123TIP3    H2 6376   3.445   2.686   0.909
 2124TIP3   OH2 6377   0.116   3.089   0.442
 2124TIP3    H1 6378   0.066   3.132   0.373
 2124TIP3    H2 6379   0.056   3.025   0.480
 2125TIP3   OH2 6380   6.173   4.351   3.891
 2125TIP3    H1 6381   6.215   4.407   3.957
 2125TIP3    H2 6382   6.244   4.325   3.833
 2126TIP3   OH2 6383   3.405   4.393   1.082
 2126TIP3    H1 6384   3.441   4.424   1.165
 2126TIP3    H2 6385   3.414   4.468   1.023
 2127TIP3   OH2 6386   4.874   0.323   1.073
 2127TIP3    H1 6387   4.833   0.343   1.158
 2127TIP3    H2 6388   4.834   0.386   1.013
 2128TIP3   OH2 6389   2.309   4.261   4.642
 2128TIP3    H1 6390   2.314   4.354   4.624
 2128TIP3    H2 6391   2.227   4.233   4.600
 2129TIP3   OH2 6392   6.239   5.996   2.803
 2129TIP3    H1 6393   6.165   5.991   2.863
 2129TIP3    H2 6394   6.210   5.949   2.725
 2130TIP3   OH2 6395   1.634   2.586   2.413
 2130TIP3    H1 6396   1.589   2.620   2.490
 2130TIP3    H2 6397   1.727   2.586   2.437
 2131TIP3   OH2 6398   6.026   3.480   2.391
 2131TIP3    H1 6399   5.947   3.433   2.419
 2131TIP3    H2 6400   5.996   3.541   2.325
 2132TIP3   OH2 6401   3.049   5.090   0.689
 2132TIP3    H1 6402   3.121   5.117   0.633
 2132TIP3    H2 6403   2.995   5.169   0.699
 2133TIP3   OH2 6404   2.827   5.464   1.586
 2133TIP3    H1 6405   2.919   5.439   1.578
 2133TIP3    H2 6406   2.790   5.401   1.648
 2134TIP3   OH2 6407   5.574   5.826   3.688
 2134TIP3    H1 6408   5.601   5.888   3.755
 2134TIP3    H2 6409   5.505   5.871   3.639
 2135TIP3   OH2 6410   0.459   4.473   4.731
 2135TIP3    H1 6411   0.508   4.443   4.654
 2135TIP3    H2 6412   0.370   4.484   4.699
 2136TIP3   OH2 6413   0.262   4.140   1.588
 2136TIP3    H1 6414   0.296   4.061   1.545
 2136TIP3    H2 6415   0.199   4.175   1.525
 2137TIP3   OH2 6416   0.902   5.212   4.225
 2137TIP3    H1 6417   0.809   5.196   4.211
 2137TIP3    H2 6418   0.918   5.184   4.315
 2138TIP3   OH2 6419   4.047   2.308   0.586
 2138TIP3    H1 6420   4.006   2.350   0.662
 2138TIP3    H2 6421   3.984   2.321   0.516
 2139TIP3   OH2 6422   0.410   1.607   3.466
 2139TIP3    H1 6423   0.367   1.679   3.419
 2139TIP3    H2 6424   0.421   1.539   3.399
 2140TIP3   OH2 6425   2.735   1.757   0.223
 2140TIP3    H1 6426   2.745   1.810   0.302
 2140TIP3    H2 6427   2.810   1.697   0.224
 2141TIP3   OH2 6428   2.239   1.153   3.037
 2141TIP3    H1 6429   2.251   1.123   3.127
 2141TIP3    H2 6430   2.189   1.234   3.045
 2142TIP3   OH2 6431   3.689   2.081   2.331
 2142TIP3    H1 6432   3.703   2.105   2.239
 2142TIP3    H2 6433   3.601   2.113   2.350
 2143TIP3   OH2 6434   4.419   3.526   0.484
 2143TIP3    H1 6435   4.446   3.546   0.574
 2143TIP3    H2 6436   4.481   3.574   0.429
 2144TIP3   OH2 6437   1.975   5.441   2.384
 2144TIP3    H1 6438   2.058   5.478   2.413
 2144TIP3    H2 6439   1.997   5.354   2.352
 2145TIP3   OH2 6440   4.746   4.495   0.006
 2145TIP3    H1 6441   4.720   4.546   0.083
 2145TIP3    H2 6442   4.693   4.415   0.011
 2146TIP3   OH2 6443   2.584   3.780   0.881
 2146TIP3    H1 6444   2.491   3.791   0.902
 2146TIP3    H2 6445   2.613   3.708   0.937
 2147TIP3   OH2 6446   2.773   3.616  -0.024
 2147TIP3    H1 6447   2.690   3.635   0.021
 2147TIP3    H2 6448   2.751   3.549  -0.088
 2148TIP3   OH2 6449   0.187   2.783   3.994
 2148TIP3    H1 6450   0.278   2.812   3.994
 2148TIP3    H2 6451   0.185   2.710   4.057
 2149TIP3   OH2 6452   2.752   1.666   4.442
 2149TIP3    H1 6453   2.662   1.697   4.435
 2149TIP3    H2 6454   2.755   1.620   4.526
 2150TIP3   OH2 6455   5.926   1.413   0.028
 2150TIP3    H1 6456   5.891   1.475  -0.036
 2150TIP3    H2 6457   5.982   1.466   0.085
 2151TIP3   OH2 6458   2.981   5.092   0.972
 2151TIP3    H1 6459   2.891   5.118   0.949
 2151TIP3    H2 6460   3.017   5.058   0.890
 2152TIP3   OH2 6461   5.445   4.924   3.633
 2152TIP3    H1 6462   5.523   4.973   3.659
 2152TIP3    H2 6463   5.386   4.990   3.596
 2153TIP3   OH2 6464   1.264   4.925   0.408
 2153TIP3    H1 6465   1.325   4.873   0.355
 2153TIP3    H2 6466   1.296   4.915   0.498
 2154TIP3   OH2 6467   4.879   0.942   0.957
 2154TIP3    H1 6468   4.969   0.945   0.923
 2154TIP3    H2 6469   4.824   0.930   0.879
 2155TIP3   OH2 6470   5.768   0.678   4.408
 2155TIP3    H1 6471   5.727   0.595   4.384
 2155TIP3    H2 6472   5.778   0.674   4.503
 2156TIP3   OH2 6473   1.013   3.220   4.868
 2156TIP3    H1 6474   1.064   3.153   4.912
 2156TIP3    H2 6475   0.935   3.231   4.923
 2157TIP3   OH2 6476   4.437   4.887   0.535
 2157TIP3    H1 6477   4.525   4.896   0.573
 2157TIP3    H2 6478   4.395   4.971   0.552
 2158TIP3   OH2 6479   4.035   3.687   0.550
 2158TIP3    H1 6480   4.030   3.607   0.497
 2158TIP3    H2 6481   4.050   3.656   0.639
 2159TIP3   OH2 6482   3.146   0.983   0.022
 2159TIP3    H1 6483   3.189   1.067   0.001
 2159TIP3    H2 6484   3.129   0.943  -0.064
 2160TIP3   OH2 6485   2.945   3.620   1.671
 2160TIP3    H1 6486   2.985   3.533   1.680
 2160TIP3    H2 6487   2.930   3.649   1.761
 2161TIP3   OH2 6488   1.379   4.685   1.973
 2161TIP3    H1 6489   1.430   4.607   1.951
 2161TIP3    H2 6490   1.430   4.758   1.939
 2162TIP3   OH2 6491   3.514   2.620   1.706
 2162TIP3    H1 6492   3.598   2.665   1.710
 2162TIP3    H2 6493   3.458   2.677   1.654
 2163TIP3   OH2 6494   5.122   5.671   0.438
 2163TIP3    H1 6495   5.067   5.602   0.474
 2163TIP3    H2 6496   5.182   5.626   0.379
 2164TIP3   OH2 6497   1.828   5.357   3.374
 2164TIP3    H1 6498   1.839   5.334   3.281
 2164TIP3    H2 6499   1.735   5.379   3.382
 2165TIP3   OH2 6500   1.557   4.903   0.345
 2165TIP3    H1 6501   1.602   4.934   0.424
 2165TIP3    H2 6502   1.608   4.941   0.272
 2166TIP3   OH2 6503   1.942   5.428   4.879
 2166TIP3    H1 6504   1.938   5.418   4.974
 2166TIP3    H2 6505   1.897   5.351   4.844
 2167TIP3   OH2 6506   3.332   3.209   2.879
 2167TIP3    H1 6507   3.279   3.283   2.848
 2167TIP3    H2 6508   3.383   3.245   2.952
 2168TIP3   OH2 6509   3.243   1.323   4.091
 2168TIP3    H1 6510   3.307   1.337   4.021
 2168TIP3    H2 6511   3.174   1.388   4.074
 2169TIP3   OH2 6512   3.817   4.685   1.066
 2169TIP3    H1 6513   3.791   4.600   1.103
 2169TIP3    H2 6514   3.913   4.684   1.069
 2170TIP3   OH2 6515   1.838   5.517   1.636
 2170TIP3    H1 6516   1.853   5.610   1.651
 2170TIP3    H2 6517   1.768   5.514   1.571
 2171TIP3   OH2 6518   5.216   1.949   1.678
 2171TIP3    H1 6519   5.242   1.920   1.766
 2171TIP3    H2 6520   5.230   2.044   1.679
 2172TIP3   OH2 6521   2.477   2.129   3.221
 2172TIP3    H1 6522   2.429   2.138   3.139
 2172TIP3    H2 6523   2.568   2.117   3.194
 2173TIP3   OH2 6524   3.623   5.141   2.315
 2173TIP3    H1 6525   3.535   5.126   2.349
 2173TIP3    H2 6526   3.625   5.095   2.231
 2174TIP3   OH2 6527   3.835   1.065   0.246
 2174TIP3    H1 6528   3.789   0.982   0.235
 2174TIP3    H2 6529   3.927   1.040   0.252
 2175TIP3   OH2 6530   2.415   2.852   1.221
 2175TIP3    H1 6531   2.375   2.774   1.259
 2175TIP3    H2 6532   2.452   2.822   1.138
 2176TIP3   OH2 6533   2.556   4.474   2.201
 2176TIP3    H1 6534   2.492   4.542   2.181
 2176TIP3    H2 6535   2.536   4.404   2.139
 2177TIP3   OH2 6536   2.738   2.348   0.947
 2177TIP3    H1 6537   2.779   2.390   1.023
 2177TIP3    H2 6538   2.684   2.278   0.985
 2178TIP3   OH2 6539   2.394   5.284   3.689
 2178TIP3    H1 6540   2.480   5.242   3.687
 2178TIP3    H2 6541   2.339   5.225   3.740
 2179TIP3   OH2 6542   3.896   1.886   2.298
 2179TIP3    H1 6543   3.831   1.957   2.294
 2179TIP3    H2 6544   3.871   1.836   2.376
 2180TIP3   OH2 6545   6.131   0.936   3.691
 2180TIP3    H1 6546   6.075   0.877   3.640
 2180TIP3    H2 6547   6.081   1.017   3.696
 2181TIP3   OH2 6548   4.430   4.988   1.197
 2181TIP3    H1 6549   4.362   4.962   1.134
 2181TIP3    H2 6550   4.508   4.941   1.168
 2182TIP3   OH2 6551   6.235   2.742   1.848
 2182TIP3    H1 6552   6.228   2.672   1.784
 2182TIP3    H2 6553   6.164   2.725   1.910
 2183TIP3   OH2 6554   2.522   4.525   4.610
 2183TIP3    H1 6555   2.595   4.586   4.597
 2183TIP3    H2 6556   2.443   4.577   4.596
 2184TIP3   OH2 6557   0.350   4.127   4.117
 2184TIP3    H1 6558   0.359   4.032   4.120
 2184TIP3    H2 6559   0.259   4.142   4.091
 2185TIP3   OH2 6560   5.327   4.669   2.117
 2185TIP3    H1 6561   5.347   4.640   2.206
 2185TIP3    H2 6562   5.398   4.729   2.095
 2186TIP3   OH2 6563   2.599   5.318   3.927
 2186TIP3    H1 6564   2.625   5.286   3.841
 2186TIP3    H2 6565   2.674   5.298   3.984
 2187TIP3   OH2 6566   3.939   2.983   3.838
 2187TIP3    H1 6567   3.990   3.053   3.879
 2187TIP3    H2 6568   3.868   2.965   3.900
 2188TIP3   OH2 6569   3.911   5.884   1.657
 2188TIP3    H1 6570   3.920   5.797   1.618
 2188TIP3    H2 6571   3.956   5.943   1.596
 2189TIP3   OH2 6572   2.025   3.521   5.042
 2189TIP3    H1 6573   1.956   3.488   5.099
 2189TIP3    H2 6574   2.091   3.451   5.041
 2190TIP3   OH2 6575   5.098   3.625   4.570
 2190TIP3    H1 6576   5.164   3.557   4.581
 2190TIP3    H2 6577   5.083   3.658   4.659
 2191TIP3   OH2 6578   5.659   3.996   2.849
 2191TIP3    H1 6579   5.729   4.019   2.787
 2191TIP3    H2 6580   5.589   3.962   2.793
 2192TIP3   OH2 6581   1.682   4.140   1.396
 2192TIP3    H1 6582   1.592   4.156   1.426
 2192TIP3    H2 6583   1.679   4.155   1.302
 2193TIP3   OH2 6584   1.479   4.056   4.029
 2193TIP3    H1 6585   1.465   3.966   4.000
 2193TIP3    H2 6586   1.492   4.105   3.948
 2194TIP3   OH2 6587   0.840   5.751   2.563
 2194TIP3    H1 6588   0.878   5.691   2.498
 2194TIP3    H2 6589   0.838   5.836   2.519
 2195TIP3   OH2 6590   3.526   4.287   3.420
 2195TIP3    H1 6591   3.586   4.212   3.413
 2195TIP3    H2 6592   3.546   4.324   3.506
 2196TIP3   OH2 6593   3.150   4.417   0.867
 2196TIP3    H1 6594   3.178   4.467   0.944
 2196TIP3    H2 6595   3.071   4.373   0.895
 2197TIP3   OH2 6596   4.413   2.024   3.442
 2197TIP3    H1 6597   4.483   1.960   3.427
 2197TIP3    H2 6598   4.418   2.083   3.367
 2198TIP3   OH2 6599   4.895   0.845   3.492
 2198TIP3    H1 6600   4.930   0.847   3.403
 2198TIP3    H2 6601   4.971   0.861   3.548
 2199TIP3   OH2 6602   2.488   2.698   2.741
 2199TIP3    H1 6603   2.528   2.783   2.760
 2199TIP3    H2 6604   2.403   2.701   2.785
 2200TIP3   OH2 6605   0.894   1.834   4.670
 2200TIP3    H1 6606   0.834   1.860   4.740
 2200TIP3    H2 6607   0.979   1.869   4.697
 2201TIP3   OH2 6608   1.764   0.033   4.217
 2201TIP3    H1 6609   1.678   0.002   4.186
 2201TIP3    H2 6610   1.813  -0.047   4.234
 2202TIP3   OH2 6611   5.728   4.788   5.088
 2202TIP3    H1 6612   5.812   4.831   5.104
 2202TIP3    H2 6613   5.667   4.831   5.148
 2203TIP3   OH2 6614   3.377   4.821   2.254
 2203TIP3    H1 6615   3.433   4.760   2.302
 2203TIP3    H2 6616   3.362   4.779   2.170
 2204TIP3   OH2 6617   3.000   2.652   1.925
 2204TIP3    H1 6618   2.961   2.714   1.987
 2204TIP3    H2 6619   2.927   2.625   1.869
 2205TIP3   OH2 6620   4.137   5.309   1.886
 2205TIP3    H1 6621   4.160   5.300   1.978
 2205TIP3    H2 6622   4.221   5.310   1.840
 2206TIP3   OH2 6623   1.934   1.115   1.651
 2206TIP3    H1 6624   1.927   1.151   1.740
 2206TIP3    H2 6625   1.984   1.180   1.603
 2207TIP3   OH2 6626   2.297   5.654   2.188
 2207TIP3    H1 6627   2.340   5.588   2.134
 2207TIP3    H2 6628   2.205   5.648   2.164
 2208TIP3   OH2 6629   4.472   2.349   0.818
 2208TIP3    H1 6630   4.476   2.343   0.722
 2208TIP3    H2 6631   4.451   2.260   0.846
 2209TIP3   OH2 6632   1.598   1.861   2.438
 2209TIP3    H1 6633   1.681   1.863   2.485
 2209TIP3    H2 6634   1.574   1.769   2.435
 2210TIP3   OH2 6635   3.180   1.369   4.975
 2210TIP3    H1 6636   3.143   1.334   5.057
 2210TIP3    H2 6637   3.227   1.295   4.936
 2211TIP3   OH2 6638   4.398   5.380   0.644
 2211TIP3    H1 6639   4.437   5.395   0.558
 2211TIP3    H2 6640   4.340   5.455   0.657
 2212TIP3   OH2 6641   5.289   5.970   0.917
 2212TIP3    H1 6642   5.330   5.947   0.834
 2212TIP3    H2 6643   5.327   5.909   0.980
 2213TIP3   OH2 6644   1.579   1.500   1.880
 2213TIP3    H1 6645   1.517   1.428   1.864
 2213TIP3    H2 6646   1.614   1.521   1.793
 2214TIP3   OH2 6647   3.524   0.627   0.945
 2214TIP3    H1 6648   3.453   0.572   0.978
 2214TIP3    H2 6649   3.530   0.605   0.852
 2215TIP3   OH2 6650   4.640   4.695   3.212
 2215TIP3    H1 6651   4.732   4.681   3.232
 2215TIP3    H2 6652   4.610   4.755   3.281
 2216TIP3   OH2 6653   1.796   2.903   2.916
 2216TIP3    H1 6654   1.790   2.924   2.823
 2216TIP3    H2 6655   1.723   2.951   2.956
 2217TIP3   OH2 6656   0.257   0.075   4.828
 2217TIP3    H1 6657   0.238   0.155   4.780
 2217TIP3    H2 6658   0.348   0.085   4.855
 2218TIP3   OH2 6659   2.059   0.526   1.653
 2218TIP3    H1 6660   1.967   0.540   1.675
 2218TIP3    H2 6661   2.065   0.543   1.559
 2219TIP3   OH2 6662   5.439   3.244   2.468
 2219TIP3    H1 6663   5.450   3.160   2.424
 2219TIP3    H2 6664   5.426   3.307   2.397
 2220TIP3   OH2 6665   0.128   1.116   1.804
 2220TIP3    H1 6666   0.071   1.171   1.858
 2220TIP3    H2 6667   0.067   1.062   1.754
 2221TIP3   OH2 6668   2.206   5.371   3.354
 2221TIP3    H1 6669   2.185   5.280   3.330
 2221TIP3    H2 6670   2.136   5.397   3.413
 2222TIP3   OH2 6671   5.178   0.281   2.708
 2222TIP3    H1 6672   5.113   0.258   2.641
 2222TIP3    H2 6673   5.256   0.306   2.658
 2223TIP3   OH2 6674   5.930   5.382   4.152
 2223TIP3    H1 6675   5.841   5.400   4.122
 2223TIP3    H2 6676   5.985   5.445   4.105
 2224TIP3   OH2 6677   1.400   1.999   2.286
 2224TIP3    H1 6678   1.427   2.091   2.275
 2224TIP3    H2 6679   1.477   1.957   2.325
 2225TIP3   OH2 6680   4.769   2.105   4.091
 2225TIP3    H1 6681   4.743   2.175   4.151
 2225TIP3    H2 6682   4.726   2.027   4.126
 2226TIP3   OH2 6683   0.355   5.366   0.977
 2226TIP3    H1 6684   0.277   5.322   1.011
 2226TIP3    H2 6685   0.321   5.435   0.920
 2227TIP3   OH2 6686   1.063   0.548   3.144
 2227TIP3    H1 6687   0.995   0.484   3.165
 2227TIP3    H2 6688   1.030   0.594   3.067
 2228TIP3   OH2 6689   3.786   5.841   4.966
 2228TIP3    H1 6690   3.866   5.870   5.011
 2228TIP3    H2 6691   3.792   5.882   4.879
 2229TIP3   OH2 6692   0.440   4.255   0.546
 2229TIP3    H1 6693   0.411   4.220   0.630
 2229TIP3    H2 6694   0.370   4.231   0.484
 2230TIP3   OH2 6695   0.820   3.254   2.018
 2230TIP3    H1 6696   0.778   3.183   2.067
 2230TIP3    H2 6697   0.776   3.333   2.048
 2231TIP3   OH2 6698   2.492   2.027   4.971
 2231TIP3    H1 6699   2.558   1.967   4.936
 2231TIP3    H2 6700   2.423   2.027   4.905
 2232TIP3   OH2 6701   5.426   3.570   1.873
 2232TIP3    H1 6702   5.471   3.586   1.956
 2232TIP3    H2 6703   5.358   3.506   1.895
 2233TIP3   OH2 6704   0.045   5.042   4.638
 2233TIP3    H1 6705  -0.024   5.106   4.620
 2233TIP3    H2 6706   0.120   5.095   4.666
 2234TIP3   OH2 6707   0.380   1.437   3.261
 2234TIP3    H1 6708   0.332   1.486   3.194
 2234TIP3    H2 6709   0.334   1.354   3.268
 2235TIP3   OH2 6710   2.447   2.287   2.580
 2235TIP3    H1 6711   2.492   2.367   2.554
 2235TIP3    H2 6712   2.442   2.293   2.676
 2236TIP3   OH2 6713   0.670   3.057   3.550
 2236TIP3    H1 6714   0.631   3.131   3.503
 2236TIP3    H2 6715   0.733   3.021   3.488
 2237TIP3   OH2 6716   4.323   4.418   4.932
 2237TIP3    H1 6717   4.336   4.506   4.895
 2237TIP3    H2 6718   4.240   4.424   4.979
 2238TIP3   OH2 6719   0.224   4.464   4.113
 2238TIP3    H1 6720   0.288   4.472   4.184
 2238TIP3    H2 6721   0.274   4.483   4.033
 2239TIP3   OH2 6722   5.979   0.506   1.771
 2239TIP3    H1 6723   6.020   0.567   1.833
 2239TIP3    H2 6724   5.958   0.429   1.824
 2240TIP3   OH2 6725   5.354   1.901   1.916
 2240TIP3    H1 6726   5.378   1.949   1.995
 2240TIP3    H2 6727   5.392   1.814   1.927
 2241TIP3   OH2 6728   5.414   3.767   4.526
 2241TIP3    H1 6729   5.499   3.743   4.491
 2241TIP3    H2 6730   5.362   3.686   4.521
 2242TIP3   OH2 6731   4.077   1.264   1.874
 2242TIP3    H1 6732   4.155   1.311   1.844
 2242TIP3    H2 6733   4.008   1.330   1.874
 2243TIP3   OH2 6734   2.143   4.812   4.305
 2243TIP3    H1 6735   2.135   4.881   4.371
 2243TIP3    H2 6736   2.056   4.771   4.303
 2244TIP3   OH2 6737   0.520   2.939   2.467
 2244TIP3    H1 6738   0.498   2.895   2.385
 2244TIP3    H2 6739   0.455   3.010   2.475
 2245TIP3   OH2 6740   2.281   4.021   2.408
 2245TIP3    H1 6741   2.241   4.096   2.362
 2245TIP3    H2 6742   2.215   3.994   2.472
 2246TIP3   OH2 6743   5.853   0.937   3.253
 2246TIP3    H1 6744   5.820   0.966   3.168
 2246TIP3    H2 6745   5.841   0.842   3.252
 2247TIP3   OH2 6746   4.609   2.785   4.882
 2247TIP3    H1 6747   4.517   2.790   4.908
 2247TIP3    H2 6748   4.641   2.705   4.924
 2248TIP3   OH2 6749   3.745   4.994   4.225
 2248TIP3    H1 6750   3.671   5.043   4.189
 2248TIP3    H2 6751   3.818   5.012   4.165
 2249TIP3   OH2 6752   0.668   4.579   2.095
 2249TIP3    H1 6753   0.700   4.565   2.006
 2249TIP3    H2 6754   0.584   4.624   2.083
 2250TIP3   OH2 6755   5.386   4.058   3.454
 2250TIP3    H1 6756   5.312   4.116   3.438
 2250TIP3    H2 6757   5.442   4.106   3.515
 2251TIP3   OH2 6758   5.418   3.170   0.104
 2251TIP3    H1 6759   5.422   3.154   0.199
 2251TIP3    H2 6760   5.489   3.233   0.088
 2252TIP3   OH2 6761   2.678   4.013   0.802
 2252TIP3    H1 6762   2.764   4.021   0.842
 2252TIP3    H2 6763   2.642   3.933   0.840
 2253TIP3   OH2 6764   2.852   3.906   3.908
 2253TIP3    H1 6765   2.902   3.848   3.849
 2253TIP3    H2 6766   2.769   3.920   3.863
 2254TIP3   OH2 6767   5.153   1.570   0.790
 2254TIP3    H1 6768   5.122   1.620   0.715
 2254TIP3    H2 6769   5.192   1.491   0.752
 2255TIP3   OH2 6770   2.241   0.892   2.553
 2255TIP3    H1 6771   2.164   0.942   2.581
 2255TIP3    H2 6772   2.271   0.936   2.473
 2256TIP3   OH2 6773   0.898   0.688   2.591
 2256TIP3    H1 6774   0.894   0.781   2.613
 2256TIP3    H2 6775   0.928   0.687   2.500
 2257TIP3   OH2 6776   2.779   0.946   4.887
 2257TIP3    H1 6777   2.689   0.967   4.913
 2257TIP3    H2 6778   2.833   0.995   4.948
 2258TIP3   OH2 6779   2.008   2.991   3.115
 2258TIP3    H1 6780   2.077   2.941   3.072
 2258TIP3    H2 6781   1.932   2.983   3.057
 2259TIP3   OH2 6782   6.339   3.767   2.237
 2259TIP3    H1 6783   6.392   3.731   2.166
 2259TIP3    H2 6784   6.249   3.752   2.211
 2260TIP3   OH2 6785   5.049   5.790   1.828
 2260TIP3    H1 6786   4.999   5.833   1.897
 2260TIP3    H2 6787   4.984   5.764   1.764
 2261TIP3   OH2 6788   1.921   5.895   3.643
 2261TIP3    H1 6789   1.910   5.896   3.548
 2261TIP3    H2 6790   1.877   5.815   3.672
 2262TIP3   OH2 6791   2.282   3.977   1.319
 2262TIP3    H1 6792   2.284   3.883   1.300
 2262TIP3    H2 6793   2.197   4.006   1.287
 2263TIP3   OH2 6794   3.755   2.316   0.160
 2263TIP3    H1 6795   3.686   2.281   0.217
 2263TIP3    H2 6796   3.724   2.403   0.135
 2264TIP3   OH2 6797   5.245   0.977   3.124
 2264TIP3    H1 6798   5.333   0.972   3.161
 2264TIP3    H2 6799   5.258   1.001   3.033
 2265TIP3   OH2 6800   1.927   0.435   1.047
 2265TIP3    H1 6801   1.941   0.530   1.045
 2265TIP3    H2 6802   2.014   0.398   1.033
 2266TIP3   OH2 6803   1.467   3.782   3.908
 2266TIP3    H1 6804   1.495   3.697   3.876
 2266TIP3    H2 6805   1.427   3.824   3.832
 2267TIP3   OH2 6806   5.299   2.816   2.996
 2267TIP3    H1 6807   5.369   2.861   3.044
 2267TIP3    H2 6808   5.298   2.728   3.034
 2268TIP3   OH2 6809   1.060   5.234   4.877
 2268TIP3    H1 6810   1.043   5.325   4.852
 2268TIP3    H2 6811   1.141   5.212   4.832
 2269TIP3   OH2 6812   0.531   4.588   1.459
 2269TIP3    H1 6813   0.436   4.589   1.470
 2269TIP3    H2 6814   0.547   4.646   1.384
 2270TIP3   OH2 6815   0.172   2.586   3.734
 2270TIP3    H1 6816   0.240   2.577   3.800
 2270TIP3    H2 6817   0.138   2.497   3.722
 2271TIP3   OH2 6818   0.714   4.025   2.891
 2271TIP3    H1 6819   0.757   4.089   2.833
 2271TIP3    H2 6820   0.751   3.940   2.863
 2272TIP3   OH2 6821   2.229   5.657   1.227
 2272TIP3    H1 6822   2.266   5.583   1.178
 2272TIP3    H2 6823   2.166   5.696   1.167
 2273TIP3   OH2 6824   0.296   5.456   4.361
 2273TIP3    H1 6825   0.218   5.411   4.392
 2273TIP3    H2 6826   0.307   5.426   4.270
 2274TIP3   OH2 6827   4.387   5.826   4.465
 2274TIP3    H1 6828   4.345   5.911   4.455
 2274TIP3    H2 6829   4.444   5.836   4.541
 2275TIP3   OH2 6830   0.573   4.287   4.154
 2275TIP3    H1 6831   0.514   4.218   4.184
 2275TIP3    H2 6832   0.545   4.365   4.202
 2276TIP3   OH2 6833   3.426   2.636   3.657
 2276TIP3    H1 6834   3.377   2.573   3.603
 2276TIP3    H2 6835   3.449   2.706   3.596
 2277TIP3   OH2 6836   4.030   2.034   0.768
 2277TIP3    H1 6837   4.002   2.115   0.725
 2277TIP3    H2 6838   4.123   2.029   0.751
 2278TIP3   OH2 6839   4.429   4.146   0.299
 2278TIP3    H1 6840   4.451   4.217   0.359
 2278TIP3    H2 6841   4.459   4.067   0.343
 2279TIP3   OH2 6842   3.205   4.531   0.640
 2279TIP3    H1 6843   3.179   4.463   0.577
 2279TIP3    H2 6844   3.196   4.490   0.726
 2280TIP3   OH2 6845   0.628   1.292   3.887
 2280TIP3    H1 6846   0.546   1.318   3.928
 2280TIP3    H2 6847   0.651   1.366   3.830
 2281TIP3   OH2 6848   3.038   1.124   0.621
 2281TIP3    H1 6849   3.019   1.031   0.631
 2281TIP3    H2 6850   3.131   1.133   0.642
 2282TIP3   OH2 6851   5.370   1.455   2.356
 2282TIP3    H1 6852   5.377   1.374   2.407
 2282TIP3    H2 6853   5.460   1.481   2.340
 2283TIP3   OH2 6854   5.113   4.488   2.791
 2283TIP3    H1 6855   5.188   4.541   2.765
 2283TIP3    H2 6856   5.080   4.530   2.870
 2284TIP3   OH2 6857   5.569   1.743   3.866
 2284TIP3    H1 6858   5.616   1.684   3.807
 2284TIP3    H2 6859   5.477   1.722   3.853
 2285TIP3   OH2 6860   3.784   5.563   3.585
 2285TIP3    H1 6861   3.817   5.496   3.525
 2285TIP3    H2 6862   3.861   5.592   3.634
 2286TIP3   OH2 6863   3.030   5.036   1.392
 2286TIP3    H1 6864   3.004   5.025   1.484
 2286TIP3    H2 6865   3.120   5.069   1.397
 2287TIP3   OH2 6866   1.349   3.642   1.579
 2287TIP3    H1 6867   1.379   3.574   1.639
 2287TIP3    H2 6868   1.425   3.662   1.524
 2288TIP3   OH2 6869   3.421   3.727   4.467
 2288TIP3    H1 6870   3.348   3.754   4.524
 2288TIP3    H2 6871   3.490   3.702   4.528
 2289TIP3   OH2 6872   1.040   4.371   5.072
 2289TIP3    H1 6873   1.080   4.390   4.987
 2289TIP3    H2 6874   1.054   4.277   5.085
 2290TIP3   OH2 6875   4.430   2.500   0.489
 2290TIP3    H1 6876   4.515   2.469   0.521
 2290TIP3    H2 6877   4.420   2.587   0.528
 2291TIP3   OH2 6878   3.497   4.557   0.579
 2291TIP3    H1 6879   3.406   4.579   0.603
 2291TIP3    H2 6880   3.550   4.609   0.638
 2292TIP3   OH2 6881   0.743   2.556   2.687
 2292TIP3    H1 6882   0.781   2.472   2.661
 2292TIP3    H2 6883   0.723   2.600   2.604
 2293TIP3   OH2 6884   3.707   1.454   0.967
 2293TIP3    H1 6885   3.672   1.375   1.007
 2293TIP3    H2 6886   3.673   1.525   1.021
 2294TIP3   OH2 6887   3.434   3.994   1.185
 2294TIP3    H1 6888   3.433   3.984   1.090
 2294TIP3    H2 6889   3.364   3.936   1.216
 2295TIP3   OH2 6890   2.428   5.814   1.598
 2295TIP3    H1 6891   2.443   5.723   1.626
 2295TIP3    H2 6892   2.339   5.813   1.562
 2296TIP3   OH2 6893   5.721   4.160   4.989
 2296TIP3    H1 6894   5.724   4.203   5.074
 2296TIP3    H2 6895   5.813   4.152   4.963
 2297TIP3   OH2 6896   0.584   3.030   0.557
 2297TIP3    H1 6897   0.653   3.015   0.492
 2297TIP3    H2 6898   0.503   3.005   0.513
 2298TIP3   OH2 6899   1.124   2.132   1.008
 2298TIP3    H1 6900   1.099   2.041   0.992
 2298TIP3    H2 6901   1.106   2.145   1.101
 2299TIP3   OH2 6902   1.954   5.106   0.858
 2299TIP3    H1 6903   2.045   5.081   0.844
 2299TIP3    H2 6904   1.914   5.030   0.900
 2300TIP3   OH2 6905   0.984   2.509   4.657
 2300TIP3    H1 6906   1.073   2.542   4.644
 2300TIP3    H2 6907   0.929   2.567   4.604
 2301TIP3   OH2 6908   5.508   2.751   4.627
 2301TIP3    H1 6909   5.510   2.814   4.699
 2301TIP3    H2 6910   5.596   2.714   4.624
 2302TIP3   OH2 6911   3.849   5.291   4.280
 2302TIP3    H1 6912   3.918   5.333   4.332
 2302TIP3    H2 6913   3.777   5.280   4.341
 2303TIP3   OH2 6914   0.630   5.417   4.904
 2303TIP3    H1 6915   0.553   5.446   4.855
 2303TIP3    H2 6916   0.681   5.496   4.919
 2304TIP3   OH2 6917   0.021   1.725   3.345
 2304TIP3    H1 6918  -0.032   1.796   3.381
 2304TIP3    H2 6919   0.102   1.766   3.317
 2305TIP3   OH2 6920   4.357   4.560   1.225
 2305TIP3    H1 6921   4.387   4.478   1.265
 2305TIP3    H2 6922   4.427   4.584   1.164
 2306TIP3   OH2 6923   5.502   1.665   1.940
 2306TIP3    H1 6924   5.469   1.583   1.976
 2306TIP3    H2 6925   5.597   1.662   1.955
 2307TIP3   OH2 6926   1.079   1.572   2.314
 2307TIP3    H1 6927   0.986   1.592   2.311
 2307TIP3    H2 6928   1.098   1.556   2.406
 2308TIP3   OH2 6929   3.750   2.344   1.491
 2308TIP3    H1 6930   3.700   2.401   1.433
 2308TIP3    H2 6931   3.815   2.401   1.533
 2309TIP3   OH2 6932   6.088   3.082   4.163
 2309TIP3    H1 6933   6.180   3.060   4.181
 2309TIP3    H2 6934   6.086   3.178   4.165
 2310TIP3   OH2 6935   1.313   5.190   4.190
 2310TIP3    H1 6936   1.255   5.225   4.258
 2310TIP3    H2 6937   1.357   5.267   4.154
 2311TIP3   OH2 6938   3.635   0.872   3.528
 2311TIP3    H1 6939   3.729   0.887   3.519
 2311TIP3    H2 6940   3.612   0.821   3.451
 2312TIP3   OH2 6941   4.189   2.729   2.944
 2312TIP3    H1 6942   4.148   2.704   3.027
 2312TIP3    H2 6943   4.117   2.763   2.891
 2313TIP3   OH2 6944   3.437   5.469   0.921
 2313TIP3    H1 6945   3.532   5.476   0.921
 2313TIP3    H2 6946   3.417   5.414   0.998
 2314TIP3   OH2 6947   3.280   0.535   1.531
 2314TIP3    H1 6948   3.208   0.474   1.548
 2314TIP3    H2 6949   3.280   0.546   1.435
 2315TIP3   OH2 6950   1.618   1.405   1.059
 2315TIP3    H1 6951   1.659   1.331   1.104
 2315TIP3    H2 6952   1.528   1.405   1.091
 2316TIP3   OH2 6953   1.399   5.507   1.252
 2316TIP3    H1 6954   1.410   5.468   1.339
 2316TIP3    H2 6955   1.400   5.432   1.192
 2317TIP3   OH2 6956   5.279   0.240   1.351
 2317TIP3    H1 6957   5.249   0.331   1.360
 2317TIP3    H2 6958   5.252   0.214   1.263
 2318TIP3   OH2 6959   0.350   1.542   2.305
 2318TIP3    H1 6960   0.352   1.470   2.243
 2318TIP3    H2 6961   0.416   1.603   2.273
 2319TIP3   OH2 6962   0.865   5.293   3.580
 2319TIP3    H1 6963   0.874   5.381   3.618
 2319TIP3    H2 6964   0.809   5.305   3.504
 2320TIP3   OH2 6965   5.548   0.246   1.469
 2320TIP3    H1 6966   5.512   0.324   1.510
 2320TIP3    H2 6967   5.485   0.222   1.401
 2321TIP3   OH2 6968   0.866   3.096   1.266
 2321TIP3    H1 6969   0.909   3.182   1.271
 2321TIP3    H2 6970   0.791   3.110   1.207
 2322TIP3   OH2 6971   4.626   2.398   1.663
 2322TIP3    H1 6972   4.627   2.414   1.568
 2322TIP3    H2 6973   4.533   2.393   1.685
 2323TIP3   OH2 6974   4.684   2.486   1.905
 2323TIP3    H1 6975   4.664   2.452   1.818
 2323TIP3    H2 6976   4.643   2.573   1.908
 2324TIP3   OH2 6977   1.892   4.735   4.267
 2324TIP3    H1 6978   1.860   4.736   4.177
 2324TIP3    H2 6979   1.841   4.665   4.308
 2325TIP3   OH2 6980   2.383   0.726   1.917
 2325TIP3    H1 6981   2.403   0.704   2.008
 2325TIP3    H2 6982   2.330   0.653   1.885
 2326TIP3   OH2 6983   3.308   0.451   2.364
 2326TIP3    H1 6984   3.277   0.425   2.451
 2326TIP3    H2 6985   3.229   0.480   2.318
 2327TIP3   OH2 6986   0.620   4.375   4.539
 2327TIP3    H1 6987   0.638   4.281   4.532
 2327TIP3    H2 6988   0.688   4.408   4.598
 2328TIP3   OH2 6989   5.547   3.800   2.233
 2328TIP3    H1 6990   5.584   3.782   2.146
 2328TIP3    H2 6991   5.615   3.772   2.294
 2329TIP3   OH2 6992   0.620   5.830   2.749
 2329TIP3    H1 6993   0.702   5.839   2.700
 2329TIP3    H2 6994   0.562   5.895   2.710
 2330TIP3   OH2 6995   3.022   4.268   0.095
 2330TIP3    H1 6996   3.084   4.320   0.145
 2330TIP3    H2 6997   3.022   4.182   0.136
 2331TIP3   OH2 6998   4.103   5.590   5.137
 2331TIP3    H1 6999   4.198   5.603   5.143
 2331TIP3    H2 7000   4.066   5.666   5.182
 2332TIP3   OH2 7001   0.639   5.464   0.677
 2332TIP3    H1 7002   0.546   5.468   0.657
 2332TIP3    H2 7003   0.647   5.390   0.737
 2333TIP3   OH2 7004   0.857   3.847   1.668
 2333TIP3    H1 7005   0.937   3.809   1.633
 2333TIP3    H2 7006   0.798   3.773   1.680
 2334TIP3   OH2 7007   4.860   1.569   3.649
 2334TIP3    H1 7008   4.811   1.647   3.675
 2334TIP3    H2 7009   4.919   1.600   3.580
 2335TIP3   OH2 7010   4.368   0.166   0.564
 2335TIP3    H1 7011   4.378   0.201   0.653
 2335TIP3    H2 7012   4.287   0.116   0.567
 2336TIP3   OH2 7013   5.546   1.582   4.135
 2336TIP3    H1 7014   5.595   1.653   4.094
 2336TIP3    H2 7015   5.607   1.544   4.198
 2337TIP3   OH2 7016   5.662   4.275   1.619
 2337TIP3    H1 7017   5.727   4.212   1.590
 2337TIP3    H2 7018   5.709   4.332   1.680
 2338TIP3   OH2 7019   3.999   4.530   3.873
 2338TIP3    H1 7020   3.980   4.611   3.920
 2338TIP3    H2 7021   3.928   4.470   3.897
 2339TIP3   OH2 7022   3.289   3.090   4.739
 2339TIP3    H1 7023   3.314   3.181   4.758
 2339TIP3    H2 7024   3.365   3.054   4.692
 2340TIP3   OH2 7025   5.381   1.234   2.564
 2340TIP3    H1 7026   5.340   1.190   2.639
 2340TIP3    H2 7027   5.473   1.207   2.569
 2341TIP3   OH2 7028   5.663   4.893   1.280
 2341TIP3    H1 7029   5.723   4.923   1.212
 2341TIP3    H2 7030   5.710   4.911   1.362
 2342TIP3   OH2 7031   1.216   1.297   1.436
 2342TIP3    H1 7032   1.208   1.202   1.433
 2342TIP3    H2 7033   1.305   1.313   1.466
 2343TIP3   OH2 7034   5.090   0.074   4.712
 2343TIP3    H1 7035   5.092   0.170   4.720
 2343TIP3    H2 7036   5.046   0.059   4.628
 2344TIP3   OH2 7037   4.787   3.731   4.292
 2344TIP3    H1 7038   4.839   3.760   4.367
 2344TIP3    H2 7039   4.838   3.760   4.216
 2345TIP3   OH2 7040   1.577   3.648   2.560
 2345TIP3    H1 7041   1.521   3.612   2.491
 2345TIP3    H2 7042   1.666   3.645   2.523
 2346TIP3   OH2 7043   4.737   3.768   4.908
 2346TIP3    H1 7044   4.644   3.771   4.933
 2346TIP3    H2 7045   4.740   3.806   4.821
 2347TIP3   OH2 7046   4.949   3.342   2.259
 2347TIP3    H1 7047   5.036   3.313   2.234
 2347TIP3    H2 7048   4.911   3.267   2.305
 2348TIP3   OH2 7049   1.472   2.092   1.962
 2348TIP3    H1 7050   1.561   2.088   1.997
 2348TIP3    H2 7051   1.444   2.182   1.976
 2349TIP3   OH2 7052   4.232   0.793   2.359
 2349TIP3    H1 7053   4.171   0.867   2.368
 2349TIP3    H2 7054   4.176   0.718   2.339
 2350TIP3   OH2 7055   0.389   5.762   0.371
 2350TIP3    H1 7056   0.327   5.834   0.379
 2350TIP3    H2 7057   0.335   5.682   0.375
 2351TIP3   OH2 7058   4.028   5.014   4.082
 2351TIP3    H1 7059   4.069   5.074   4.020
 2351TIP3    H2 7060   4.074   5.030   4.165
 2352TIP3   OH2 7061   5.704   0.446   0.039
 2352TIP3    H1 7062   5.759   0.522   0.025
 2352TIP3    H2 7063   5.694   0.440   0.134
 2353TIP3   OH2 7064   3.987   3.963   4.635
 2353TIP3    H1 7065   3.935   3.992   4.710
 2353TIP3    H2 7066   3.925   3.960   4.562
 2354TIP3   OH2 7067   1.887   0.784   4.060
 2354TIP3    H1 7068   1.909   0.716   4.124
 2354TIP3    H2 7069   1.910   0.866   4.102
 2355TIP3   OH2 7070   4.962   2.748   2.272
 2355TIP3    H1 7071   4.971   2.842   2.284
 2355TIP3    H2 7072   5.023   2.710   2.336
 2356TIP3   OH2 7073   0.074   2.074   4.367
 2356TIP3    H1 7074   0.110   1.988   4.343
 2356TIP3    H2 7075  -0.017   2.070   4.337
 2357TIP3   OH2 7076   5.087   4.139   4.957
 2357TIP3    H1 7077   5.182   4.150   4.952
 2357TIP3    H2 7078   5.054   4.223   4.990
 2358TIP3   OH2 7079   4.750   2.793   1.105
 2358TIP3    H1 7080   4.819   2.825   1.163
 2358TIP3    H2 7081   4.751   2.698   1.116
 2359TIP3   OH2 7082   1.352   1.040   1.018
 2359TIP3    H1 7083   1.298   1.115   1.043
 2359TIP3    H2 7084   1.433   1.051   1.067
 2360TIP3   OH2 7085   3.657   0.191   5.056
 2360TIP3    H1 7086   3.704   0.120   5.099
 2360TIP3    H2 7087   3.568   0.158   5.045
 2361TIP3   OH2 7088   1.383   2.883   0.468
 2361TIP3    H1 7089   1.444   2.835   0.523
 2361TIP3    H2 7090   1.326   2.816   0.431
 2362TIP3   OH2 7091   2.124   5.850   4.381
 2362TIP3    H1 7092   2.078   5.797   4.316
 2362TIP3    H2 7093   2.216   5.847   4.354
 2363TIP3   OH2 7094   1.941   5.592   0.104
 2363TIP3    H1 7095   1.990   5.670   0.130
 2363TIP3    H2 7096   1.853   5.623   0.084
 2364TIP3   OH2 7097   3.784  -0.002   3.318
 2364TIP3    H1 7098   3.868  -0.046   3.328
 2364TIP3    H2 7099   3.804   0.077   3.267
 2365TIP3   OH2 7100   2.145   1.222   4.785
 2365TIP3    H1 7101   2.188   1.307   4.790
 2365TIP3    H2 7102   2.148   1.188   4.874
 2366TIP3   OH2 7103   3.399   3.868   4.788
 2366TIP3    H1 7104   3.399   3.940   4.726
 2366TIP3    H2 7105   3.428   3.906   4.871
 2367TIP3   OH2 7106   2.270   5.384   5.150
 2367TIP3    H1 7107   2.297   5.297   5.121
 2367TIP3    H2 7108   2.293   5.386   5.243
 2368TIP3   OH2 7109   1.224   1.153   1.694
 2368TIP3    H1 7110   1.188   1.240   1.678
 2368TIP3    H2 7111   1.298   1.145   1.634
 2369TIP3   OH2 7112   2.433   0.375   2.754
 2369TIP3    H1 7113   2.442   0.355   2.847
 2369TIP3    H2 7114   2.484   0.455   2.742
 2370TIP3   OH2 7115   0.110   3.697   1.930
 2370TIP3    H1 7116   0.178   3.661   1.873
 2370TIP3    H2 7117   0.099   3.631   1.999
 2371TIP3   OH2 7118   5.442   2.032   3.397
 2371TIP3    H1 7119   5.429   1.984   3.479
 2371TIP3    H2 7120   5.427   1.966   3.328
 2372TIP3   OH2 7121   0.391   1.332   3.549
 2372TIP3    H1 7122   0.458   1.400   3.558
 2372TIP3    H2 7123   0.420   1.280   3.474
 2373TIP3   OH2 7124   3.474   5.234   4.762
 2373TIP3    H1 7125   3.413   5.305   4.781
 2373TIP3    H2 7126   3.560   5.276   4.759
 2374TIP3   OH2 7127   5.438   0.758   4.487
 2374TIP3    H1 7128   5.414   0.836   4.538
 2374TIP3    H2 7129   5.513   0.721   4.535
 2375TIP3   OH2 7130   0.945   0.673   4.088
 2375TIP3    H1 7131   0.882   0.704   4.023
 2375TIP3    H2 7132   0.934   0.733   4.162
 2376TIP3   OH2 7133   3.145   2.110   1.206
 2376TIP3    H1 7134   3.176   2.185   1.157
 2376TIP3    H2 7135   3.119   2.046   1.139
 2377TIP3   OH2 7136   5.117   4.770   1.642
 2377TIP3    H1 7137   5.033   4.808   1.616
 2377TIP3    H2 7138   5.109   4.756   1.736
 2378TIP3   OH2 7139   4.493   2.498   4.736
 2378TIP3    H1 7140   4.512   2.407   4.714
 2378TIP3    H2 7141   4.569   2.528   4.785
 2379TIP3   OH2 7142   4.400   3.342   3.242
 2379TIP3    H1 7143   4.427   3.256   3.274
 2379TIP3    H2 7144   4.474   3.400   3.264
 2380TIP3   OH2 7145   1.724   4.556   0.124
 2380TIP3    H1 7146   1.650   4.555   0.185
 2380TIP3    H2 7147   1.733   4.647   0.098
 2381TIP3   OH2 7148   2.523   0.055   3.842
 2381TIP3    H1 7149   2.497   0.067   3.750
 2381TIP3    H2 7150   2.449   0.012   3.883
 2382TIP3   OH2 7151   3.797   1.553   0.712
 2382TIP3    H1 7152   3.818   1.643   0.737
 2382TIP3    H2 7153   3.784   1.507   0.795
 2383TIP3   OH2 7154   2.069   4.294   0.127
 2383TIP3    H1 7155   2.125   4.365   0.099
 2383TIP3    H2 7156   1.988   4.306   0.078
 2384TIP3   OH2 7157   5.615   0.364   1.871
 2384TIP3    H1 7158   5.661   0.305   1.812
 2384TIP3    H2 7159   5.593   0.310   1.947
 2385TIP3   OH2 7160   0.694   0.742   2.138
 2385TIP3    H1 7161   0.737   0.700   2.064
 2385TIP3    H2 7162   0.603   0.752   2.111
 2386TIP3   OH2 7163   5.806   3.606   0.437
 2386TIP3    H1 7164   5.724   3.641   0.405
 2386TIP3    H2 7165   5.857   3.683   0.463
 2387TIP3   OH2 7166   4.279   1.856   3.835
 2387TIP3    H1 7167   4.268   1.820   3.923
 2387TIP3    H2 7168   4.217   1.929   3.830
 2388TIP3   OH2 7169   3.216   2.290   4.660
 2388TIP3    H1 7170   3.166   2.215   4.692
 2388TIP3    H2 7171   3.228   2.344   4.738
 2389TIP3   OH2 7172   0.440   4.542   3.920
 2389TIP3    H1 7173   0.533   4.542   3.940
 2389TIP3    H2 7174   0.435   4.515   3.828
 2390TIP3   OH2 7175   3.517   4.518   4.677
 2390TIP3    H1 7176   3.438   4.487   4.721
 2390TIP3    H2 7177   3.553   4.584   4.737
 2391TIP3   OH2 7178   1.262   1.100   4.107
 2391TIP3    H1 7179   1.279   1.016   4.150
 2391TIP3    H2 7180   1.220   1.076   4.024
 2392TIP3   OH2 7181   3.850   0.993   2.116
 2392TIP3    H1 7182   3.754   0.991   2.122
 2392TIP3    H2 7183   3.877   0.903   2.136
 2393TIP3   OH2 7184   2.320   4.006   0.637
 2393TIP3    H1 7185   2.380   4.063   0.591
 2393TIP3    H2 7186   2.293   3.941   0.572
 2394TIP3   OH2 7187   3.231   5.154   0.478
 2394TIP3    H1 7188   3.320   5.161   0.512
 2394TIP3    H2 7189   3.224   5.063   0.448
 2395TIP3   OH2 7190   0.863   1.662   1.745
 2395TIP3    H1 7191   0.926   1.663   1.672
 2395TIP3    H2 7192   0.853   1.754   1.768
 2396TIP3   OH2 7193   1.381   3.480   2.935
 2396TIP3    H1 7194   1.308   3.485   2.874
 2396TIP3    H2 7195   1.344   3.505   3.020
 2397TIP3   OH2 7196   1.606   4.292   2.266
 2397TIP3    H1 7197   1.624   4.244   2.347
 2397TIP3    H2 7198   1.693   4.313   2.231
 2398TIP3   OH2 7199   4.086   4.404   5.087
 2398TIP3    H1 7200   4.018   4.467   5.109
 2398TIP3    H2 7201   4.061   4.324   5.134
 2399TIP3   OH2 7202   1.625   5.677   3.414
 2399TIP3    H1 7203   1.700   5.677   3.473
 2399TIP3    H2 7204   1.619   5.767   3.383
 2400TIP3   OH2 7205   5.795   2.989   2.160
 2400TIP3    H1 7206   5.848   2.910   2.150
 2400TIP3    H2 7207   5.844   3.044   2.220
 2401TIP3   OH2 7208   0.773   2.713   4.890
 2401TIP3    H1 7209   0.828   2.672   4.823
 2401TIP3    H2 7210   0.812   2.684   4.973
 2402TIP3   OH2 7211   2.060   5.847   0.214
 2402TIP3    H1 7212   2.137   5.837   0.271
 2402TIP3    H2 7213   2.009   5.916   0.255
 2403TIP3   OH2 7214   3.125   5.755   3.703
 2403TIP3    H1 7215   3.061   5.808   3.654
 2403TIP3    H2 7216   3.152   5.687   3.642
 2404TIP3   OH2 7217   0.064   3.939   4.513
 2404TIP3    H1 7218   0.097   3.896   4.434
 2404TIP3    H2 7219   0.054   3.868   4.576
 2405TIP3   OH2 7220   2.041   3.624   1.875
 2405TIP3    H1 7221   2.087   3.552   1.833
 2405TIP3    H2 7222   2.043   3.695   1.810
 2406TIP3   OH2 7223   0.750   0.120   1.441
 2406TIP3    H1 7224   0.683   0.183   1.415
 2406TIP3    H2 7225   0.738   0.109   1.535
 2407TIP3   OH2 7226   2.512   0.630   1.358
 2407TIP3    H1 7227   2.599   0.657   1.326
 2407TIP3    H2 7228   2.495   0.689   1.431
 2408TIP3   OH2 7229   1.278   4.732   2.239
 2408TIP3    H1 7230   1.225   4.801   2.199
 2408TIP3    H2 7231   1.332   4.698   2.167
 2409TIP3   OH2 7232   3.903   3.349   0.051
 2409TIP3    H1 7233   3.811   3.368   0.032
 2409TIP3    H2 7234   3.947   3.434   0.047
 2410TIP3   OH2 7235   2.438   5.743   4.905
 2410TIP3    H1 7236   2.361   5.701   4.866
 2410TIP3    H2 7237   2.465   5.684   4.975
 2411TIP3   OH2 7238   5.201   4.299   1.769
 2411TIP3    H1 7239   5.109   4.322   1.786
 2411TIP3    H2 7240   5.204   4.204   1.778
 2412TIP3   OH2 7241   1.723   2.513   0.695
 2412TIP3    H1 7242   1.805   2.552   0.664
 2412TIP3    H2 7243   1.737   2.419   0.686
 2413TIP3   OH2 7244   5.151   0.826   0.068
 2413TIP3    H1 7245   5.169   0.850  -0.023
 2413TIP3    H2 7246   5.107   0.741   0.062
 2414TIP3   OH2 7247   5.824   4.020   2.639
 2414TIP3    H1 7248   5.748   4.010   2.582
 2414TIP3    H2 7249   5.890   3.961   2.601
 2415TIP3   OH2 7250   2.749   3.515   2.547
 2415TIP3    H1 7251   2.716   3.479   2.465
 2415TIP3    H2 7252   2.838   3.545   2.527
 2416TIP3   OH2 7253   4.898   5.832   0.289
 2416TIP3    H1 7254   4.818   5.877   0.316
 2416TIP3    H2 7255   4.961   5.851   0.359
 2417TIP3   OH2 7256   0.187   5.722   4.486
 2417TIP3    H1 7257   0.237   5.642   4.474
 2417TIP3    H2 7258   0.097   5.698   4.465
 2418TIP3   OH2 7259   3.669   0.975   1.694
 2418TIP3    H1 7260   3.643   1.053   1.744
 2418TIP3    H2 7261   3.762   0.988   1.675
 2419TIP3   OH2 7262   4.467   2.062   3.954
 2419TIP3    H1 7263   4.456   2.017   3.870
 2419TIP3    H2 7264   4.513   1.999   4.009
 2420TIP3   OH2 7265   5.061   3.289   0.849
 2420TIP3    H1 7266   5.101   3.224   0.792
 2420TIP3    H2 7267   4.967   3.271   0.844
 2421TIP3   OH2 7268   5.737   1.426   1.539
 2421TIP3    H1 7269   5.714   1.453   1.450
 2421TIP3    H2 7270   5.728   1.505   1.591
 2422TIP3   OH2 7271   3.670   2.513   4.119
 2422TIP3    H1 7272   3.713   2.502   4.204
 2422TIP3    H2 7273   3.635   2.602   4.121
 2423TIP3   OH2 7274   0.930   3.413   3.334
 2423TIP3    H1 7275   1.015   3.448   3.307
 2423TIP3    H2 7276   0.952   3.347   3.400
 2424TIP3   OH2 7277   1.397   3.516   1.964
 2424TIP3    H1 7278   1.430   3.458   1.896
 2424TIP3    H2 7279   1.311   3.544   1.933
 2425TIP3   OH2 7280   4.256   1.680   0.190
 2425TIP3    H1 7281   4.311   1.641   0.259
 2425TIP3    H2 7282   4.308   1.753   0.157
 2426TIP3   OH2 7283   2.012   4.616   2.986
 2426TIP3    H1 7284   2.028   4.705   2.955
 2426TIP3    H2 7285   1.935   4.587   2.938
 2427TIP3   OH2 7286   4.285   4.502   1.597
 2427TIP3    H1 7287   4.296   4.422   1.545
 2427TIP3    H2 7288   4.296   4.573   1.534
 2428TIP3   OH2 7289   5.336   4.145   0.238
 2428TIP3    H1 7290   5.341   4.228   0.190
 2428TIP3    H2 7291   5.358   4.079   0.172
 2429TIP3   OH2 7292   2.240   5.034   3.335
 2429TIP3    H1 7293   2.205   5.020   3.422
 2429TIP3    H2 7294   2.164   5.063   3.283
 2430TIP3   OH2 7295   4.714   3.009   2.945
 2430TIP3    H1 7296   4.638   2.976   2.994
 2430TIP3    H2 7297   4.727   3.098   2.979
 2431TIP3   OH2 7298   1.702   5.427   4.382
 2431TIP3    H1 7299   1.754   5.435   4.462
 2431TIP3    H2 7300   1.620   5.473   4.402
 2432TIP3   OH2 7301   5.172   3.452   2.029
 2432TIP3    H1 7302   5.089   3.434   1.986
 2432TIP3    H2 7303   5.155   3.531   2.081
 2433TIP3   OH2 7304   0.689   5.915   0.293
 2433TIP3    H1 7305   0.643   5.909   0.377
 2433TIP3    H2 7306   0.775   5.875   0.311
 2434TIP3   OH2 7307   3.113   3.630   3.956
 2434TIP3    H1 7308   3.158   3.714   3.971
 2434TIP3    H2 7309   3.184   3.569   3.936
 2435TIP3   OH2 7310   5.496   3.334   0.508
 2435TIP3    H1 7311   5.591   3.342   0.515
 2435TIP3    H2 7312   5.481   3.304   0.418
 2436TIP3   OH2 7313  -0.027   0.855   4.357
 2436TIP3    H1 7314   0.041   0.802   4.314
 2436TIP3    H2 7315  -0.094   0.791   4.383
 2437TIP3   OH2 7316   0.225   3.383   1.383
 2437TIP3    H1 7317   0.162   3.454   1.371
 2437TIP3    H2 7318   0.185   3.326   1.448
 2438TIP3   OH2 7319   5.518   3.449   0.250
 2438TIP3    H1 7320   5.575   3.420   0.179
 2438TIP3    H2 7321   5.560   3.528   0.285
 2439TIP3   OH2 7322   3.923   5.063   2.854
 2439TIP3    H1 7323   3.848   5.059   2.794
 2439TIP3    H2 7324   3.970   5.143   2.827
 2440TIP3   OH2 7325   4.357   5.320   3.390
 2440TIP3    H1 7326   4.335   5.265   3.466
 2440TIP3    H2 7327   4.445   5.292   3.366
 2441TIP3   OH2 7328   1.269   4.689   2.826
 2441TIP3    H1 7329   1.174   4.700   2.828
 2441TIP3    H2 7330   1.282   4.594   2.820
 2442TIP3   OH2 7331   1.640   3.129   1.703
 2442TIP3    H1 7332   1.551   3.119   1.737
 2442TIP3    H2 7333   1.644   3.220   1.674
 2443TIP3   OH2 7334   5.644   3.307   1.323
 2443TIP3    H1 7335   5.687   3.355   1.252
 2443TIP3    H2 7336   5.712   3.298   1.390
 2444TIP3   OH2 7337   5.025   2.670   2.570
 2444TIP3    H1 7338   5.016   2.593   2.627
 2444TIP3    H2 7339   5.088   2.726   2.615
 2445TIP3   OH2 7340   0.425   0.496   0.312
 2445TIP3    H1 7341   0.436   0.585   0.347
 2445TIP3    H2 7342   0.464   0.500   0.225
 2446TIP3   OH2 7343   0.238   3.667   2.895
 2446TIP3    H1 7344   0.149   3.640   2.918
 2446TIP3    H2 7345   0.231   3.704   2.808
 2447TIP3   OH2 7346   2.518   2.549   0.841
 2447TIP3    H1 7347   2.502   2.480   0.904
 2447TIP3    H2 7348   2.609   2.576   0.856
 2448TIP3   OH2 7349   1.425   2.402   0.516
 2448TIP3    H1 7350   1.492   2.369   0.456
 2448TIP3    H2 7351   1.449   2.367   0.602
 2449TIP3   OH2 7352   5.595   3.735   0.332
 2449TIP3    H1 7353   5.514   3.777   0.363
 2449TIP3    H2 7354   5.618   3.784   0.253
 2450TIP3   OH2 7355   2.935   2.542   1.239
 2450TIP3    H1 7356   2.914   2.635   1.245
 2450TIP3    H2 7357   2.853   2.497   1.255
 2451TIP3   OH2 7358   3.587   5.226   4.386
 2451TIP3    H1 7359   3.531   5.151   4.365
 2451TIP3    H2 7360   3.527   5.301   4.385
 2452TIP3   OH2 7361   1.417   5.066   4.825
 2452TIP3    H1 7362   1.399   5.067   4.919
 2452TIP3    H2 7363   1.382   4.982   4.794
 2453TIP3   OH2 7364   2.323   1.270   4.142
 2453TIP3    H1 7365   2.344   1.267   4.235
 2453TIP3    H2 7366   2.374   1.199   4.103
 2454TIP3   OH2 7367   5.014   5.873   0.774
 2454TIP3    H1 7368   5.081   5.806   0.788
 2454TIP3    H2 7369   5.062   5.949   0.742
 2455TIP3   OH2 7370   3.696   4.211   2.665
 2455TIP3    H1 7371   3.649   4.145   2.613
 2455TIP3    H2 7372   3.636   4.285   2.670
 2456TIP3   OH2 7373   5.696   1.651   3.638
 2456TIP3    H1 7374   5.656   1.664   3.552
 2456TIP3    H2 7375   5.692   1.557   3.653
 2457TIP3   OH2 7376   5.588   4.538   3.558
 2457TIP3    H1 7377   5.677   4.507   3.576
 2457TIP3    H2 7378   5.599   4.630   3.535
 2458TIP3   OH2 7379   4.312   0.728   2.881
 2458TIP3    H1 7380   4.263   0.750   2.802
 2458TIP3    H2 7381   4.246   0.704   2.946
 2459TIP3   OH2 7382   5.044   1.293   0.242
 2459TIP3    H1 7383   5.123   1.238   0.241
 2459TIP3    H2 7384   4.976   1.238   0.203
 2460TIP3   OH2 7385   3.831   3.907   3.568
 2460TIP3    H1 7386   3.815   3.889   3.661
 2460TIP3    H2 7387   3.858   3.822   3.532
 2461TIP3   OH2 7388   4.841   5.090   3.630
 2461TIP3    H1 7389   4.918   5.117   3.679
 2461TIP3    H2 7390   4.875   5.061   3.545
 2462TIP3   OH2 7391   0.850   0.879   2.329
 2462TIP3    H1 7392   0.796   0.837   2.262
 2462TIP3    H2 7393   0.923   0.818   2.342
 2463TIP3   OH2 7394   4.073   3.618   1.164
 2463TIP3    H1 7395   4.153   3.656   1.128
 2463TIP3    H2 7396   4.048   3.550   1.101
 2464TIP3   OH2 7397   0.722   4.396   1.578
 2464TIP3    H1 7398   0.775   4.354   1.510
 2464TIP3    H2 7399   0.679   4.469   1.533
 2465TIP3   OH2 7400   1.012   1.335   4.637
 2465TIP3    H1 7401   1.085   1.389   4.667
 2465TIP3    H2 7402   0.959   1.321   4.716
 2466TIP3   OH2 7403   2.995   2.194   1.429
 2466TIP3    H1 7404   3.048   2.273   1.419
 2466TIP3    H2 7405   3.002   2.150   1.345
 2467TIP3   OH2 7406   1.776   5.866   1.370
 2467TIP3    H1 7407   1.836   5.820   1.310
 2467TIP3    H2 7408   1.713   5.800   1.396
 2468TIP3   OH2 7409   0.049   5.553   4.798
 2468TIP3    H1 7410   0.115   5.489   4.826
 2468TIP3    H2 7411  -0.011   5.559   4.872
 2469TIP3   OH2 7412   3.372   5.276   1.967
 2469TIP3    H1 7413   3.383   5.325   1.885
 2469TIP3    H2 7414   3.447   5.301   2.020
 2470TIP3   OH2 7415   1.416   0.841   2.292
 2470TIP3    H1 7416   1.485   0.835   2.227
 2470TIP3    H2 7417   1.338   0.810   2.247
 2471TIP3   OH2 7418   2.220   1.420   3.272
 2471TIP3    H1 7419   2.234   1.338   3.319
 2471TIP3    H2 7420   2.306   1.463   3.273
 2472TIP3   OH2 7421   2.476   1.751   4.084
 2472TIP3    H1 7422   2.436   1.675   4.127
 2472TIP3    H2 7423   2.454   1.825   4.140
 2473TIP3   OH2 7424   4.782   0.230   4.023
 2473TIP3    H1 7425   4.834   0.175   3.965
 2473TIP3    H2 7426   4.836   0.308   4.036
 2474TIP3   OH2 7427   3.968   4.201   3.673
 2474TIP3    H1 7428   3.960   4.192   3.768
 2474TIP3    H2 7429   3.984   4.112   3.642
 2475TIP3   OH2 7430   5.582   2.461   2.119
 2475TIP3    H1 7431   5.593   2.540   2.172
 2475TIP3    H2 7432   5.487   2.453   2.107
 2476TIP3   OH2 7433   1.453   5.897   2.931
 2476TIP3    H1 7434   1.519   5.952   2.890
 2476TIP3    H2 7435   1.492   5.810   2.935
 2477TIP3   OH2 7436   1.908   2.216   2.803
 2477TIP3    H1 7437   1.836   2.226   2.741
 2477TIP3    H2 7438   1.955   2.138   2.772
 2478TIP3   OH2 7439   1.634   3.662   1.548
 2478TIP3    H1 7440   1.612   3.692   1.636
 2478TIP3    H2 7441   1.669   3.574   1.561
 2479TIP3   OH2 7442   4.588   4.291   3.548
 2479TIP3    H1 7443   4.588   4.263   3.640
 2479TIP3    H2 7444   4.536   4.371   3.547
 2480TIP3   OH2 7445   2.252   3.841   0.416
 2480TIP3    H1 7446   2.254   3.749   0.440
 2480TIP3    H2 7447   2.338   3.858   0.378
 2481TIP3   OH2 7448   3.828   1.831   4.235
 2481TIP3    H1 7449   3.758   1.862   4.293
 2481TIP3    H2 7450   3.782   1.786   4.164
 2482TIP3   OH2 7451   0.174   0.856   2.629
 2482TIP3    H1 7452   0.119   0.882   2.702
 2482TIP3    H2 7453   0.252   0.817   2.670
 2483TIP3   OH2 7454   2.034   5.639   3.759
 2483TIP3    H1 7455   1.952   5.680   3.787
 2483TIP3    H2 7456   2.007   5.573   3.695
 2484TIP3   OH2 7457   4.178   5.330   0.113
 2484TIP3    H1 7458   4.208   5.401   0.056
 2484TIP3    H2 7459   4.222   5.347   0.196
 2485TIP3   OH2 7460   2.490   1.353   2.771
 2485TIP3    H1 7461   2.534   1.365   2.687
 2485TIP3    H2 7462   2.488   1.440   2.810
 2486TIP3   OH2 7463   0.736   2.665   1.748
 2486TIP3    H1 7464   0.770   2.735   1.692
 2486TIP3    H2 7465   0.790   2.670   1.827
 2487TIP3   OH2 7466   1.790   0.461   2.696
 2487TIP3    H1 7467   1.834   0.428   2.618
 2487TIP3    H2 7468   1.809   0.555   2.697
 2488TIP3   OH2 7469   3.084   5.384   1.573
 2488TIP3    H1 7470   3.137   5.442   1.629
 2488TIP3    H2 7471   3.142   5.311   1.553
 2489TIP3   OH2 7472   5.421   4.900   3.919
 2489TIP3    H1 7473   5.457   4.828   3.971
 2489TIP3    H2 7474   5.431   4.872   3.828
 2490TIP3   OH2 7475   1.902   3.229   4.493
 2490TIP3    H1 7476   1.986   3.184   4.479
 2490TIP3    H2 7477   1.911   3.310   4.444
 2491TIP3   OH2 7478   2.321   0.765   3.716
 2491TIP3    H1 7479   2.344   0.688   3.767
 2491TIP3    H2 7480   2.378   0.760   3.638
 2492TIP3   OH2 7481   4.826   0.510   2.465
 2492TIP3    H1 7482   4.783   0.524   2.550
 2492TIP3    H2 7483   4.873   0.427   2.476
 2493TIP3   OH2 7484   2.784   3.581   3.196
 2493TIP3    H1 7485   2.874   3.597   3.225
 2493TIP3    H2 7486   2.733   3.650   3.238
 2494TIP3   OH2 7487   0.439   5.132   1.221
 2494TIP3    H1 7488   0.480   5.084   1.149
 2494TIP3    H2 7489   0.503   5.200   1.243
 2495TIP3   OH2 7490   5.859   1.519   5.002
 2495TIP3    H1 7491   5.851   1.424   5.010
 2495TIP3    H2 7492   5.856   1.552   5.092
 2496TIP3   OH2 7493   1.432   2.731   0.140
 2496TIP3    H1 7494   1.504   2.705   0.198
 2496TIP3    H2 7495   1.408   2.651   0.094
 2497TIP3   OH2 7496   2.186   5.585   2.466
 2497TIP3    H1 7497   2.218   5.620   2.383
 2497TIP3    H2 7498   2.175   5.661   2.523
 2498TIP3   OH2 7499   5.881   2.419   1.647
 2498TIP3    H1 7500   5.810   2.463   1.694
 2498TIP3    H2 7501   5.839   2.344   1.605
 2499TIP3   OH2 7502   1.931   3.822   0.623
 2499TIP3    H1 7503   1.892   3.735   0.625
 2499TIP3    H2 7504   1.989   3.820   0.547
 2500TIP3   OH2 7505   4.558   0.250   2.972
 2500TIP3    H1 7506   4.562   0.332   3.021
 2500TIP3    H2 7507   4.546   0.183   3.039
 2501TIP3   OH2 7508   1.584   5.320   4.927
 2501TIP3    H1 7509   1.659   5.281   4.972
 2501TIP3    H2 7510   1.572   5.265   4.849
 2502TIP3   OH2 7511   0.693   1.987   4.479
 2502TIP3    H1 7512   0.739   1.941   4.549
 2502TIP3    H2 7513   0.629   1.923   4.447
 2503TIP3   OH2 7514   3.007   4.632   1.479
 2503TIP3    H1 7515   2.984   4.557   1.533
 2503TIP3    H2 7516   2.974   4.610   1.392
 2504TIP3   OH2 7517   5.075   1.788   0.937
 2504TIP3    H1 7518   5.025   1.726   0.989
 2504TIP3    H2 7519   5.126   1.733   0.877
 2505TIP3   OH2 7520   2.321   5.363   2.511
 2505TIP3    H1 7521   2.266   5.440   2.525
 2505TIP3    H2 7522   2.287   5.298   2.572
 2506TIP3   OH2 7523   1.423   4.324   3.592
 2506TIP3    H1 7524   1.489   4.383   3.557
 2506TIP3    H2 7525   1.359   4.381   3.634
 2507TIP3   OH2 7526   3.640   3.834   1.261
 2507TIP3    H1 7527   3.636   3.758   1.203
 2507TIP3    H2 7528   3.560   3.883   1.242
 2508TIP3   OH2 7529   4.753   2.051   2.268
 2508TIP3    H1 7530   4.822   2.086   2.324
 2508TIP3    H2 7531   4.774   1.958   2.260
 2509TIP3   OH2 7532   4.550   0.011   3.099
 2509TIP3    H1 7533   4.515   0.023   3.187
 2509TIP3    H2 7534   4.622  -0.050   3.110
 2510TIP3   OH2 7535   1.492   5.209   1.247
 2510TIP3    H1 7536   1.581   5.218   1.214
 2510TIP3    H2 7537   1.500   5.218   1.342
 2511TIP3   OH2 7538   1.623   4.710   3.089
 2511TIP3    H1 7539   1.579   4.793   3.069
 2511TIP3    H2 7540   1.697   4.735   3.145
 2512TIP3   OH2 7541   3.245   4.731   4.167
 2512TIP3    H1 7542   3.261   4.825   4.178
 2512TIP3    H2 7543   3.332   4.692   4.163
 2513TIP3   OH2 7544   1.596   3.118   1.055
 2513TIP3    H1 7545   1.560   3.034   1.084
 2513TIP3    H2 7546   1.644   3.152   1.130
 2514TIP3   OH2 7547   2.548   3.619   0.589
 2514TIP3    H1 7548   2.557   3.606   0.683
 2514TIP3    H2 7549   2.518   3.709   0.580
 2515TIP3   OH2 7550   0.103   3.465   1.737
 2515TIP3    H1 7551   0.100   3.393   1.674
 2515TIP3    H2 7552   0.122   3.422   1.821
 2516TIP3   OH2 7553   5.869   3.090   3.558
 2516TIP3    H1 7554   5.809   3.075   3.630
 2516TIP3    H2 7555   5.941   3.028   3.572
 2517TIP3   OH2 7556   4.756   3.044   0.998
 2517TIP3    H1 7557   4.666   3.047   0.966
 2517TIP3    H2 7558   4.764   2.958   1.040
 2518TIP3   OH2 7559   5.328   1.430   0.220
 2518TIP3    H1 7560   5.323   1.366   0.291
 2518TIP3    H2 7561   5.242   1.427   0.179
 2519TIP3   OH2 7562   4.750   3.361   4.195
 2519TIP3    H1 7563   4.845   3.348   4.201
 2519TIP3    H2 7564   4.713   3.276   4.220
 2520TIP3   OH2 7565   0.124   4.107   1.015
 2520TIP3    H1 7566   0.069   4.167   1.064
 2520TIP3    H2 7567   0.109   4.021   1.056
 2521TIP3   OH2 7568   2.101   2.117   4.973
 2521TIP3    H1 7569   2.116   2.078   5.060
 2521TIP3    H2 7570   2.188   2.121   4.934
 2522TIP3   OH2 7571   2.738   1.710   0.812
 2522TIP3    H1 7572   2.653   1.748   0.838
 2522TIP3    H2 7573   2.780   1.778   0.760
 2523TIP3   OH2 7574   1.841   3.301   0.441
 2523TIP3    H1 7575   1.887   3.316   0.524
 2523TIP3    H2 7576   1.859   3.379   0.389
 2524TIP3   OH2 7577   2.956   0.350   4.987
 2524TIP3    H1 7578   2.961   0.298   4.907
 2524TIP3    H2 7579   2.865   0.382   4.989
 2525TIP3   OH2 7580   4.277   0.208   0.317
 2525TIP3    H1 7581   4.186   0.178   0.314
 2525TIP3    H2 7582   4.291   0.232   0.409
 2526TIP3   OH2 7583   1.137   2.365   1.494
 2526TIP3    H1 7584   1.104   2.452   1.516
 2526TIP3    H2 7585   1.070   2.305   1.528
 2527TIP3   OH2 7586   1.349   2.235   2.975
 2527TIP3    H1 7587   1.300   2.166   2.930
 2527TIP3    H2 7588   1.433   2.194   2.998
 2528TIP3   OH2 7589   1.883   2.805   2.298
 2528TIP3    H1 7590   1.845   2.892   2.306
 2528TIP3    H2 7591   1.907   2.780   2.387
 2529TIP3   OH2 7592   5.396   4.262   3.960
 2529TIP3    H1 7593   5.396   4.351   3.924
 2529TIP3    H2 7594   5.356   4.273   4.047
 2530TIP3   OH2 7595   1.303   3.764   4.156
 2530TIP3    H1 7596   1.260   3.787   4.073
 2530TIP3    H2 7597   1.392   3.738   4.130
 2531TIP3   OH2 7598   5.553   0.264   3.120
 2531TIP3    H1 7599   5.466   0.304   3.125
 2531TIP3    H2 7600   5.563   0.241   3.028
 2532TIP3   OH2 7601   0.321   0.054   1.281
 2532TIP3    H1 7602   0.328   0.149   1.293
 2532TIP3    H2 7603   0.268   0.024   1.355
 2533TIP3   OH2 7604   5.881   4.056   1.613
 2533TIP3    H1 7605   5.963   4.104   1.612
 2533TIP3    H2 7606   5.861   4.040   1.521
 2534TIP3   OH2 7607   1.018   3.331   0.335
 2534TIP3    H1 7608   1.061   3.369   0.259
 2534TIP3    H2 7609   1.028   3.237   0.324
 2535TIP3   OH2 7610   1.902   4.146   0.428
 2535TIP3    H1 7611   1.922   4.052   0.426
 2535TIP3    H2 7612   1.874   4.167   0.339
 2536TIP3   OH2 7613   3.667   1.216   4.538
 2536TIP3    H1 7614   3.702   1.215   4.627
 2536TIP3    H2 7615   3.580   1.256   4.546
 2537TIP3   OH2 7616   5.921   2.100   4.785
 2537TIP3    H1 7617   6.016   2.091   4.773
 2537TIP3    H2 7618   5.888   2.120   4.697
 2538TIP3   OH2 7619   2.755   3.980   3.366
 2538TIP3    H1 7620   2.727   3.899   3.407
 2538TIP3    H2 7621   2.706   3.984   3.284
 2539TIP3   OH2 7622   1.486   1.962   0.514
 2539TIP3    H1 7623   1.579   1.941   0.522
 2539TIP3    H2 7624   1.444   1.877   0.502
 2540TIP3   OH2 7625   5.295   2.954   1.151
 2540TIP3    H1 7626   5.341   3.038   1.152
 2540TIP3    H2 7627   5.283   2.934   1.058
 2541TIP3   OH2 7628   1.392   5.573   3.004
 2541TIP3    H1 7629   1.415   5.550   2.914
 2541TIP3    H2 7630   1.329   5.506   3.031
 2542TIP3   OH2 7631   4.569   3.243   0.681
 2542TIP3    H1 7632   4.524   3.224   0.599
 2542TIP3    H2 7633   4.539   3.330   0.706
 2543TIP3   OH2 7634   5.841   0.734   2.098
 2543TIP3    H1 7635   5.773   0.667   2.089
 2543TIP3    H2 7636   5.794   0.816   2.105
 2544TIP3   OH2 7637   3.814   2.221   2.711
 2544TIP3    H1 7638   3.791   2.254   2.624
 2544TIP3    H2 7639   3.909   2.211   2.708
 2545TIP3   OH2 7640   0.503   2.341   0.828
 2545TIP3    H1 7641   0.586   2.345   0.779
 2545TIP3    H2 7642   0.477   2.249   0.822
 2546TIP3   OH2 7643   2.726   0.727   1.204
 2546TIP3    H1 7644   2.691   0.659   1.146
 2546TIP3    H2 7645   2.777   0.784   1.146
 2547TIP3   OH2 7646   6.125   1.836   2.942
 2547TIP3    H1 7647   6.074   1.802   3.015
 2547TIP3    H2 7648   6.085   1.921   2.922
 2548TIP3   OH2 7649   0.224   2.509   2.615
 2548TIP3    H1 7650   0.208   2.514   2.709
 2548TIP3    H2 7651   0.307   2.556   2.603
 2549TIP3   OH2 7652   1.928   0.542   3.375
 2549TIP3    H1 7653   1.921   0.628   3.335
 2549TIP3    H2 7654   2.017   0.538   3.409
 2550TIP3   OH2 7655   3.372   1.475   1.127
 2550TIP3    H1 7656   3.314   1.458   1.052
 2550TIP3    H2 7657   3.378   1.571   1.130
 2551TIP3   OH2 7658   1.790   5.291   4.168
 2551TIP3    H1 7659   1.880   5.281   4.201
 2551TIP3    H2 7660   1.741   5.322   4.244
 2552TIP3   OH2 7661   3.512   0.155   2.458
 2552TIP3    H1 7662   3.453   0.224   2.487
 2552TIP3    H2 7663   3.461   0.074   2.466
 2553TIP3   OH2 7664   6.291   5.150   2.696
 2553TIP3    H1 7665   6.224   5.195   2.644
 2553TIP3    H2 7666   6.265   5.165   2.787
 2554TIP3   OH2 7667   4.359   3.652   5.001
 2554TIP3    H1 7668   4.266   3.638   5.019
 2554TIP3    H2 7669   4.371   3.747   5.007
 2555TIP3   OH2 7670   4.900   4.582   1.397
 2555TIP3    H1 7671   4.959   4.542   1.461
 2555TIP3    H2 7672   4.840   4.511   1.372
 2556TIP3   OH2 7673   2.648   1.420   3.149
 2556TIP3    H1 7674   2.743   1.409   3.149
 2556TIP3    H2 7675   2.622   1.407   3.240
 2557TIP3   OH2 7676   3.862   1.950  -0.013
 2557TIP3    H1 7677   3.952   1.979  -0.027
 2557TIP3    H2 7678   3.848   1.960   0.081
 2558TIP3   OH2 7679   2.466   3.308   2.122
 2558TIP3    H1 7680   2.448   3.214   2.124
 2558TIP3    H2 7681   2.474   3.329   2.029
 2559TIP3   OH2 7682   5.519   2.552   2.828
 2559TIP3    H1 7683   5.588   2.492   2.799
 2559TIP3    H2 7684   5.560   2.608   2.892
 2560TIP3   OH2 7685   2.921   0.695   3.531
 2560TIP3    H1 7686   2.972   0.705   3.611
 2560TIP3    H2 7687   2.981   0.722   3.461
 2561TIP3   OH2 7688   3.277   2.476   3.451
 2561TIP3    H1 7689   3.299   2.398   3.401
 2561TIP3    H2 7690   3.199   2.451   3.501
 2562TIP3   OH2 7691   5.070   5.457   5.110
 2562TIP3    H1 7692   5.071   5.548   5.140
 2562TIP3    H2 7693   5.113   5.459   5.025
 2563TIP3   OH2 7694   4.034   2.121   3.137
 2563TIP3    H1 7695   3.940   2.102   3.136
 2563TIP3    H2 7696   4.060   2.109   3.228
 2564TIP3   OH2 7697   0.697   3.025   3.129
 2564TIP3    H1 7698   0.613   3.017   3.173
 2564TIP3    H2 7699   0.762   3.013   3.199
 2565TIP3   OH2 7700   1.267   4.371   1.398
 2565TIP3    H1 7701   1.230   4.368   1.486
 2565TIP3    H2 7702   1.201   4.328   1.343
 2566TIP3   OH2 7703   6.000   1.168   0.359
 2566TIP3    H1 7704   5.977   1.132   0.274
 2566TIP3    H2 7705   5.922   1.217   0.386
 2567TIP3   OH2 7706   5.850   4.030   1.910
 2567TIP3    H1 7707   5.852   4.047   1.816
 2567TIP3    H2 7708   5.835   4.116   1.950
 2568TIP3   OH2 7709   3.837   5.289   2.462
 2568TIP3    H1 7710   3.857   5.200   2.491
 2568TIP3    H2 7711   3.762   5.279   2.403
 2569TIP3   OH2 7712   5.419   1.418   3.271
 2569TIP3    H1 7713   5.357   1.347   3.254
 2569TIP3    H2 7714   5.388   1.457   3.353
 2570TIP3   OH2 7715   4.668   3.968   4.154
 2570TIP3    H1 7716   4.672   3.903   4.225
 2570TIP3    H2 7717   4.722   4.040   4.185
 2571TIP3   OH2 7718   4.549   1.648   2.168
 2571TIP3    H1 7719   4.636   1.635   2.204
 2571TIP3    H2 7720   4.493   1.663   2.244
 2572TIP3   OH2 7721   4.142   0.983   2.030
 2572TIP3    H1 7722   4.053   0.961   2.058
 2572TIP3    H2 7723   4.132   1.063   1.978
 2573TIP3   OH2 7724   0.185   2.455   3.211
 2573TIP3    H1 7725   0.159   2.508   3.286
 2573TIP3    H2 7726   0.241   2.387   3.248
 2574TIP3   OH2 7727   3.244   4.683   1.352
 2574TIP3    H1 7728   3.168   4.664   1.407
 2574TIP3    H2 7729   3.217   4.759   1.300
 2575TIP3   OH2 7730   2.964   1.587   0.035
 2575TIP3    H1 7731   3.034   1.649   0.018
 2575TIP3    H2 7732   2.904   1.597  -0.038
 2576TIP3   OH2 7733   3.690   1.583   2.356
 2576TIP3    H1 7734   3.663   1.530   2.281
 2576TIP3    H2 7735   3.737   1.657   2.318
 2577TIP3   OH2 7736   6.173   4.590   1.408
 2577TIP3    H1 7737   6.243   4.654   1.401
 2577TIP3    H2 7738   6.206   4.526   1.472
 2578TIP3   OH2 7739   5.351   1.024   3.579
 2578TIP3    H1 7740   5.344   1.076   3.499
 2578TIP3    H2 7741   5.398   1.080   3.641
 2579TIP3   OH2 7742   4.993   3.706   4.818
 2579TIP3    H1 7743   4.907   3.719   4.858
 2579TIP3    H2 7744   5.055   3.737   4.885
 2580TIP3   OH2 7745   6.108   0.707   0.312
 2580TIP3    H1 7746   6.075   0.776   0.254
 2580TIP3    H2 7747   6.201   0.726   0.323
 2581TIP3   OH2 7748   5.466   2.076   0.731
 2581TIP3    H1 7749   5.464   2.071   0.826
 2581TIP3    H2 7750   5.466   2.169   0.711
 2582TIP3   OH2 7751   4.350   1.674   1.631
 2582TIP3    H1 7752   4.412   1.683   1.559
 2582TIP3    H2 7753   4.275   1.628   1.592
 2583TIP3   OH2 7754   0.817   3.708   4.576
 2583TIP3    H1 7755   0.761   3.707   4.654
 2583TIP3    H2 7756   0.886   3.645   4.596
 2584TIP3   OH2 7757   4.662   0.419   3.485
 2584TIP3    H1 7758   4.615   0.463   3.414
 2584TIP3    H2 7759   4.710   0.489   3.529
 2585TIP3   OH2 7760   5.462   1.397   0.727
 2585TIP3    H1 7761   5.525   1.327   0.746
 2585TIP3    H2 7762   5.386   1.352   0.691
 2586TIP3   OH2 7763   1.879   1.554   3.769
 2586TIP3    H1 7764   1.868   1.531   3.861
 2586TIP3    H2 7765   1.794   1.535   3.729
 2587TIP3   OH2 7766   0.280   1.315   5.059
 2587TIP3    H1 7767   0.307   1.280   4.974
 2587TIP3    H2 7768   0.357   1.360   5.092
 2588TIP3   OH2 7769   3.284   2.679   3.903
 2588TIP3    H1 7770   3.207   2.731   3.884
 2588TIP3    H2 7771   3.303   2.632   3.822
 2589TIP3   OH2 7772   6.129   1.490   2.956
 2589TIP3    H1 7773   6.197   1.428   2.983
 2589TIP3    H2 7774   6.165   1.533   2.878
 2590TIP3   OH2 7775   1.227   3.430   2.704
 2590TIP3    H1 7776   1.136   3.450   2.685
 2590TIP3    H2 7777   1.272   3.443   2.621
 2591TIP3   OH2 7778   5.481   4.075   2.321
 2591TIP3    H1 7779   5.483   3.980   2.313
 2591TIP3    H2 7780   5.418   4.103   2.255
 2592TIP3   OH2 7781   5.257   4.314   2.538
 2592TIP3    H1 7782   5.223   4.337   2.624
 2592TIP3    H2 7783   5.180   4.291   2.487
 2593TIP3   OH2 7784   4.750   5.069   1.285
 2593TIP3    H1 7785   4.786   4.982   1.270
 2593TIP3    H2 7786   4.698   5.061   1.365
 2594TIP3   OH2 7787   2.367   4.432   0.272
 2594TIP3    H1 7788   2.295   4.371   0.255
 2594TIP3    H2 7789   2.333   4.491   0.340
 2595TIP3   OH2 7790   5.948   1.272   1.563
 2595TIP3    H1 7791   5.978   1.323   1.638
 2595TIP3    H2 7792   5.863   1.311   1.540
 2596TIP3   OH2 7793   4.442   4.985   2.618
 2596TIP3    H1 7794   4.528   4.957   2.586
 2596TIP3    H2 7795   4.455   5.000   2.712
 2597TIP3   OH2 7796   5.102   4.668   4.074
 2597TIP3    H1 7797   5.035   4.735   4.066
 2597TIP3    H2 7798   5.161   4.683   4.000
 2598TIP3   OH2 7799   4.841   0.899   4.014
 2598TIP3    H1 7800   4.926   0.856   4.005
 2598TIP3    H2 7801   4.778   0.832   3.992
 2599TIP3   OH2 7802   1.555   1.172   0.245
 2599TIP3    H1 7803   1.486   1.119   0.286
 2599TIP3    H2 7804   1.629   1.113   0.236
 2600TIP3   OH2 7805   0.326   1.032   4.357
 2600TIP3    H1 7806   0.248   1.075   4.320
 2600TIP3    H2 7807   0.399   1.067   4.307
 2601TIP3   OH2 7808   5.313   4.598   4.265
 2601TIP3    H1 7809   5.317   4.668   4.331
 2601TIP3    H2 7810   5.237   4.620   4.211
 2602TIP3   OH2 7811   2.953   4.092   0.391
 2602TIP3    H1 7812   3.005   4.135   0.459
 2602TIP3    H2 7813   2.869   4.073   0.434
 2603TIP3   OH2 7814   5.980   2.674   1.158
 2603TIP3    H1 7815   5.946   2.586   1.172
 2603TIP3    H2 7816   5.933   2.728   1.222
 2604TIP3   OH2 7817   3.220   0.046   4.463
 2604TIP3    H1 7818   3.168   0.017   4.538
 2604TIP3    H2 7819   3.162   0.106   4.415
 2605TIP3   OH2 7820   1.443   4.915   4.121
 2605TIP3    H1 7821   1.355   4.911   4.157
 2605TIP3    H2 7822   1.446   4.996   4.071
 2606TIP3   OH2 7823   1.695   4.979   3.782
 2606TIP3    H1 7824   1.688   5.024   3.698
 2606TIP3    H2 7825   1.655   5.038   3.845
 2607TIP3   OH2 7826   0.209   4.323   4.968
 2607TIP3    H1 7827   0.150   4.390   5.003
 2607TIP3    H2 7828   0.164   4.290   4.890
 2608TIP3   OH2 7829   4.977   0.758   2.077
 2608TIP3    H1 7830   5.064   0.788   2.053
 2608TIP3    H2 7831   4.973   0.767   2.172
 2609TIP3   OH2 7832   0.289   4.846   2.543
 2609TIP3    H1 7833   0.245   4.902   2.607
 2609TIP3    H2 7834   0.289   4.897   2.462
 2610TIP3   OH2 7835   5.421   3.585   3.182
 2610TIP3    H1 7836   5.334   3.626   3.180
 2610TIP3    H2 7837   5.477   3.647   3.135
 2611TIP3   OH2 7838   2.432   1.520   0.964
 2611TIP3    H1 7839   2.350   1.567   0.950
 2611TIP3    H2 7840   2.466   1.504   0.876
 2612TIP3   OH2 7841   3.905   1.454   3.701
 2612TIP3    H1 7842   3.946   1.451   3.787
 2612TIP3    H2 7843   3.814   1.477   3.719
 2613TIP3   OH2 7844   3.370   5.312   3.434
 2613TIP3    H1 7845   3.340   5.362   3.358
 2613TIP3    H2 7846   3.403   5.379   3.494
 2614TIP3   OH2 7847   5.340   1.063   0.858
 2614TIP3    H1 7848   5.307   1.141   0.904
 2614TIP3    H2 7849   5.353   1.092   0.768
 2615TIP3   OH2 7850   0.016   0.434   2.309
 2615TIP3    H1 7851   0.102   0.425   2.349
 2615TIP3    H2 7852   0.021   0.513   2.255
 2616TIP3   OH2 7853   6.062   4.265   3.303
 2616TIP3    H1 7854   6.007   4.275   3.380
 2616TIP3    H2 7855   6.131   4.203   3.330
 2617TIP3   OH2 7856   3.902   1.447   2.007
 2617TIP3    H1 7857   3.900   1.374   2.070
 2617TIP3    H2 7858   3.869   1.522   2.056
 2618TIP3   OH2 7859   0.528   4.903   3.117
 2618TIP3    H1 7860   0.525   4.820   3.068
 2618TIP3    H2 7861   0.481   4.965   3.062
 2619TIP3   OH2 7862   5.738   1.208   3.178
 2619TIP3    H1 7863   5.744   1.115   3.158
 2619TIP3    H2 7864   5.746   1.252   3.093
 2620TIP3   OH2 7865   0.944   5.598   1.268
 2620TIP3    H1 7866   0.976   5.686   1.288
 2620TIP3    H2 7867   0.913   5.604   1.177
 2621TIP3   OH2 7868   0.416   1.289   4.823
 2621TIP3    H1 7869   0.366   1.239   4.759
 2621TIP3    H2 7870   0.507   1.281   4.793
 2622TIP3   OH2 7871   4.492   3.362   2.263
 2622TIP3    H1 7872   4.464   3.356   2.355
 2622TIP3    H2 7873   4.486   3.273   2.230
 2623TIP3   OH2 7874   2.503   3.508   0.847
 2623TIP3    H1 7875   2.446   3.580   0.876
 2623TIP3    H2 7876   2.451   3.429   0.863
 2624TIP3   OH2 7877   3.481   1.951   0.157
 2624TIP3    H1 7878   3.516   2.025   0.207
 2624TIP3    H2 7879   3.415   1.912   0.214
 2625TIP3   OH2 7880   5.213   2.289   4.390
 2625TIP3    H1 7881   5.212   2.342   4.470
 2625TIP3    H2 7882   5.146   2.222   4.405
 2626TIP3   OH2 7883   0.823   3.584   0.035
 2626TIP3    H1 7884   0.766   3.507   0.044
 2626TIP3    H2 7885   0.832   3.618   0.124
 2627TIP3   OH2 7886   4.981   4.322   1.046
 2627TIP3    H1 7887   4.915   4.387   1.020
 2627TIP3    H2 7888   5.065   4.367   1.032
 2628TIP3   OH2 7889   3.342   2.814   1.309
 2628TIP3    H1 7890   3.293   2.896   1.307
 2628TIP3    H2 7891   3.277   2.749   1.336
 2629TIP3   OH2 7892   2.649   2.109   2.847
 2629TIP3    H1 7893   2.661   2.183   2.908
 2629TIP3    H2 7894   2.578   2.058   2.886
 2630TIP3   OH2 7895   5.263   2.059   3.046
 2630TIP3    H1 7896   5.354   2.039   3.021
 2630TIP3    H2 7897   5.258   2.154   3.041
 2631TIP3   OH2 7898   2.174   5.704   1.501
 2631TIP3    H1 7899   2.176   5.701   1.406
 2631TIP3    H2 7900   2.139   5.618   1.527
 2632TIP3   OH2 7901   0.728   2.805   4.198
 2632TIP3    H1 7902   0.721   2.718   4.237
 2632TIP3    H2 7903   0.809   2.841   4.234
 2633TIP3   OH2 7904   6.069   4.859   4.343
 2633TIP3    H1 7905   6.061   4.939   4.291
 2633TIP3    H2 7906   6.038   4.884   4.430
 2634TIP3   OH2 7907   1.927   4.385   4.697
 2634TIP3    H1 7908   1.920   4.297   4.660
 2634TIP3    H2 7909   2.010   4.418   4.664
 2635TIP3   OH2 7910   1.479   0.112   2.594
 2635TIP3    H1 7911   1.517   0.041   2.647
 2635TIP3    H2 7912   1.534   0.115   2.516
 2636TIP3   OH2 7913   1.025   2.638   4.376
 2636TIP3    H1 7914   1.037   2.720   4.329
 2636TIP3    H2 7915   0.983   2.662   4.458
 2637TIP3   OH2 7916   2.061   2.746   0.313
 2637TIP3    H1 7917   1.973   2.725   0.280
 2637TIP3    H2 7918   2.053   2.834   0.349
 2638TIP3   OH2 7919   4.582   3.973   3.875
 2638TIP3    H1 7920   4.616   3.976   3.964
 2638TIP3    H2 7921   4.644   3.917   3.828
 2639TIP3   OH2 7922   2.836   4.025   5.102
 2639TIP3    H1 7923   2.820   4.119   5.109
 2639TIP3    H2 7924   2.921   4.018   5.059
 2640TIP3   OH2 7925   3.164   3.936   2.207
 2640TIP3    H1 7926   3.252   3.972   2.218
 2640TIP3    H2 7927   3.175   3.842   2.219
 2641TIP3   OH2 7928   0.594   5.284   0.873
 2641TIP3    H1 7929   0.504   5.304   0.897
 2641TIP3    H2 7930   0.640   5.280   0.957
 2642TIP3   OH2 7931   2.732   0.524   3.607
 2642TIP3    H1 7932   2.647   0.543   3.566
 2642TIP3    H2 7933   2.793   0.584   3.565
 2643TIP3   OH2 7934   1.415   1.975   1.127
 2643TIP3    H1 7935   1.320   1.965   1.121
 2643TIP3    H2 7936   1.447   1.960   1.038
 2644TIP3   OH2 7937   3.924   5.742   4.395
 2644TIP3    H1 7938   3.889   5.700   4.317
 2644TIP3    H2 7939   4.018   5.726   4.391
 2645TIP3   OH2 7940   3.130   5.568   0.498
 2645TIP3    H1 7941   3.122   5.663   0.490
 2645TIP3    H2 7942   3.183   5.554   0.576
 2646TIP3   OH2 7943   4.048   2.650   0.601
 2646TIP3    H1 7944   3.989   2.689   0.536
 2646TIP3    H2 7945   4.027   2.556   0.599
 2647TIP3   OH2 7946   3.661   4.128   3.928
 2647TIP3    H1 7947   3.626   4.179   3.855
 2647TIP3    H2 7948   3.660   4.037   3.898
 2648TIP3   OH2 7949   0.102   3.158   2.338
 2648TIP3    H1 7950   0.080   3.096   2.408
 2648TIP3    H2 7951   0.132   3.236   2.384
 2649TIP3   OH2 7952   1.242   4.084   2.644
 2649TIP3    H1 7953   1.284   4.149   2.587
 2649TIP3    H2 7954   1.293   4.004   2.630
 2650TIP3   OH2 7955   2.093   4.538   0.983
 2650TIP3    H1 7956   2.087   4.551   0.889
 2650TIP3    H2 7957   2.151   4.462   0.993
 2651TIP3   OH2 7958   1.408   2.844   3.391
 2651TIP3    H1 7959   1.482   2.793   3.423
 2651TIP3    H2 7960   1.420   2.847   3.296
 2652TIP3   OH2 7961   5.936   5.107   1.802
 2652TIP3    H1 7962   5.922   5.184   1.856
 2652TIP3    H2 7963   6.008   5.131   1.743
 2653TIP3   OH2 7964   3.164   1.767   3.372
 2653TIP3    H1 7965   3.182   1.673   3.371
 2653TIP3    H2 7966   3.250   1.808   3.374
 2654TIP3   OH2 7967   1.583   2.641   1.266
 2654TIP3    H1 7968   1.641   2.705   1.307
 2654TIP3    H2 7969   1.636   2.600   1.198
 2655TIP3   OH2 7970   0.526   4.155   2.202
 2655TIP3    H1 7971   0.565   4.071   2.226
 2655TIP3    H2 7972   0.568   4.218   2.260
 2656TIP3   OH2 7973   4.711   5.491   4.799
 2656TIP3    H1 7974   4.709   5.415   4.740
 2656TIP3    H2 7975   4.618   5.511   4.814
 2657TIP3   OH2 7976   5.494   4.832   4.672
 2657TIP3    H1 7977   5.581   4.795   4.691
 2657TIP3    H2 7978   5.513   4.915   4.628
 2658TIP3   OH2 7979   0.150   1.068   3.107
 2658TIP3    H1 7980   0.152   1.147   3.162
 2658TIP3    H2 7981   0.196   1.002   3.159
 2659TIP3   OH2 7982   1.728   4.546   2.912
 2659TIP3    H1 7983   1.670   4.551   2.836
 2659TIP3    H2 7984   1.689   4.606   2.976
 2660TIP3   OH2 7985   4.562   0.926   1.920
 2660TIP3    H1 7986   4.487   0.935   1.978
 2660TIP3    H2 7987   4.566   1.008   1.872
 2661TIP3   OH2 7988   1.213   4.551   2.475
 2661TIP3    H1 7989   1.164   4.534   2.555
 2661TIP3    H2 7990   1.169   4.627   2.436
 2662TIP3   OH2 7991   3.782   2.799   1.510
 2662TIP3    H1 7992   3.779   2.703   1.514
 2662TIP3    H2 7993   3.727   2.821   1.434
 2663TIP3   OH2 7994   5.912   2.739   5.148
 2663TIP3    H1 7995   5.862   2.729   5.067
 2663TIP3    H2 7996   5.897   2.830   5.175
 2664TIP3   OH2 7997   4.753   1.001   4.363
 2664TIP3    H1 7998   4.745   0.928   4.301
 2664TIP3    H2 7999   4.773   1.077   4.308
 2665TIP3   OH2 8000   3.876   0.843   3.399
 2665TIP3    H1 8001   3.962   0.886   3.393
 2665TIP3    H2 8002   3.892   0.766   3.454
 2666TIP3   OH2 8003   4.462   4.640   0.971
 2666TIP3    H1 8004   4.425   4.640   0.883
 2666TIP3    H2 8005   4.503   4.726   0.980
 2667TIP3   OH2 8006   5.293   5.263   1.767
 2667TIP3    H1 8007   5.316   5.174   1.794
 2667TIP3    H2 8008   5.337   5.275   1.683
 2668TIP3   OH2 8009   4.800   4.983   2.837
 2668TIP3    H1 8010   4.841   5.023   2.913
 2668TIP3    H2 8011   4.742   4.916   2.874
 2669TIP3   OH2 8012   2.353   1.403   1.985
 2669TIP3    H1 8013   2.370   1.497   1.974
 2669TIP3    H2 8014   2.438   1.367   2.012
 2670TIP3   OH2 8015   3.459   5.528   3.593
 2670TIP3    H1 8016   3.555   5.536   3.588
 2670TIP3    H2 8017   3.435   5.575   3.672
 2671TIP3   OH2 8018   1.550   2.575   0.907
 2671TIP3    H1 8019   1.583   2.530   0.985
 2671TIP3    H2 8020   1.624   2.576   0.847
 2672TIP3   OH2 8021   4.783   4.175   2.010
 2672TIP3    H1 8022   4.736   4.239   2.064
 2672TIP3    H2 8023   4.716   4.137   1.954
 2673TIP3   OH2 8024   3.405   1.872   3.323
 2673TIP3    H1 8025   3.458   1.842   3.249
 2673TIP3    H2 8026   3.336   1.926   3.284
 2674TIP3   OH2 8027   4.979   3.693   1.905
 2674TIP3    H1 8028   4.949   3.603   1.894
 2674TIP3    H2 8029   4.961   3.713   1.997
 2675TIP3   OH2 8030   0.826   2.161   5.045
 2675TIP3    H1 8031   0.857   2.223   4.979
 2675TIP3    H2 8032   0.730   2.168   5.042
 2676TIP3   OH2 8033   6.143   3.439   4.891
 2676TIP3    H1 8034   6.139   3.351   4.930
 2676TIP3    H2 8035   6.103   3.496   4.955
 2677TIP3   OH2 8036   1.389   4.225   4.436
 2677TIP3    H1 8037   1.322   4.279   4.394
 2677TIP3    H2 8038   1.387   4.143   4.388
 2678TIP3   OH2 8039   5.370   3.706   4.808
 2678TIP3    H1 8040   5.319   3.759   4.747
 2678TIP3    H2 8041   5.370   3.756   4.890
 2679TIP3   OH2 8042   5.099   2.447   0.957
 2679TIP3    H1 8043   5.024   2.505   0.964
 2679TIP3    H2 8044   5.083   2.378   1.022
 2680TIP3   OH2 8045   2.888   0.197   4.181
 2680TIP3    H1 8046   2.810   0.245   4.209
 2680TIP3    H2 8047   2.955   0.218   4.246
 2681TIP3   OH2 8048   5.127   2.283   1.164
 2681TIP3    H1 8049   5.210   2.326   1.185
 2681TIP3    H2 8050   5.152   2.194   1.139
 2682TIP3   OH2 8051   5.624   5.355   4.168
 2682TIP3    H1 8052   5.626   5.409   4.247
 2682TIP3    H2 8053   5.558   5.396   4.112
 2683TIP3   OH2 8054   5.265   5.802   4.676
 2683TIP3    H1 8055   5.298   5.864   4.741
 2683TIP3    H2 8056   5.171   5.821   4.671
 2684TIP3   OH2 8057   3.023   2.412   3.564
 2684TIP3    H1 8058   3.055   2.331   3.523
 2684TIP3    H2 8059   2.939   2.386   3.603
 2685TIP3   OH2 8060   1.046   2.247   3.471
 2685TIP3    H1 8061   0.962   2.242   3.424
 2685TIP3    H2 8062   1.112   2.251   3.402
 2686TIP3   OH2 8063   4.885   0.342   2.856
 2686TIP3    H1 8064   4.977   0.334   2.833
 2686TIP3    H2 8065   4.885   0.359   2.951
 2687TIP3   OH2 8066   5.805   3.880   3.961
 2687TIP3    H1 8067   5.864   3.871   4.035
 2687TIP3    H2 8068   5.725   3.835   3.989
 2688TIP3   OH2 8069   0.523   3.883   1.710
 2688TIP3    H1 8070   0.591   3.934   1.666
 2688TIP3    H2 8071   0.551   3.880   1.802
 2689TIP3   OH2 8072   2.930   0.990   4.645
 2689TIP3    H1 8073   2.854   1.025   4.692
 2689TIP3    H2 8074   2.990   0.961   4.714
 2690TIP3   OH2 8075   4.354   0.506   3.906
 2690TIP3    H1 8076   4.414   0.465   3.970
 2690TIP3    H2 8077   4.267   0.478   3.933
 2691TIP3   OH2 8078   1.750   2.347   1.349
 2691TIP3    H1 8079   1.738   2.428   1.298
 2691TIP3    H2 8080   1.662   2.314   1.364
 2692TIP3   OH2 8081   1.117   4.356   0.101
 2692TIP3    H1 8082   1.136   4.429   0.043
 2692TIP3    H2 8083   1.067   4.295   0.047
 2693TIP3   OH2 8084   4.340   5.898   5.021
 2693TIP3    H1 8085   4.412   5.935   4.970
 2693TIP3    H2 8086   4.266   5.898   4.960
 2694TIP3   OH2 8087   6.245   5.273   3.360
 2694TIP3    H1 8088   6.196   5.220   3.423
 2694TIP3    H2 8089   6.236   5.225   3.278
 2695TIP3   OH2 8090   5.384   1.085   1.453
 2695TIP3    H1 8091   5.417   1.016   1.395
 2695TIP3    H2 8092   5.311   1.044   1.499
 2696TIP3   OH2 8093   0.880   2.865   0.649
 2696TIP3    H1 8094   0.870   2.810   0.571
 2696TIP3    H2 8095   0.970   2.850   0.678
 2697TIP3   OH2 8096   1.983   5.398   5.149
 2697TIP3    H1 8097   1.981   5.456   5.225
 2697TIP3    H2 8098   2.075   5.374   5.140
 2698TIP3   OH2 8099   5.375   4.749   1.319
 2698TIP3    H1 8100   5.423   4.812   1.265
 2698TIP3    H2 8101   5.290   4.739   1.275
 2699TIP3   OH2 8102   4.509   2.609   0.905
 2699TIP3    H1 8103   4.507   2.516   0.882
 2699TIP3    H2 8104   4.421   2.627   0.938
 2700TIP3   OH2 8105   0.706   5.133   2.211
 2700TIP3    H1 8106   0.652   5.098   2.140
 2700TIP3    H2 8107   0.689   5.227   2.211
 2701TIP3   OH2 8108   1.393   4.783   1.191
 2701TIP3    H1 8109   1.456   4.845   1.227
 2701TIP3    H2 8110   1.348   4.747   1.268
 2702TIP3   OH2 8111   5.989   4.588   1.215
 2702TIP3    H1 8112   6.020   4.617   1.129
 2702TIP3    H2 8113   6.062   4.607   1.274
 2703TIP3   OH2 8114   1.022   1.243   3.660
 2703TIP3    H1 8115   1.074   1.230   3.581
 2703TIP3    H2 8116   1.019   1.338   3.672
 2704TIP3   OH2 8117   6.031   1.692   2.549
 2704TIP3    H1 8118   5.991   1.745   2.618
 2704TIP3    H2 8119   6.101   1.643   2.593
 2705TIP3   OH2 8120   0.818   0.907   2.982
 2705TIP3    H1 8121   0.828   0.976   2.916
 2705TIP3    H2 8122   0.834   0.952   3.065
 2706TIP3   OH2 8123   1.491   0.089   4.494
 2706TIP3    H1 8124   1.571   0.131   4.525
 2706TIP3    H2 8125   1.446   0.061   4.574
 2707TIP3   OH2 8126   2.284   3.275   5.174
 2707TIP3    H1 8127   2.294   3.367   5.200
 2707TIP3    H2 8128   2.346   3.228   5.230
 2708TIP3   OH2 8129   4.828   5.070   3.105
 2708TIP3    H1 8130   4.826   5.166   3.106
 2708TIP3    H2 8131   4.741   5.044   3.135
 2709TIP3   OH2 8132   5.358   1.126   2.256
 2709TIP3    H1 8133   5.439   1.176   2.249
 2709TIP3    H2 8134   5.368   1.076   2.337
 2710TIP3   OH2 8135   5.008   5.562   4.758
 2710TIP3    H1 8136   5.082   5.522   4.804
 2710TIP3    H2 8137   4.936   5.500   4.770
 2711TIP3   OH2 8138   4.164   4.598   3.017
 2711TIP3    H1 8139   4.131   4.688   3.018
 2711TIP3    H2 8140   4.244   4.601   3.069
 2712TIP3   OH2 8141   4.722   1.708   5.102
 2712TIP3    H1 8142   4.782   1.761   5.154
 2712TIP3    H2 8143   4.773   1.631   5.077
 2713TIP3   OH2 8144   0.326   1.613   2.623
 2713TIP3    H1 8145   0.349   1.705   2.639
 2713TIP3    H2 8146   0.332   1.604   2.528
 2714TIP3   OH2 8147   4.615   1.487   4.361
 2714TIP3    H1 8148   4.690   1.488   4.421
 2714TIP3    H2 8149   4.651   1.521   4.279
 2715TIP3   OH2 8150   3.117   0.889   4.862
 2715TIP3    H1 8151   3.077   0.826   4.921
 2715TIP3    H2 8152   3.160   0.835   4.795
 2716TIP3   OH2 8153   3.850   5.840   2.806
 2716TIP3    H1 8154   3.910   5.865   2.736
 2716TIP3    H2 8155   3.763   5.862   2.772
 2717TIP3   OH2 8156   5.107   0.333   3.436
 2717TIP3    H1 8157   5.115   0.337   3.341
 2717TIP3    H2 8158   5.013   0.332   3.452
 2718TIP3   OH2 8159   2.551   0.270   0.792
 2718TIP3    H1 8160   2.638   0.310   0.781
 2718TIP3    H2 8161   2.543   0.210   0.718
 2719TIP3   OH2 8162   3.480   1.802   1.300
 2719TIP3    H1 8163   3.465   1.788   1.207
 2719TIP3    H2 8164   3.531   1.883   1.304
 2720TIP3   OH2 8165   0.208   4.046   1.855
 2720TIP3    H1 8166   0.288   4.076   1.899
 2720TIP3    H2 8167   0.217   4.079   1.766
 2721TIP3   OH2 8168   3.832   4.741   2.802
 2721TIP3    H1 8169   3.815   4.828   2.838
 2721TIP3    H2 8170   3.745   4.703   2.787
 2722TIP3   OH2 8171   5.195   4.074   0.930
 2722TIP3    H1 8172   5.184   4.114   1.016
 2722TIP3    H2 8173   5.290   4.067   0.919
 2723TIP3   OH2 8174   6.322   4.366   0.553
 2723TIP3    H1 8175   6.245   4.310   0.552
 2723TIP3    H2 8176   6.386   4.320   0.498
 2724TIP3   OH2 8177   3.412   3.619   4.217
 2724TIP3    H1 8178   3.442   3.668   4.140
 2724TIP3    H2 8179   3.418   3.681   4.289
 2725TIP3   OH2 8180   5.902   1.682   4.109
 2725TIP3    H1 8181   5.895   1.675   4.013
 2725TIP3    H2 8182   5.829   1.738   4.134
 2726TIP3   OH2 8183   4.475   2.025   4.733
 2726TIP3    H1 8184   4.549   1.997   4.679
 2726TIP3    H2 8185   4.398   1.995   4.684
 2727TIP3   OH2 8186   4.307   3.643   3.176
 2727TIP3    H1 8187   4.334   3.721   3.225
 2727TIP3    H2 8188   4.330   3.663   3.085
 2728TIP3   OH2 8189   5.403   1.933   4.503
 2728TIP3    H1 8190   5.485   1.890   4.480
 2728TIP3    H2 8191   5.347   1.862   4.535
 2729TIP3   OH2 8192   1.150   5.267   2.711
 2729TIP3    H1 8193   1.182   5.187   2.670
 2729TIP3    H2 8194   1.106   5.237   2.791
 2730TIP3   OH2 8195   1.838   1.258   0.123
 2730TIP3    H1 8196   1.805   1.171   0.146
 2730TIP3    H2 8197   1.856   1.299   0.208
 2731TIP3   OH2 8198   4.675   1.654   0.042
 2731TIP3    H1 8199   4.711   1.717  -0.021
 2731TIP3    H2 8200   4.580   1.666   0.036
 2732TIP3   OH2 8201   4.217   0.400   3.048
 2732TIP3    H1 8202   4.312   0.385   3.054
 2732TIP3    H2 8203   4.203   0.426   2.957
 2733TIP3   OH2 8204   6.179   3.349   3.525
 2733TIP3    H1 8205   6.088   3.371   3.545
 2733TIP3    H2 8206   6.230   3.409   3.578
 2734TIP3   OH2 8207   0.553   2.507   0.166
 2734TIP3    H1 8208   0.597   2.495   0.251
 2734TIP3    H2 8209   0.564   2.600   0.146
 2735TIP3   OH2 8210   5.991   1.107   2.343
 2735TIP3    H1 8211   5.948   1.171   2.400
 2735TIP3    H2 8212   5.963   1.022   2.376
 2736TIP3   OH2 8213   2.706   1.213   4.720
 2736TIP3    H1 8214   2.679   1.303   4.702
 2736TIP3    H2 8215   2.762   1.219   4.797
 2737TIP3   OH2 8216   2.344   2.276   0.408
 2737TIP3    H1 8217   2.376   2.366   0.419
 2737TIP3    H2 8218   2.360   2.234   0.493
 2738TIP3   OH2 8219   6.053   5.734   3.544
 2738TIP3    H1 8220   5.959   5.720   3.535
 2738TIP3    H2 8221   6.093   5.660   3.499
 2739TIP3   OH2 8222   4.439   0.089   4.157
 2739TIP3    H1 8223   4.379   0.109   4.086
 2739TIP3    H2 8224   4.510   0.040   4.115
 2740TIP3   OH2 8225   5.741   1.194   1.152
 2740TIP3    H1 8226   5.799   1.244   1.210
 2740TIP3    H2 8227   5.658   1.191   1.200
 2741TIP3   OH2 8228   4.617   5.267   0.104
 2741TIP3    H1 8229   4.697   5.232   0.142
 2741TIP3    H2 8230   4.562   5.290   0.179
 2742TIP3   OH2 8231   5.428   0.879   1.254
 2742TIP3    H1 8232   5.334   0.891   1.238
 2742TIP3    H2 8233   5.467   0.873   1.167
 2743TIP3   OH2 8234   2.511   1.626   2.043
 2743TIP3    H1 8235   2.585   1.685   2.029
 2743TIP3    H2 8236   2.444   1.680   2.086
 2744TIP3   OH2 8237   5.229   0.159   4.110
 2744TIP3    H1 8238   5.295   0.162   4.179
 2744TIP3    H2 8239   5.275   0.186   4.031
 2745TIP3   OH2 8240   3.631   0.050   0.810
 2745TIP3    H1 8241   3.665  -0.035   0.779
 2745TIP3    H2 8242   3.690   0.074   0.881
 2746TIP3   OH2 8243   3.053   2.663   3.686
 2746TIP3    H1 8244   3.110   2.725   3.640
 2746TIP3    H2 8245   3.065   2.581   3.639
 2747TIP3   OH2 8246   5.896   5.975   2.417
 2747TIP3    H1 8247   5.837   5.899   2.417
 2747TIP3    H2 8248   5.950   5.964   2.339
 2748TIP3   OH2 8249   2.034   4.029   1.644
 2748TIP3    H1 8250   1.957   4.005   1.591
 2748TIP3    H2 8251   2.103   3.971   1.614
 2749TIP3   OH2 8252   5.015   0.572   4.647
 2749TIP3    H1 8253   5.106   0.603   4.652
 2749TIP3    H2 8254   4.969   0.639   4.597
 2750TIP3   OH2 8255   0.862   2.853   2.412
 2750TIP3    H1 8256   0.868   2.899   2.496
 2750TIP3    H2 8257   0.770   2.831   2.404
 2751TIP3   OH2 8258   5.689   4.031   4.640
 2751TIP3    H1 8259   5.720   4.087   4.569
 2751TIP3    H2 8260   5.599   4.008   4.616
 2752TIP3   OH2 8261   2.396   3.617   2.583
 2752TIP3    H1 8262   2.457   3.659   2.523
 2752TIP3    H2 8263   2.325   3.680   2.594
 2753TIP3   OH2 8264   1.373   1.955   3.534
 2753TIP3    H1 8265   1.364   2.046   3.564
 2753TIP3    H2 8266   1.398   1.962   3.442
 2754TIP3   OH2 8267   4.823   2.450   2.965
 2754TIP3    H1 8268   4.880   2.407   3.029
 2754TIP3    H2 8269   4.831   2.544   2.984
 2755TIP3   OH2 8270   1.819   0.108   4.479
 2755TIP3    H1 8271   1.767   0.029   4.496
 2755TIP3    H2 8272   1.842   0.101   4.386
 2756TIP3   OH2 8273   4.178   4.611   4.270
 2756TIP3    H1 8274   4.106   4.551   4.286
 2756TIP3    H2 8275   4.193   4.654   4.354
 2757TIP3   OH2 8276   4.599   5.926   1.935
 2757TIP3    H1 8277   4.639   6.013   1.935
 2757TIP3    H2 8278   4.666   5.869   1.973
 2758TIP3   OH2 8279   5.393   1.941   0.502
 2758TIP3    H1 8280   5.425   2.014   0.449
 2758TIP3    H2 8281   5.419   1.963   0.591
 2759TIP3   OH2 8282   1.515   0.254   1.215
 2759TIP3    H1 8283   1.493   0.233   1.306
 2759TIP3    H2 8284   1.602   0.293   1.221
 2760TIP3   OH2 8285   5.489   0.803   3.727
 2760TIP3    H1 8286   5.447   0.868   3.670
 2760TIP3    H2 8287   5.541   0.855   3.788
 2761TIP3   OH2 8288   1.944   4.830   4.958
 2761TIP3    H1 8289   1.949   4.924   4.940
 2761TIP3    H2 8290   1.851   4.811   4.956
 2762TIP3   OH2 8291   0.767   2.428   1.579
 2762TIP3    H1 8292   0.759   2.507   1.632
 2762TIP3    H2 8293   0.820   2.454   1.504
 2763TIP3   OH2 8294   1.892   3.886   2.595
 2763TIP3    H1 8295   1.805   3.922   2.610
 2763TIP3    H2 8296   1.919   3.922   2.510
 2764TIP3   OH2 8297   4.157   1.644   2.447
 2764TIP3    H1 8298   4.144   1.593   2.367
 2764TIP3    H2 8299   4.068   1.665   2.477
 2765TIP3   OH2 8300   1.505   5.983   4.553
 2765TIP3    H1 8301   1.561   6.029   4.490
 2765TIP3    H2 8302   1.562   5.919   4.594
 2766TIP3   OH2 8303   5.532   5.720   1.641
 2766TIP3    H1 8304   5.453   5.682   1.678
 2766TIP3    H2 8305   5.596   5.649   1.642
 2767TIP3   OH2 8306   1.473   0.370   0.522
 2767TIP3    H1 8307   1.433   0.355   0.436
 2767TIP3    H2 8308   1.493   0.282   0.554
 2768TIP3   OH2 8309   2.859   2.327   2.001
 2768TIP3    H1 8310   2.954   2.325   1.990
 2768TIP3    H2 8311   2.827   2.374   1.924
 2769TIP3   OH2 8312   2.160   3.016   0.119
 2769TIP3    H1 8313   2.256   3.009   0.123
 2769TIP3    H2 8314   2.135   2.961   0.045
 2770TIP3   OH2 8315   2.640  -0.014   2.522
 2770TIP3    H1 8316   2.722  -0.044   2.482
 2770TIP3    H2 8317   2.633   0.078   2.497
 2771TIP3   OH2 8318   2.122   0.233   3.511
 2771TIP3    H1 8319   2.072   0.268   3.583
 2771TIP3    H2 8320   2.069   0.161   3.477
 2772TIP3   OH2 8321   1.366   0.550   2.921
 2772TIP3    H1 8322   1.433   0.604   2.879
 2772TIP3    H2 8323   1.360   0.473   2.865
 2773TIP3   OH2 8324   0.862   1.027   4.954
 2773TIP3    H1 8325   0.786   1.040   5.012
 2773TIP3    H2 8326   0.912   1.108   4.961
 2774TIP3   OH2 8327   4.799   5.237   2.738
 2774TIP3    H1 8328   4.771   5.145   2.743
 2774TIP3    H2 8329   4.724   5.287   2.771
 2775TIP3   OH2 8330   3.487   0.311   0.754
 2775TIP3    H1 8331   3.457   0.232   0.799
 2775TIP3    H2 8332   3.415   0.374   0.764
 2776TIP3   OH2 8333   2.984   5.121   3.476
 2776TIP3    H1 8334   2.926   5.053   3.512
 2776TIP3    H2 8335   2.928   5.198   3.467
 2777TIP3   OH2 8336   0.937   4.228   4.277
 2777TIP3    H1 8337   0.908   4.314   4.247
 2777TIP3    H2 8338   0.867   4.199   4.336
 2778TIP3   OH2 8339   5.748   3.101   2.717
 2778TIP3    H1 8340   5.679   3.041   2.690
 2778TIP3    H2 8341   5.825   3.072   2.667
 2779TIP3   OH2 8342   5.698   4.619   1.248
 2779TIP3    H1 8343   5.696   4.713   1.269
 2779TIP3    H2 8344   5.791   4.597   1.248
 2780TIP3   OH2 8345   6.158   4.576   4.294
 2780TIP3    H1 8346   6.152   4.553   4.386
 2780TIP3    H2 8347   6.149   4.671   4.292
 2781TIP3   OH2 8348   6.213   0.594   3.705
 2781TIP3    H1 8349   6.250   0.637   3.627
 2781TIP3    H2 8350   6.230   0.655   3.776
 2782TIP3   OH2 8351   4.760   3.628   4.568
 2782TIP3    H1 8352   4.705   3.637   4.645
 2782TIP3    H2 8353   4.834   3.687   4.584
 2783TIP3   OH2 8354   1.324   0.917   3.696
 2783TIP3    H1 8355   1.256   0.875   3.750
 2783TIP3    H2 8356   1.394   0.852   3.691
 2784TIP3   OH2 8357   3.851   1.830   0.798
 2784TIP3    H1 8358   3.767   1.871   0.819
 2784TIP3    H2 8359   3.915   1.899   0.813
 2785TIP3   OH2 8360   3.232   4.381   0.199
 2785TIP3    H1 8361   3.243   4.473   0.174
 2785TIP3    H2 8362   3.301   4.335   0.151
 2786TIP3   OH2 8363   0.420   4.643   1.709
 2786TIP3    H1 8364   0.491   4.635   1.645
 2786TIP3    H2 8365   0.377   4.557   1.708
 2787TIP3   OH2 8366   3.408   1.770   3.852
 2787TIP3    H1 8367   3.452   1.759   3.768
 2787TIP3    H2 8368   3.374   1.860   3.849
 2788TIP3   OH2 8369   4.557   3.663   0.298
 2788TIP3    H1 8370   4.601   3.745   0.276
 2788TIP3    H2 8371   4.517   3.634   0.217
 2789TIP3   OH2 8372   4.048   4.151   0.984
 2789TIP3    H1 8373   4.081   4.169   1.072
 2789TIP3    H2 8374   4.046   4.237   0.941
 2790TIP3   OH2 8375   0.399   1.823   4.614
 2790TIP3    H1 8376   0.320   1.788   4.653
 2790TIP3    H2 8377   0.454   1.746   4.598
 2791TIP3   OH2 8378   5.303   0.784   3.406
 2791TIP3    H1 8379   5.333   0.849   3.469
 2791TIP3    H2 8380   5.239   0.732   3.454
 2792TIP3   OH2 8381   4.890   5.376   0.747
 2792TIP3    H1 8382   4.831   5.327   0.805
 2792TIP3    H2 8383   4.953   5.417   0.807
 2793TIP3   OH2 8384   6.316   0.529   2.587
 2793TIP3    H1 8385   6.368   0.467   2.637
 2793TIP3    H2 8386   6.310   0.490   2.499
 2794TIP3   OH2 8387   4.904   4.295   2.918
 2794TIP3    H1 8388   4.998   4.278   2.928
 2794TIP3    H2 8389   4.864   4.246   2.990
 2795TIP3   OH2 8390   2.645   3.051   5.157
 2795TIP3    H1 8391   2.705   3.035   5.084
 2795TIP3    H2 8392   2.702   3.062   5.233
 2796TIP3   OH2 8393   0.528   2.960   4.307
 2796TIP3    H1 8394   0.579   2.895   4.258
 2796TIP3    H2 8395   0.536   2.932   4.398
 2797TIP3   OH2 8396   0.648   1.615   3.930
 2797TIP3    H1 8397   0.565   1.636   3.972
 2797TIP3    H2 8398   0.714   1.649   3.990
 2798TIP3   OH2 8399   6.141   2.768   2.291
 2798TIP3    H1 8400   6.131   2.742   2.383
 2798TIP3    H2 8401   6.234   2.790   2.283
 2799TIP3   OH2 8402   1.957   4.952   3.809
 2799TIP3    H1 8403   1.870   4.951   3.770
 2799TIP3    H2 8404   1.964   4.867   3.854
 2800TIP3   OH2 8405   6.011   4.954   4.594
 2800TIP3    H1 8406   6.095   4.923   4.629
 2800TIP3    H2 8407   5.970   4.999   4.667
 2801TIP3   OH2 8408   0.682   5.003   1.355
 2801TIP3    H1 8409   0.596   4.972   1.326
 2801TIP3    H2 8410   0.744   4.941   1.317
 2802TIP3   OH2 8411   6.085   0.121   2.390
 2802TIP3    H1 8412   6.114   0.151   2.304
 2802TIP3    H2 8413   6.004   0.073   2.373
 2803TIP3   OH2 8414   2.074   4.797   1.095
 2803TIP3    H1 8415   2.093   4.706   1.072
 2803TIP3    H2 8416   1.995   4.818   1.046
 2804TIP3   OH2 8417   1.615   0.453   0.245
 2804TIP3    H1 8418   1.709   0.434   0.236
 2804TIP3    H2 8419   1.602   0.464   0.339
 2805TIP3   OH2 8420   0.200   3.268   4.614
 2805TIP3    H1 8421   0.231   3.298   4.529
 2805TIP3    H2 8422   0.210   3.173   4.611
 2806TIP3   OH2 8423   1.236   0.795   0.935
 2806TIP3    H1 8424   1.267   0.869   0.987
 2806TIP3    H2 8425   1.315   0.756   0.898
 2807TIP3   OH2 8426   1.176   2.803   0.219
 2807TIP3    H1 8427   1.266   2.772   0.210
 2807TIP3    H2 8428   1.126   2.750   0.157
 2808TIP3   OH2 8429   3.763   3.701   1.595
 2808TIP3    H1 8430   3.732   3.725   1.683
 2808TIP3    H2 8431   3.726   3.768   1.538
 2809TIP3   OH2 8432   3.631   1.534   3.732
 2809TIP3    H1 8433   3.603   1.506   3.646
 2809TIP3    H2 8434   3.593   1.470   3.792
 2810TIP3   OH2 8435   2.501   4.820   5.199
 2810TIP3    H1 8436   2.540   4.847   5.115
 2810TIP3    H2 8437   2.487   4.726   5.189
 2811TIP3   OH2 8438   2.409   5.047   1.202
 2811TIP3    H1 8439   2.437   5.096   1.279
 2811TIP3    H2 8440   2.318   5.024   1.220
 2812TIP3   OH2 8441   0.597   4.915   2.725
 2812TIP3    H1 8442   0.621   4.823   2.724
 2812TIP3    H2 8443   0.635   4.951   2.645
 2813TIP3   OH2 8444   5.058   1.892   3.066
 2813TIP3    H1 8445   4.977   1.939   3.046
 2813TIP3    H2 8446   5.128   1.955   3.047
 2814TIP3   OH2 8447   0.983   4.943   1.947
 2814TIP3    H1 8448   0.994   5.000   1.871
 2814TIP3    H2 8449   0.981   5.004   2.021
 2815TIP3   OH2 8450   1.845   0.863   2.503
 2815TIP3    H1 8451   1.913   0.926   2.524
 2815TIP3    H2 8452   1.846   0.801   2.576
 2816TIP3   OH2 8453   0.565   0.882   0.658
 2816TIP3    H1 8454   0.552   0.977   0.661
 2816TIP3    H2 8455   0.645   0.870   0.607
 2817TIP3   OH2 8456   4.107   1.785   1.743
 2817TIP3    H1 8457   4.194   1.748   1.756
 2817TIP3    H2 8458   4.054   1.711   1.713
 2818TIP3   OH2 8459   3.466   3.171   3.125
 2818TIP3    H1 8460   3.466   3.084   3.084
 2818TIP3    H2 8461   3.442   3.154   3.216
 2819TIP3   OH2 8462   4.207   1.530   4.447
 2819TIP3    H1 8463   4.156   1.601   4.407
 2819TIP3    H2 8464   4.149   1.453   4.442
 2820TIP3   OH2 8465   1.423   4.520   3.161
 2820TIP3    H1 8466   1.473   4.452   3.206
 2820TIP3    H2 8467   1.488   4.584   3.134
 2821TIP3   OH2 8468   6.058   0.409   4.048
 2821TIP3    H1 8469   6.025   0.338   3.993
 2821TIP3    H2 8470   6.139   0.438   4.005
 2822TIP3   OH2 8471   0.894   2.639   3.053
 2822TIP3    H1 8472   0.986   2.645   3.028
 2822TIP3    H2 8473   0.895   2.637   3.149
 2823TIP3   OH2 8474   5.512   5.174   2.188
 2823TIP3    H1 8475   5.449   5.142   2.252
 2823TIP3    H2 8476   5.465   5.240   2.138
 2824TIP3   OH2 8477   3.149   0.834   2.698
 2824TIP3    H1 8478   3.059   0.854   2.725
 2824TIP3    H2 8479   3.203   0.897   2.744
 2825TIP3   OH2 8480   1.674   3.530   2.186
 2825TIP3    H1 8481   1.738   3.542   2.256
 2825TIP3    H2 8482   1.718   3.560   2.107
 2826TIP3   OH2 8483   3.186   2.306   0.790
 2826TIP3    H1 8484   3.156   2.397   0.785
 2826TIP3    H2 8485   3.281   2.312   0.799
 2827TIP3   OH2 8486   1.830   1.582   4.401
 2827TIP3    H1 8487   1.862   1.638   4.330
 2827TIP3    H2 8488   1.775   1.640   4.454
 2828TIP3   OH2 8489   0.409   2.886   3.671
 2828TIP3    H1 8490   0.440   2.938   3.745
 2828TIP3    H2 8491   0.457   2.920   3.596
 2829TIP3   OH2 8492   5.462   2.615   3.160
 2829TIP3    H1 8493   5.426   2.641   3.245
 2829TIP3    H2 8494   5.484   2.522   3.172
 2830TIP3   OH2 8495   2.124   1.178   5.055
 2830TIP3    H1 8496   2.101   1.163   5.147
 2830TIP3    H2 8497   2.116   1.273   5.045
 2831TIP3   OH2 8498   5.512   4.068   4.434
 2831TIP3    H1 8499   5.555   4.080   4.349
 2831TIP3    H2 8500   5.422   4.046   4.411
 2832TIP3   OH2 8501   5.393   2.577   0.324
 2832TIP3    H1 8502   5.409   2.500   0.378
 2832TIP3    H2 8503   5.313   2.557   0.276
 2833TIP3   OH2 8504   0.979   3.213   3.523
 2833TIP3    H1 8505   0.976   3.157   3.601
 2833TIP3    H2 8506   0.946   3.157   3.452
 2834TIP3   OH2 8507   0.688   0.667   2.985
 2834TIP3    H1 8508   0.627   0.696   3.053
 2834TIP3    H2 8509   0.747   0.741   2.973
 2835TIP3   OH2 8510  -0.031   3.927   1.914
 2835TIP3    H1 8511   0.042   3.985   1.890
 2835TIP3    H2 8512   0.006   3.839   1.911
 2836TIP3   OH2 8513   0.273   5.343   1.457
 2836TIP3    H1 8514   0.237   5.404   1.392
 2836TIP3    H2 8515   0.211   5.270   1.459
 2837TIP3   OH2 8516   0.907   3.373   1.735
 2837TIP3    H1 8517   0.949   3.450   1.696
 2837TIP3    H2 8518   0.931   3.301   1.676
 2838TIP3   OH2 8519   3.424   3.196   1.183
 2838TIP3    H1 8520   3.493   3.149   1.138
 2838TIP3    H2 8521   3.470   3.256   1.242
 2839TIP3   OH2 8522   2.932   1.577   0.322
 2839TIP3    H1 8523   2.922   1.483   0.335
 2839TIP3    H2 8524   2.962   1.586   0.231
 2840TIP3   OH2 8525   2.894   2.069   4.625
 2840TIP3    H1 8526   2.811   2.027   4.645
 2840TIP3    H2 8527   2.914   2.041   4.535
 2841TIP3   OH2 8528   5.780   3.401   2.532
 2841TIP3    H1 8529   5.698   3.403   2.583
 2841TIP3    H2 8530   5.759   3.350   2.454
 2842TIP3   OH2 8531   2.191   0.352   1.071
 2842TIP3    H1 8532   2.219   0.373   1.160
 2842TIP3    H2 8533   2.267   0.311   1.030
 2843TIP3   OH2 8534   0.400   2.490   5.026
 2843TIP3    H1 8535   0.491   2.499   5.053
 2843TIP3    H2 8536   0.403   2.477   4.932
 2844TIP3   OH2 8537   2.245   4.490   5.001
 2844TIP3    H1 8538   2.307   4.511   5.070
 2844TIP3    H2 8539   2.280   4.410   4.960
 2845TIP3   OH2 8540   2.775   5.341   3.474
 2845TIP3    H1 8541   2.829   5.421   3.475
 2845TIP3    H2 8542   2.685   5.373   3.477
 2846TIP3   OH2 8543   0.982   5.073   2.203
 2846TIP3    H1 8544   0.892   5.086   2.232
 2846TIP3    H2 8545   1.035   5.078   2.282
 2847TIP3   OH2 8546   3.227   2.582   0.841
 2847TIP3    H1 8547   3.246   2.625   0.924
 2847TIP3    H2 8548   3.175   2.645   0.792
 2848TIP3   OH2 8549   4.584   3.550   4.105
 2848TIP3    H1 8550   4.643   3.486   4.146
 2848TIP3    H2 8551   4.536   3.588   4.179
 2849TIP3   OH2 8552   2.664   1.710   1.415
 2849TIP3    H1 8553   2.753   1.678   1.400
 2849TIP3    H2 8554   2.643   1.681   1.504
 2850TIP3   OH2 8555   6.136   1.012   5.029
 2850TIP3    H1 8556   6.056   1.045   5.069
 2850TIP3    H2 8557   6.201   1.014   5.099
 2851TIP3   OH2 8558   5.423   4.424   1.598
 2851TIP3    H1 8559   5.351   4.366   1.619
 2851TIP3    H2 8560   5.490   4.367   1.561
 2852TIP3   OH2 8561   5.528   3.013   2.312
 2852TIP3    H1 8562   5.525   3.059   2.228
 2852TIP3    H2 8563   5.603   2.954   2.305
 2853TIP3   OH2 8564   2.330   3.464   3.019
 2853TIP3    H1 8565   2.264   3.394   3.014
 2853TIP3    H2 8566   2.359   3.462   3.110
 2854TIP3   OH2 8567   2.377   1.849   1.790
 2854TIP3    H1 8568   2.445   1.917   1.786
 2854TIP3    H2 8569   2.335   1.853   1.704
 2855TIP3   OH2 8570   6.329   0.424   1.226
 2855TIP3    H1 8571   6.368   0.510   1.241
 2855TIP3    H2 8572   6.248   0.426   1.277
 2856TIP3   OH2 8573   5.825   0.420   1.331
 2856TIP3    H1 8574   5.748   0.388   1.284
 2856TIP3    H2 8575   5.802   0.510   1.356
 2857TIP3   OH2 8576   0.233   5.504   0.389
 2857TIP3    H1 8577   0.148   5.545   0.406
 2857TIP3    H2 8578   0.214   5.436   0.324
 2858TIP3   OH2 8579   4.590   2.978   2.632
 2858TIP3    H1 8580   4.594   3.067   2.598
 2858TIP3    H2 8581   4.676   2.962   2.670
 2859TIP3   OH2 8582   0.822   1.029   1.035
 2859TIP3    H1 8583   0.819   0.972   0.958
 2859TIP3    H2 8584   0.734   1.025   1.071
 2860TIP3   OH2 8585   4.631   4.420   1.420
 2860TIP3    H1 8586   4.559   4.357   1.421
 2860TIP3    H2 8587   4.708   4.368   1.395
 2861TIP3   OH2 8588   5.041   2.205   3.605
 2861TIP3    H1 8589   4.947   2.225   3.595
 2861TIP3    H2 8590   5.070   2.184   3.516
 2862TIP3   OH2 8591   1.854   4.805   0.915
 2862TIP3    H1 8592   1.899   4.776   0.835
 2862TIP3    H2 8593   1.799   4.730   0.939
 2863TIP3   OH2 8594   5.528   3.174   2.091
 2863TIP3    H1 8595   5.442   3.180   2.049
 2863TIP3    H2 8596   5.590   3.169   2.018
 2864TIP3   OH2 8597   1.916   2.444   2.400
 2864TIP3    H1 8598   1.864   2.384   2.347
 2864TIP3    H2 8599   1.857   2.468   2.472
 2865TIP3   OH2 8600   4.939   5.274   4.098
 2865TIP3    H1 8601   4.944   5.334   4.172
 2865TIP3    H2 8602   4.998   5.312   4.033
 2866TIP3   OH2 8603   1.630   1.151   2.201
 2866TIP3    H1 8604   1.540   1.185   2.192
 2866TIP3    H2 8605   1.652   1.166   2.293
 2867TIP3   OH2 8606   6.108   4.171   0.537
 2867TIP3    H1 8607   6.146   4.088   0.567
 2867TIP3    H2 8608   6.024   4.176   0.581
 2868TIP3   OH2 8609   0.464   4.929   3.656
 2868TIP3    H1 8610   0.437   4.962   3.570
 2868TIP3    H2 8611   0.382   4.898   3.696
 2869TIP3   OH2 8612   2.390   0.583   0.060
 2869TIP3    H1 8613   2.467   0.641   0.060
 2869TIP3    H2 8614   2.327   0.628   0.004
 2870TIP3   OH2 8615   0.422   3.036   1.557
 2870TIP3    H1 8616   0.381   3.011   1.475
 2870TIP3    H2 8617   0.516   3.039   1.537
 2871TIP3   OH2 8618   5.759   1.398   3.937
 2871TIP3    H1 8619   5.769   1.326   3.999
 2871TIP3    H2 8620   5.792   1.363   3.854
 2872TIP3   OH2 8621   0.842   4.690   4.608
 2872TIP3    H1 8622   0.783   4.727   4.673
 2872TIP3    H2 8623   0.852   4.598   4.633
 2873TIP3   OH2 8624   3.588   4.714   0.841
 2873TIP3    H1 8625   3.670   4.703   0.889
 2873TIP3    H2 8626   3.522   4.729   0.909
 2874TIP3   OH2 8627   2.310   2.441   4.557
 2874TIP3    H1 8628   2.302   2.378   4.485
 2874TIP3    H2 8629   2.394   2.484   4.544
 2875TIP3   OH2 8630   5.091   3.098   2.108
 2875TIP3    H1 8631   5.010   3.096   2.057
 2875TIP3    H2 8632   5.158   3.126   2.045
 2876TIP3   OH2 8633   3.524   0.349   3.133
 2876TIP3    H1 8634   3.543   0.257   3.149
 2876TIP3    H2 8635   3.431   0.359   3.153
 2877TIP3   OH2 8636   3.024   5.024   3.218
 2877TIP3    H1 8637   3.011   5.054   3.308
 2877TIP3    H2 8638   3.100   4.966   3.223
 2878TIP3   OH2 8639   4.198   2.024   0.074
 2878TIP3    H1 8640   4.281   1.994   0.112
 2878TIP3    H2 8641   4.135   2.018   0.146
 2879TIP3   OH2 8642   1.000   0.972   3.739
 2879TIP3    H1 8643   1.045   1.056   3.732
 2879TIP3    H2 8644   1.043   0.928   3.813
 2880TIP3   OH2 8645   4.956   4.389   2.580
 2880TIP3    H1 8646   4.995   4.408   2.666
 2880TIP3    H2 8647   4.909   4.307   2.593
 2881TIP3   OH2 8648   4.038   3.763   2.917
 2881TIP3    H1 8649   3.998   3.740   3.001
 2881TIP3    H2 8650   4.056   3.679   2.875
 2882TIP3   OH2 8651   0.841   5.930   4.597
 2882TIP3    H1 8652   0.869   5.841   4.578
 2882TIP3    H2 8653   0.749   5.932   4.572
 2883TIP3   OH2 8654   1.039   3.018   1.850
 2883TIP3    H1 8655   1.049   3.098   1.799
 2883TIP3    H2 8656   1.126   3.002   1.888
 2884TIP3   OH2 8657   5.554   3.933   1.141
 2884TIP3    H1 8658   5.506   3.852   1.160
 2884TIP3    H2 8659   5.550   3.942   1.046
 2885TIP3   OH2 8660   1.858   3.269   3.397
 2885TIP3    H1 8661   1.806   3.219   3.334
 2885TIP3    H2 8662   1.854   3.359   3.365
 2886TIP3   OH2 8663   1.483   0.592   2.511
 2886TIP3    H1 8664   1.389   0.608   2.509
 2886TIP3    H2 8665   1.520   0.667   2.558
 2887TIP3   OH2 8666   4.438   2.095   0.892
 2887TIP3    H1 8667   4.380   2.068   0.820
 2887TIP3    H2 8668   4.434   2.023   0.954
 2888TIP3   OH2 8669   0.577   2.243   3.067
 2888TIP3    H1 8670   0.645   2.311   3.064
 2888TIP3    H2 8671   0.496   2.292   3.081
 2889TIP3   OH2 8672   0.133   2.079   1.709
 2889TIP3    H1 8673   0.150   2.123   1.625
 2889TIP3    H2 8674   0.054   2.122   1.742
 2890TIP3   OH2 8675   3.695   4.034   2.092
 2890TIP3    H1 8676   3.692   4.113   2.146
 2890TIP3    H2 8677   3.604   4.003   2.091
 2891TIP3   OH2 8678   4.868   1.299   1.507
 2891TIP3    H1 8679   4.872   1.357   1.431
 2891TIP3    H2 8680   4.861   1.211   1.469
 2892TIP3   OH2 8681   1.828   5.202   2.475
 2892TIP3    H1 8682   1.853   5.156   2.555
 2892TIP3    H2 8683   1.854   5.143   2.404
 2893TIP3   OH2 8684   3.446   0.755   0.313
 2893TIP3    H1 8685   3.373   0.802   0.354
 2893TIP3    H2 8686   3.403   0.687   0.259
 2894TIP3   OH2 8687   2.887   5.217   2.581
 2894TIP3    H1 8688   2.973   5.198   2.542
 2894TIP3    H2 8689   2.896   5.191   2.672
 2895TIP3   OH2 8690   2.246   0.945   4.924
 2895TIP3    H1 8691   2.212   1.006   4.991
 2895TIP3    H2 8692   2.170   0.893   4.899
 2896TIP3   OH2 8693   3.892   3.690   1.337
 2896TIP3    H1 8694   3.956   3.670   1.268
 2896TIP3    H2 8695   3.820   3.732   1.291
 2897TIP3   OH2 8696   0.027   4.724   2.626
 2897TIP3    H1 8697   0.120   4.745   2.632
 2897TIP3    H2 8698   0.004   4.688   2.711
 2898TIP3   OH2 8699   2.913   4.996   3.858
 2898TIP3    H1 8700   2.858   4.991   3.936
 2898TIP3    H2 8701   2.991   4.945   3.880
 2899TIP3   OH2 8702   6.009  -0.021   0.133
 2899TIP3    H1 8703   5.956   0.048   0.172
 2899TIP3    H2 8704   6.088  -0.024   0.186
 2900TIP3   OH2 8705   4.805   2.503   0.876
 2900TIP3    H1 8706   4.713   2.523   0.861
 2900TIP3    H2 8707   4.807   2.408   0.892
 2901TIP3   OH2 8708   2.581   1.455   0.744
 2901TIP3    H1 8709   2.669   1.458   0.708
 2901TIP3    H2 8710   2.565   1.363   0.762
 2902TIP3   OH2 8711   2.528   1.481   4.710
 2902TIP3    H1 8712   2.466   1.487   4.637
 2902TIP3    H2 8713   2.473   1.481   4.788
 2903TIP3   OH2 8714   4.350   2.276   1.948
 2903TIP3    H1 8715   4.386   2.316   1.869
 2903TIP3    H2 8716   4.307   2.196   1.916
 2904TIP3   OH2 8717   1.503   3.853   1.096
 2904TIP3    H1 8718   1.587   3.810   1.079
 2904TIP3    H2 8719   1.443   3.814   1.034
 2905TIP3   OH2 8720   3.788   1.017   3.197
 2905TIP3    H1 8721   3.823   1.105   3.212
 2905TIP3    H2 8722   3.797   0.973   3.282
 2906TIP3   OH2 8723   6.103   1.402   5.111
 2906TIP3    H1 8724   6.042   1.336   5.077
 2906TIP3    H2 8725   6.046   1.469   5.150
 2907TIP3   OH2 8726   0.887   2.673   0.446
 2907TIP3    H1 8727   0.813   2.625   0.411
 2907TIP3    H2 8728   0.953   2.671   0.376
 2908TIP3   OH2 8729   1.624   3.457   3.040
 2908TIP3    H1 8730   1.631   3.530   3.102
 2908TIP3    H2 8731   1.535   3.464   3.004
 2909TIP3   OH2 8732   3.957   0.985   0.878
 2909TIP3    H1 8733   3.928   0.978   0.969
 2909TIP3    H2 8734   4.024   1.054   0.880
 2910TIP3   OH2 8735   1.967   3.229   2.835
 2910TIP3    H1 8736   1.980   3.255   2.926
 2910TIP3    H2 8737   2.052   3.193   2.809
 2911TIP3   OH2 8738   2.956   1.564   0.911
 2911TIP3    H1 8739   2.902   1.599   0.840
 2911TIP3    H2 8740   2.896   1.558   0.986
 2912TIP3   OH2 8741   1.545   0.439   3.508
 2912TIP3    H1 8742   1.472   0.383   3.538
 2912TIP3    H2 8743   1.622   0.383   3.515
 2913TIP3   OH2 8744   0.881   5.454   2.695
 2913TIP3    H1 8745   0.831   5.535   2.703
 2913TIP3    H2 8746   0.955   5.465   2.755
 2914TIP3   OH2 8747   1.783   3.102   2.057
 2914TIP3    H1 8748   1.793   3.145   1.972
 2914TIP3    H2 8749   1.818   3.014   2.044
 2915TIP3   OH2 8750   4.282   4.564   3.845
 2915TIP3    H1 8751   4.325   4.511   3.777
 2915TIP3    H2 8752   4.189   4.543   3.837
 2916TIP3   OH2 8753   6.269   0.598   4.615
 2916TIP3    H1 8754   6.231   0.515   4.642
 2916TIP3    H2 8755   6.299   0.639   4.697
 2917TIP3   OH2 8756   0.203   0.308   1.538
 2917TIP3    H1 8757   0.204   0.283   1.445
 2917TIP3    H2 8758   0.290   0.286   1.570
 2918TIP3   OH2 8759   4.097   5.912   1.876
 2918TIP3    H1 8760   4.139   5.988   1.836
 2918TIP3    H2 8761   4.019   5.897   1.823
 2919TIP3   OH2 8762   5.068   5.750   5.132
 2919TIP3    H1 8763   5.035   5.831   5.093
 2919TIP3    H2 8764   5.137   5.721   5.073
 2920TIP3   OH2 8765   5.381   3.995   3.134
 2920TIP3    H1 8766   5.399   4.078   3.180
 2920TIP3    H2 8767   5.312   3.954   3.187
 2921TIP3   OH2 8768   2.130   5.742   5.004
 2921TIP3    H1 8769   2.211   5.775   5.043
 2921TIP3    H2 8770   2.150   5.653   4.976
 2922TIP3   OH2 8771   4.995   1.631   1.186
 2922TIP3    H1 8772   4.940   1.709   1.198
 2922TIP3    H2 8773   4.946   1.560   1.226
 2923TIP3   OH2 8774   0.264   1.006   3.476
 2923TIP3    H1 8775   0.346   1.050   3.453
 2923TIP3    H2 8776   0.249   0.944   3.404
 2924TIP3   OH2 8777  -0.012   5.745   1.981
 2924TIP3    H1 8778   0.012   5.678   1.917
 2924TIP3    H2 8779   0.070   5.766   2.026
 2925TIP3   OH2 8780   0.357   2.366   2.366
 2925TIP3    H1 8781   0.389   2.301   2.428
 2925TIP3    H2 8782   0.352   2.447   2.417
 2926TIP3   OH2 8783   5.387   5.175   1.020
 2926TIP3    H1 8784   5.308   5.212   0.980
 2926TIP3    H2 8785   5.386   5.206   1.110
 2927TIP3   OH2 8786   3.180   3.413   4.152
 2927TIP3    H1 8787   3.248   3.456   4.203
 2927TIP3    H2 8788   3.218   3.402   4.065
 2928TIP3   OH2 8789   3.767   3.956   4.427
 2928TIP3    H1 8790   3.756   4.010   4.349
 2928TIP3    H2 8791   3.686   3.968   4.476
 2929TIP3   OH2 8792   4.941   3.295   2.826
 2929TIP3    H1 8793   5.036   3.284   2.817
 2929TIP3    H2 8794   4.924   3.271   2.917
 2930TIP3   OH2 8795   3.108   2.105   2.482
 2930TIP3    H1 8796   3.103   2.040   2.551
 2930TIP3    H2 8797   3.153   2.061   2.410
 2931TIP3   OH2 8798   3.953   5.603   4.695
 2931TIP3    H1 8799   4.002   5.684   4.679
 2931TIP3    H2 8800   3.924   5.611   4.786
 2932TIP3   OH2 8801   0.898   2.709   3.692
 2932TIP3    H1 8802   0.974   2.655   3.715
 2932TIP3    H2 8803   0.867   2.743   3.775
 2933TIP3   OH2 8804   1.512   0.722   4.413
 2933TIP3    H1 8805   1.418   0.719   4.426
 2933TIP3    H2 8806   1.530   0.655   4.347
 2934TIP3   OH2 8807   2.373   3.258   0.332
 2934TIP3    H1 8808   2.417   3.325   0.383
 2934TIP3    H2 8809   2.287   3.250   0.373
 2935TIP3   OH2 8810   1.824   2.058   3.714
 2935TIP3    H1 8811   1.862   1.970   3.712
 2935TIP3    H2 8812   1.831   2.085   3.806
 2936TIP3   OH2 8813   3.822   0.422   3.404
 2936TIP3    H1 8814   3.784   0.366   3.337
 2936TIP3    H2 8815   3.902   0.457   3.364
 2937TIP3   OH2 8816   2.796   4.650   3.717
 2937TIP3    H1 8817   2.851   4.726   3.699
 2937TIP3    H2 8818   2.837   4.578   3.670
 2938TIP3   OH2 8819   0.214   2.750   0.033
 2938TIP3    H1 8820   0.255   2.664   0.038
 2938TIP3    H2 8821   0.287   2.812   0.032
 2939TIP3   OH2 8822   0.434   0.260   3.909
 2939TIP3    H1 8823   0.498   0.222   3.849
 2939TIP3    H2 8824   0.453   0.218   3.993
 2940TIP3   OH2 8825   4.276   5.318   4.788
 2940TIP3    H1 8826   4.278   5.249   4.722
 2940TIP3    H2 8827   4.184   5.344   4.792
 2941TIP3   OH2 8828   3.271   5.799   4.229
 2941TIP3    H1 8829   3.235   5.712   4.248
 2941TIP3    H2 8830   3.248   5.814   4.137
 2942TIP3   OH2 8831   1.123   1.919   4.415
 2942TIP3    H1 8832   1.040   1.913   4.369
 2942TIP3    H2 8833   1.150   2.010   4.405
 2943TIP3   OH2 8834   1.699   4.591   0.939
 2943TIP3    H1 8835   1.760   4.542   0.884
 2943TIP3    H2 8836   1.620   4.536   0.942
 2944TIP3   OH2 8837   4.002   1.267   4.421
 2944TIP3    H1 8838   4.033   1.269   4.331
 2944TIP3    H2 8839   3.914   1.305   4.417
 2945TIP3   OH2 8840   4.559   5.333   2.808
 2945TIP3    H1 8841   4.501   5.299   2.876
 2945TIP3    H2 8842   4.512   5.408   2.771
 2946TIP3   OH2 8843   3.086   5.006   4.456
 2946TIP3    H1 8844   3.117   4.948   4.387
 2946TIP3    H2 8845   3.166   5.037   4.499
 2947TIP3   OH2 8846   1.735   5.789   1.831
 2947TIP3    H1 8847   1.795   5.811   1.760
 2947TIP3    H2 8848   1.788   5.737   1.891
 2948TIP3   OH2 8849   1.520   4.256   0.718
 2948TIP3    H1 8850   1.528   4.281   0.810
 2948TIP3    H2 8851   1.473   4.330   0.678
 2949TIP3   OH2 8852   4.805   0.526   0.876
 2949TIP3    H1 8853   4.887   0.484   0.851
 2949TIP3    H2 8854   4.759   0.541   0.793
 2950TIP3   OH2 8855   4.667   1.501   2.909
 2950TIP3    H1 8856   4.676   1.432   2.843
 2950TIP3    H2 8857   4.588   1.548   2.884
 2951TIP3   OH2 8858   3.050   3.429   1.112
 2951TIP3    H1 8859   3.014   3.423   1.201
 2951TIP3    H2 8860   3.098   3.511   1.111
 2952TIP3   OH2 8861   6.212   4.579   0.691
 2952TIP3    H1 8862   6.243   4.491   0.665
 2952TIP3    H2 8863   6.121   4.566   0.715
 2953TIP3   OH2 8864   4.229   0.989   5.101
 2953TIP3    H1 8865   4.210   0.895   5.111
 2953TIP3    H2 8866   4.214   1.007   5.008
 2954TIP3   OH2 8867   3.161   0.532   5.083
 2954TIP3    H1 8868   3.066   0.537   5.076
 2954TIP3    H2 8869   3.186   0.461   5.024
 2955TIP3   OH2 8870   2.485   1.909   2.189
 2955TIP3    H1 8871   2.539   1.922   2.112
 2955TIP3    H2 8872   2.528   1.960   2.258
 2956TIP3   OH2 8873   1.481   3.980   2.902
 2956TIP3    H1 8874   1.515   3.920   2.969
 2956TIP3    H2 8875   1.387   3.965   2.901
 2957TIP3   OH2 8876   3.966   4.667   2.268
 2957TIP3    H1 8877   4.062   4.664   2.269
 2957TIP3    H2 8878   3.945   4.728   2.196
 2958TIP3   OH2 8879   1.049   1.481   4.928
 2958TIP3    H1 8880   1.123   1.499   4.871
 2958TIP3    H2 8881   1.024   1.566   4.963
 2959TIP3   OH2 8882   0.473   2.583   3.687
 2959TIP3    H1 8883   0.468   2.618   3.777
 2959TIP3    H2 8884   0.433   2.651   3.633
 2960TIP3   OH2 8885   1.149   0.277   0.904
 2960TIP3    H1 8886   1.187   0.262   0.990
 2960TIP3    H2 8887   1.110   0.194   0.879
 2961TIP3   OH2 8888   0.343   4.298   2.904
 2961TIP3    H1 8889   0.281   4.321   2.973
 2961TIP3    H2 8890   0.418   4.260   2.950
 2962TIP3   OH2 8891   1.464   0.618   1.317
 2962TIP3    H1 8892   1.551   0.654   1.300
 2962TIP3    H2 8893   1.430   0.596   1.230
 2963TIP3   OH2 8894   3.393   0.700   5.109
 2963TIP3    H1 8895   3.326   0.635   5.089
 2963TIP3    H2 8896   3.452   0.698   5.033
 2964TIP3   OH2 8897   3.866   4.419   3.232
 2964TIP3    H1 8898   3.888   4.327   3.245
 2964TIP3    H2 8899   3.889   4.437   3.141
 2965TIP3   OH2 8900   0.985   2.797   2.174
 2965TIP3    H1 8901   0.931   2.771   2.249
 2965TIP3    H2 8902   1.072   2.761   2.193
 2966TIP3   OH2 8903   4.002   0.388   1.332
 2966TIP3    H1 8904   3.985   0.305   1.287
 2966TIP3    H2 8905   4.040   0.361   1.416
 2967TIP3   OH2 8906   2.479   4.146   0.457
 2967TIP3    H1 8907   2.480   4.238   0.482
 2967TIP3    H2 8908   2.423   4.143   0.379
 2968TIP3   OH2 8909   5.119   5.382   3.101
 2968TIP3    H1 8910   5.024   5.383   3.093
 2968TIP3    H2 8911   5.141   5.470   3.134
 2969TIP3   OH2 8912   2.486   0.841   2.724
 2969TIP3    H1 8913   2.538   0.888   2.659
 2969TIP3    H2 8914   2.396   0.854   2.696
 2970TIP3   OH2 8915   1.944   5.885   3.358
 2970TIP3    H1 8916   1.939   5.859   3.266
 2970TIP3    H2 8917   2.029   5.853   3.387
 2971TIP3   OH2 8918   0.150   0.709   0.850
 2971TIP3    H1 8919   0.224   0.712   0.910
 2971TIP3    H2 8920   0.130   0.616   0.840
 2972TIP3   OH2 8921   1.947   5.922   2.281
 2972TIP3    H1 8922   2.030   5.892   2.318
 2972TIP3    H2 8923   1.963   6.012   2.256
 2973TIP3   OH2 8924   5.665   1.581   0.779
 2973TIP3    H1 8925   5.620   1.499   0.761
 2973TIP3    H2 8926   5.630   1.643   0.715
 2974TIP3   OH2 8927   2.579   0.796   1.600
 2974TIP3    H1 8928   2.643   0.726   1.615
 2974TIP3    H2 8929   2.628   0.876   1.617
 2975TIP3   OH2 8930   2.943   0.144   3.355
 2975TIP3    H1 8931   2.852   0.142   3.387
 2975TIP3    H2 8932   2.978   0.228   3.386
 2976TIP3   OH2 8933   2.447   0.130   1.557
 2976TIP3    H1 8934   2.386   0.094   1.621
 2976TIP3    H2 8935   2.455   0.223   1.582
 2977TIP3   OH2 8936   1.231   5.377   0.686
 2977TIP3    H1 8937   1.195   5.388   0.598
 2977TIP3    H2 8938   1.198   5.292   0.715
 2978TIP3   OH2 8939   2.541   5.423   0.804
 2978TIP3    H1 8940   2.450   5.393   0.806
 2978TIP3    H2 8941   2.555   5.452   0.714
 2979TIP3   OH2 8942   4.726   1.107   2.247
 2979TIP3    H1 8943   4.805   1.108   2.301
 2979TIP3    H2 8944   4.657   1.138   2.306
 2980TIP3   OH2 8945   2.610   0.402   4.982
 2980TIP3    H1 8946   2.641   0.332   5.040
 2980TIP3    H2 8947   2.538   0.361   4.933
 2981TIP3   OH2 8948   3.386   3.068   5.005
 2981TIP3    H1 8949   3.350   3.040   4.921
 2981TIP3    H2 8950   3.480   3.076   4.990
 2982TIP3   OH2 8951   5.663   4.537   5.212
 2982TIP3    H1 8952   5.652   4.614   5.156
 2982TIP3    H2 8953   5.627   4.465   5.160
 2983TIP3   OH2 8954   4.825   4.061   0.406
 2983TIP3    H1 8955   4.857   4.027   0.490
 2983TIP3    H2 8956   4.904   4.090   0.360
 2984TIP3   OH2 8957   5.153   1.999   1.134
 2984TIP3    H1 8958   5.152   1.919   1.082
 2984TIP3    H2 8959   5.169   1.969   1.224
 2985TIP3   OH2 8960   4.092   5.121   3.205
 2985TIP3    H1 8961   3.999   5.098   3.202
 2985TIP3    H2 8962   4.093   5.215   3.219
 2986TIP3   OH2 8963   1.058   1.538   0.751
 2986TIP3    H1 8964   1.069   1.544   0.656
 2986TIP3    H2 8965   0.967   1.564   0.767
 2987TIP3   OH2 8966   3.316   4.151   4.290
 2987TIP3    H1 8967   3.318   4.232   4.240
 2987TIP3    H2 8968   3.360   4.171   4.372
 2988TIP3   OH2 8969   1.689   3.003   2.664
 2988TIP3    H1 8970   1.653   3.079   2.618
 2988TIP3    H2 8971   1.613   2.961   2.706
 2989TIP3   OH2 8972   1.250   1.567   3.024
 2989TIP3    H1 8973   1.205   1.610   2.951
 2989TIP3    H2 8974   1.213   1.609   3.102
 2990TIP3   OH2 8975   4.903   0.367   4.493
 2990TIP3    H1 8976   4.897   0.445   4.438
 2990TIP3    H2 8977   4.967   0.389   4.560
 2991TIP3   OH2 8978   0.261   2.362   0.238
 2991TIP3    H1 8979   0.335   2.369   0.299
 2991TIP3    H2 8980   0.205   2.295   0.276
 2992TIP3   OH2 8981   0.662   2.533   2.947
 2992TIP3    H1 8982   0.729   2.566   3.007
 2992TIP3    H2 8983   0.692   2.563   2.861
 2993TIP3   OH2 8984   2.937   1.490   3.420
 2993TIP3    H1 8985   2.903   1.472   3.333
 2993TIP3    H2 8986   3.030   1.508   3.406
 2994TIP3   OH2 8987   0.548   2.487   4.535
 2994TIP3    H1 8988   0.563   2.399   4.569
 2994TIP3    H2 8989   0.495   2.529   4.603
 2995TIP3   OH2 8990   4.901   5.613   3.347
 2995TIP3    H1 8991   4.899   5.520   3.370
 2995TIP3    H2 8992   4.821   5.649   3.384
 2996TIP3   OH2 8993   3.170   1.859   4.807
 2996TIP3    H1 8994   3.126   1.830   4.727
 2996TIP3    H2 8995   3.263   1.846   4.789
 2997TIP3   OH2 8996   1.722   1.223   2.889
 2997TIP3    H1 8997   1.767   1.260   2.813
 2997TIP3    H2 8998   1.697   1.135   2.861
 2998TIP3   OH2 8999   1.051   5.160   1.623
 2998TIP3    H1 9000   0.958   5.180   1.618
 2998TIP3    H2 9001   1.089   5.237   1.666
 2999TIP3   OH2 9002   1.170   3.632   4.345
 2999TIP3    H1 9003   1.235   3.579   4.391
 2999TIP3    H2 9004   1.217   3.667   4.270
 3000TIP3   OH2 9005   5.876   3.161   2.363
 3000TIP3    H1 9006   5.867   3.088   2.424
 3000TIP3    H2 9007   5.971   3.173   2.353
 3001TIP3   OH2 9008   0.327   4.219   0.824
 3001TIP3    H1 9009   0.313   4.172   0.906
 3001TIP3    H2 9010   0.281   4.302   0.836
 3002TIP3   OH2 9011   1.243   4.239   3.222
 3002TIP3    H1 9012   1.245   4.151   3.184
 3002TIP3    H2 9013   1.332   4.273   3.210
 3003TIP3   OH2 9014   5.104   4.456   4.551
 3003TIP3    H1 9015   5.195   4.425   4.549
 3003TIP3    H2 9016   5.086   4.481   4.460
 3004TIP3   OH2 9017   5.996   1.883   0.690
 3004TIP3    H1 9018   5.989   1.788   0.680
 3004TIP3    H2 9019   5.935   1.919   0.626
 3005TIP3   OH2 9020   1.159   4.756   1.844
 3005TIP3    H1 9021   1.235   4.749   1.901
 3005TIP3    H2 9022   1.097   4.809   1.895
 3006TIP3   OH2 9023   3.707   4.395   4.900
 3006TIP3    H1 9024   3.737   4.333   4.967
 3006TIP3    H2 9025   3.631   4.353   4.861
 3007TIP3   OH2 9026   3.398   1.313   3.319
 3007TIP3    H1 9027   3.477   1.360   3.294
 3007TIP3    H2 9028   3.333   1.338   3.253
 3008TIP3   OH2 9029   0.751   2.115   0.186
 3008TIP3    H1 9030   0.815   2.172   0.227
 3008TIP3    H2 9031   0.748   2.037   0.243
 3009TIP3   OH2 9032   3.242   1.136   4.848
 3009TIP3    H1 9033   3.184   1.060   4.850
 3009TIP3    H2 9034   3.330   1.098   4.842
 3010TIP3   OH2 9035   4.020   0.467   0.283
 3010TIP3    H1 9036   4.030   0.417   0.202
 3010TIP3    H2 9037   4.024   0.558   0.256
 3011TIP3   OH2 9038   0.015   2.941   4.183
 3011TIP3    H1 9039   0.087   2.901   4.231
 3011TIP3    H2 9040   0.014   2.896   4.099
 3012TIP3   OH2 9041   1.898   2.951   3.382
 3012TIP3    H1 9042   1.934   2.982   3.299
 3012TIP3    H2 9043   1.975   2.923   3.432
 3013TIP3   OH2 9044   2.920   0.251   3.085
 3013TIP3    H1 9045   2.949   0.192   3.155
 3013TIP3    H2 9046   2.838   0.288   3.118
 3014TIP3   OH2 9047   1.706   4.052   4.271
 3014TIP3    H1 9048   1.616   4.060   4.241
 3014TIP3    H2 9049   1.759   4.071   4.193
 3015TIP3   OH2 9050   3.316   0.372   3.312
 3015TIP3    H1 9051   3.326   0.279   3.332
 3015TIP3    H2 9052   3.361   0.417   3.383
 3016TIP3   OH2 9053   3.325   0.327   2.623
 3016TIP3    H1 9054   3.308   0.418   2.650
 3016TIP3    H2 9055   3.244   0.280   2.642
 3017TIP3   OH2 9056   2.323   0.175   4.074
 3017TIP3    H1 9057   2.301   0.214   3.990
 3017TIP3    H2 9058   2.274   0.227   4.138
 3018TIP3   OH2 9059   5.536   3.672   4.113
 3018TIP3    H1 9060   5.569   3.594   4.067
 3018TIP3    H2 9061   5.445   3.680   4.083
 3019TIP3   OH2 9062   5.290   5.664   1.768
 3019TIP3    H1 9063   5.265   5.583   1.723
 3019TIP3    H2 9064   5.207   5.708   1.786
 3020TIP3   OH2 9065   6.168   5.870   5.164
 3020TIP3    H1 9066   6.088   5.835   5.202
 3020TIP3    H2 9067   6.178   5.956   5.205
 3021TIP3   OH2 9068   0.246   0.563   0.003
 3021TIP3    H1 9069   0.259   0.623   0.076
 3021TIP3    H2 9070   0.215   0.618  -0.068
 3022TIP3   OH2 9071   4.206   3.361   0.394
 3022TIP3    H1 9072   4.271   3.432   0.398
 3022TIP3    H2 9073   4.199   3.340   0.301
 3023TIP3   OH2 9074   2.791   2.619   0.892
 3023TIP3    H1 9075   2.854   2.605   0.963
 3023TIP3    H2 9076   2.846   2.639   0.816
 3024TIP3   OH2 9077   2.231   1.483   4.790
 3024TIP3    H1 9078   2.165   1.505   4.724
 3024TIP3    H2 9079   2.218   1.548   4.859
 3025TIP3   OH2 9080   3.497   4.754   0.037
 3025TIP3    H1 9081   3.522   4.839   0.073
 3025TIP3    H2 9082   3.492   4.697   0.114
 3026TIP3   OH2 9083   1.733   2.844   3.737
 3026TIP3    H1 9084   1.804   2.787   3.708
 3026TIP3    H2 9085   1.770   2.932   3.736
 3027TIP3   OH2 9086   2.023   2.050   1.824
 3027TIP3    H1 9087   2.078   2.110   1.774
 3027TIP3    H2 9088   1.966   2.106   1.876
 3028TIP3   OH2 9089   3.155   1.427   3.711
 3028TIP3    H1 9090   3.104   1.346   3.717
 3028TIP3    H2 9091   3.233   1.410   3.764
 3029TIP3   OH2 9092   3.779   5.993   3.790
 3029TIP3    H1 9093   3.754   5.918   3.845
 3029TIP3    H2 9094   3.699   6.018   3.745
 3030TIP3   OH2 9095   4.206   4.451   0.520
 3030TIP3    H1 9096   4.137   4.494   0.570
 3030TIP3    H2 9097   4.246   4.521   0.468
 3031TIP3   OH2 9098   2.024   2.668   3.336
 3031TIP3    H1 9099   2.039   2.757   3.370
 3031TIP3    H2 9100   2.053   2.610   3.406
 3032TIP3   OH2 9101   1.192   2.221   3.945
 3032TIP3    H1 9102   1.222   2.172   4.022
 3032TIP3    H2 9103   1.272   2.238   3.895
 3033TIP3   OH2 9104   3.678   2.378   3.539
 3033TIP3    H1 9105   3.670   2.335   3.454
 3033TIP3    H2 9106   3.768   2.410   3.543
 3034TIP3   OH2 9107   2.706   4.722   2.837
 3034TIP3    H1 9108   2.777   4.682   2.887
 3034TIP3    H2 9109   2.635   4.658   2.842
 3035TIP3   OH2 9110   2.130   3.739   2.171
 3035TIP3    H1 9111   2.156   3.657   2.213
 3035TIP3    H2 9112   2.113   3.715   2.080
 3036TIP3   OH2 9113   2.550   4.363   3.650
 3036TIP3    H1 9114   2.535   4.449   3.610
 3036TIP3    H2 9115   2.497   4.364   3.729
 3037TIP3   OH2 9116   1.258   0.998   1.423
 3037TIP3    H1 9117   1.229   0.916   1.382
 3037TIP3    H2 9118   1.354   0.992   1.422
 3038TIP3   OH2 9119   2.933   1.743   4.953
 3038TIP3    H1 9120   2.995   1.793   4.901
 3038TIP3    H2 9121   2.963   1.754   5.043
 3039TIP3   OH2 9122   3.119   5.767   4.735
 3039TIP3    H1 9123   3.112   5.863   4.737
 3039TIP3    H2 9124   3.047   5.740   4.677
 3040TIP3   OH2 9125   4.684   4.878   2.541
 3040TIP3    H1 9126   4.769   4.916   2.565
 3040TIP3    H2 9127   4.705   4.789   2.512
 3041TIP3   OH2 9128   5.818   2.295   3.622
 3041TIP3    H1 9129   5.856   2.381   3.640
 3041TIP3    H2 9130   5.778   2.269   3.705
 3042TIP3   OH2 9131   1.082   4.422   0.384
 3042TIP3    H1 9132   1.132   4.342   0.401
 3042TIP3    H2 9133   1.077   4.427   0.289
 3043TIP3   OH2 9134   6.158   4.738   3.133
 3043TIP3    H1 9135   6.083   4.678   3.126
 3043TIP3    H2 9136   6.231   4.690   3.092
 3044TIP3   OH2 9137   2.832   4.431   2.578
 3044TIP3    H1 9138   2.819   4.381   2.497
 3044TIP3    H2 9139   2.773   4.506   2.569
 3045TIP3   OH2 9140   6.053   3.913   4.294
 3045TIP3    H1 9141   5.960   3.937   4.290
 3045TIP3    H2 9142   6.083   3.917   4.204
 3046TIP3   OH2 9143   2.516   1.031   1.381
 3046TIP3    H1 9144   2.593   1.000   1.428
 3046TIP3    H2 9145   2.545   1.110   1.336
 3047TIP3   OH2 9146   3.547   1.486   1.525
 3047TIP3    H1 9147   3.583   1.515   1.608
 3047TIP3    H2 9148   3.621   1.446   1.479
 3048TIP3   OH2 9149   2.801   1.900   2.466
 3048TIP3    H1 9150   2.764   1.813   2.450
 3048TIP3    H2 9151   2.840   1.926   2.382
 3049TIP3   OH2 9152   5.852   3.626   1.142
 3049TIP3    H1 9153   5.792   3.624   1.216
 3049TIP3    H2 9154   5.927   3.573   1.170
 3050TIP3   OH2 9155   6.326   0.877   1.400
 3050TIP3    H1 9156   6.248   0.832   1.371
 3050TIP3    H2 9157   6.311   0.896   1.493
 3051TIP3   OH2 9158   1.369   4.200   0.171
 3051TIP3    H1 9159   1.397   4.208   0.080
 3051TIP3    H2 9160   1.285   4.246   0.174
 3052TIP3   OH2 9161   2.354   5.230   1.470
 3052TIP3    H1 9162   2.281   5.225   1.408
 3052TIP3    H2 9163   2.324   5.183   1.547
 3053TIP3   OH2 9164   2.191   2.053   1.534
 3053TIP3    H1 9165   2.251   2.087   1.601
 3053TIP3    H2 9166   2.130   2.125   1.519
 3054TIP3   OH2 9167   0.804   4.422   0.089
 3054TIP3    H1 9168   0.866   4.484   0.127
 3054TIP3    H2 9169   0.753   4.391   0.163
 3055TIP3   OH2 9170   4.523   0.529   1.992
 3055TIP3    H1 9171   4.609   0.534   2.034
 3055TIP3    H2 9172   4.540   0.548   1.900
 3056TIP3   OH2 9173   0.911   1.215   1.699
 3056TIP3    H1 9174   0.946   1.225   1.787
 3056TIP3    H2 9175   0.843   1.283   1.692
 3057TIP3   OH2 9176   5.562   0.842   0.470
 3057TIP3    H1 9177   5.532   0.855   0.380
 3057TIP3    H2 9178   5.655   0.821   0.461
 3058TIP3   OH2 9179   2.674   5.210   4.548
 3058TIP3    H1 9180   2.751   5.161   4.577
 3058TIP3    H2 9181   2.665   5.281   4.612
 3059TIP3   OH2 9182   5.760   5.770   2.084
 3059TIP3    H1 9183   5.811   5.769   2.003
 3059TIP3    H2 9184   5.669   5.774   2.054
 3060TIP3   OH2 9185   2.811   0.456   1.336
 3060TIP3    H1 9186   2.862   0.529   1.301
 3060TIP3    H2 9187   2.828   0.458   1.430
 3061TIP3   OH2 9188   0.230   1.655   1.272
 3061TIP3    H1 9189   0.319   1.624   1.288
 3061TIP3    H2 9190   0.209   1.626   1.183
 3062TIP3   OH2 9191   2.390   5.544   3.232
 3062TIP3    H1 9192   2.418   5.471   3.177
 3062TIP3    H2 9193   2.332   5.504   3.297
 3063TIP3   OH2 9194   5.564   4.841   2.005
 3063TIP3    H1 9195   5.634   4.906   2.004
 3063TIP3    H2 9196   5.586   4.780   1.935
 3064TIP3   OH2 9197   2.402   4.952   3.864
 3064TIP3    H1 9198   2.331   4.894   3.890
 3064TIP3    H2 9199   2.363   5.009   3.797
 3065TIP3   OH2 9200   0.000   0.565   2.040
 3065TIP3    H1 9201  -0.006   0.654   2.005
 3065TIP3    H2 9202  -0.073   0.518   2.000
 3066TIP3   OH2 9203   2.159   0.101   5.013
 3066TIP3    H1 9204   2.105   0.172   5.047
 3066TIP3    H2 9205   2.195   0.135   4.931
 3067TIP3   OH2 9206   5.550   2.465   1.177
 3067TIP3    H1 9207   5.530   2.559   1.173
 3067TIP3    H2 9208   5.623   2.458   1.238
 3068TIP3   OH2 9209   5.650   5.164   0.918
 3068TIP3    H1 9210   5.640   5.252   0.881
 3068TIP3    H2 9211   5.570   5.149   0.968
 3069TIP3   OH2 9212   6.254   3.939   1.520
 3069TIP3    H1 9213   6.211   3.923   1.604
 3069TIP3    H2 9214   6.194   3.904   1.454
 3070TIP3   OH2 9215   5.135   2.689   0.122
 3070TIP3    H1 9216   5.137   2.743   0.202
 3070TIP3    H2 9217   5.044   2.691   0.094
 3071TIP3   OH2 9218   0.689   0.318   3.762
 3071TIP3    H1 9219   0.762   0.308   3.701
 3071TIP3    H2 9220   0.717   0.387   3.822
 3072TIP3   OH2 9221   5.996   4.128   3.970
 3072TIP3    H1 9222   6.045   4.184   3.909
 3072TIP3    H2 9223   6.036   4.041   3.959
 3073TIP3   OH2 9224   5.445   0.936   2.422
 3073TIP3    H1 9225   5.525   0.963   2.467
 3073TIP3    H2 9226   5.391   0.896   2.490
 3074TIP3   OH2 9227   2.824   2.702   4.819
 3074TIP3    H1 9228   2.769   2.714   4.896
 3074TIP3    H2 9229   2.870   2.619   4.834
 3075TIP3   OH2 9230   2.825   2.289   0.418
 3075TIP3    H1 9231   2.918   2.271   0.433
 3075TIP3    H2 9232   2.804   2.360   0.480
 3076TIP3   OH2 9233   0.336   1.821   2.233
 3076TIP3    H1 9234   0.397   1.785   2.169
 3076TIP3    H2 9235   0.278   1.877   2.182
 3077TIP3   OH2 9236   1.241   4.147   3.841
 3077TIP3    H1 9237   1.286   4.220   3.799
 3077TIP3    H2 9238   1.152   4.179   3.856
 3078TIP3   OH2 9239   5.198   3.873   4.189
 3078TIP3    H1 9240   5.251   3.927   4.130
 3078TIP3    H2 9241   5.208   3.784   4.157
 3079TIP3   OH2 9242   6.325   4.197   4.833
 3079TIP3    H1 9243   6.269   4.271   4.856
 3079TIP3    H2 9244   6.311   4.185   4.739
 3080TIP3   OH2 9245   1.378   4.002   4.273
 3080TIP3    H1 9246   1.314   3.935   4.248
 3080TIP3    H2 9247   1.409   4.037   4.189
 3081TIP3   OH2 9248   0.131   4.062   0.155
 3081TIP3    H1 9249   0.135   3.973   0.191
 3081TIP3    H2 9250   0.089   4.051   0.069
 3082TIP3   OH2 9251   1.353   3.441   4.529
 3082TIP3    H1 9252   1.337   3.385   4.453
 3082TIP3    H2 9253   1.295   3.407   4.597
 3083TIP3   OH2 9254   0.807   4.292   3.727
 3083TIP3    H1 9255   0.880   4.306   3.666
 3083TIP3    H2 9256   0.735   4.261   3.671
 3084TIP3   OH2 9257   1.006   0.052   2.738
 3084TIP3    H1 9258   0.938   0.117   2.756
 3084TIP3    H2 9259   0.959  -0.021   2.696
 3085TIP3   OH2 9260   2.828   2.762   3.520
 3085TIP3    H1 9261   2.904   2.709   3.546
 3085TIP3    H2 9262   2.860   2.818   3.450
 3086TIP3   OH2 9263   1.858   4.689   1.732
 3086TIP3    H1 9264   1.790   4.737   1.685
 3086TIP3    H2 9265   1.925   4.670   1.666
 3087TIP3   OH2 9266   2.568   1.528   3.739
 3087TIP3    H1 9267   2.604   1.613   3.716
 3087TIP3    H2 9268   2.644   1.473   3.759
 3088TIP3   OH2 9269   1.899   1.883   3.475
 3088TIP3    H1 9270   1.846   1.830   3.535
 3088TIP3    H2 9271   1.839   1.949   3.442
 3089TIP3   OH2 9272   1.859   2.239   3.507
 3089TIP3    H1 9273   1.812   2.165   3.545
 3089TIP3    H2 9274   1.949   2.229   3.537
 3090TIP3   OH2 9275   5.762   2.523   4.728
 3090TIP3    H1 9276   5.716   2.466   4.789
 3090TIP3    H2 9277   5.769   2.471   4.648
 3091TIP3   OH2 9278   3.997   0.152   4.094
 3091TIP3    H1 9279   3.954   0.109   4.168
 3091TIP3    H2 9280   4.043   0.226   4.133
 3092TIP3   OH2 9281   4.235   4.347   4.626
 3092TIP3    H1 9282   4.154   4.393   4.645
 3092TIP3    H2 9283   4.287   4.357   4.706
 3093TIP3   OH2 9284   1.806   3.956   3.591
 3093TIP3    H1 9285   1.733   3.897   3.569
 3093TIP3    H2 9286   1.764   4.030   3.634
 3094TIP3   OH2 9287   3.208   1.912   0.600
 3094TIP3    H1 9288   3.176   1.947   0.683
 3094TIP3    H2 9289   3.233   1.821   0.621
 3095TIP3   OH2 9290   3.770   5.176   4.590
 3095TIP3    H1 9291   3.738   5.266   4.592
 3095TIP3    H2 9292   3.718   5.134   4.522
 3096TIP3   OH2 9293   0.562   1.328   1.445
 3096TIP3    H1 9294   0.517   1.359   1.523
 3096TIP3    H2 9295   0.557   1.232   1.451
 3097TIP3   OH2 9296   6.174   4.521   4.579
 3097TIP3    H1 9297   6.107   4.537   4.646
 3097TIP3    H2 9298   6.240   4.589   4.595
 3098TIP3   OH2 9299   2.561   5.972   1.994
 3098TIP3    H1 9300   2.544   5.878   2.002
 3098TIP3    H2 9301   2.655   5.979   1.983
 3099TIP3   OH2 9302   2.221   4.983   3.634
 3099TIP3    H1 9303   2.209   4.893   3.664
 3099TIP3    H2 9304   2.184   5.038   3.703
 3100TIP3   OH2 9305   4.474   4.563   4.701
 3100TIP3    H1 9306   4.540   4.558   4.632
 3100TIP3    H2 9307   4.525   4.575   4.782
 3101TIP3   OH2 9308   2.837   5.444   0.129
 3101TIP3    H1 9309   2.744   5.451   0.153
 3101TIP3    H2 9310   2.875   5.528   0.155
 3102TIP3   OH2 9311   1.569   1.667   1.048
 3102TIP3    H1 9312   1.599   1.576   1.045
 3102TIP3    H2 9313   1.477   1.664   1.022
 3103TIP3   OH2 9314   5.639   5.152   3.728
 3103TIP3    H1 9315   5.597   5.234   3.701
 3103TIP3    H2 9316   5.705   5.136   3.661
 3104TIP3   OH2 9317   3.085   2.186   1.710
 3104TIP3    H1 9318   3.020   2.118   1.733
 3104TIP3    H2 9319   3.034   2.252   1.662
 3105TIP3   OH2 9320   3.121   2.981   0.068
 3105TIP3    H1 9321   3.055   3.042   0.098
 3105TIP3    H2 9322   3.078   2.896   0.068
 3106TIP3   OH2 9323   5.450   3.750   5.100
 3106TIP3    H1 9324   5.424   3.675   5.153
 3106TIP3    H2 9325   5.402   3.824   5.138
 3107TIP3   OH2 9326   2.072   0.914   1.143
 3107TIP3    H1 9327   2.167   0.914   1.154
 3107TIP3    H2 9328   2.050   1.003   1.117
 3108TIP3   OH2 9329   0.865   4.046   1.459
 3108TIP3    H1 9330   0.811   3.978   1.419
 3108TIP3    H2 9331   0.864   4.025   1.553
 3109TIP3   OH2 9332   1.444   5.818   1.592
 3109TIP3    H1 9333   1.424   5.879   1.663
 3109TIP3    H2 9334   1.403   5.736   1.619
 3110TIP3   OH2 9335   0.632   3.134   1.132
 3110TIP3    H1 9336   0.604   3.114   1.043
 3110TIP3    H2 9337   0.565   3.193   1.166
 3111TIP3   OH2 9338   3.925   1.246   2.202
 3111TIP3    H1 9339   3.873   1.173   2.166
 3111TIP3    H2 9340   3.890   1.259   2.290
 3112TIP3   OH2 9341   1.376   2.273   1.029
 3112TIP3    H1 9342   1.362   2.268   1.124
 3112TIP3    H2 9343   1.288   2.270   0.991
 3113TIP3   OH2 9344   5.903   3.596   2.909
 3113TIP3    H1 9345   5.940   3.510   2.931
 3113TIP3    H2 9346   5.942   3.617   2.825
 3114TIP3   OH2 9347   3.547   2.781   3.959
 3114TIP3    H1 9348   3.517   2.869   3.941
 3114TIP3    H2 9349   3.471   2.725   3.945
 3115TIP3   OH2 9350   0.879   1.408   4.019
 3115TIP3    H1 9351   0.814   1.397   3.949
 3115TIP3    H2 9352   0.836   1.466   4.082
 3116TIP3   OH2 9353   3.785   4.782   1.387
 3116TIP3    H1 9354   3.776   4.697   1.344
 3116TIP3    H2 9355   3.695   4.813   1.397
 3117TIP3   OH2 9356   1.592   3.239   4.236
 3117TIP3    H1 9357   1.566   3.330   4.254
 3117TIP3    H2 9358   1.614   3.203   4.321
 3118TIP3   OH2 9359   5.421   3.043   3.504
 3118TIP3    H1 9360   5.423   3.085   3.418
 3118TIP3    H2 9361   5.490   3.086   3.554
 3119TIP3   OH2 9362   0.591   5.610   3.226
 3119TIP3    H1 9363   0.528   5.541   3.205
 3119TIP3    H2 9364   0.604   5.657   3.144
 3120TIP3   OH2 9365   5.295   4.467   0.876
 3120TIP3    H1 9366   5.298   4.554   0.916
 3120TIP3    H2 9367   5.364   4.418   0.921
 3121TIP3   OH2 9368   0.065   3.642   5.144
 3121TIP3    H1 9369  -0.029   3.633   5.132
 3121TIP3    H2 9370   0.078   3.733   5.172
 3122TIP3   OH2 9371   1.985   3.397   4.264
 3122TIP3    H1 9372   1.955   3.379   4.175
 3122TIP3    H2 9373   2.072   3.355   4.268
 3123TIP3   OH2 9374   3.639   4.820   4.732
 3123TIP3    H1 9375   3.678   4.894   4.780
 3123TIP3    H2 9376   3.605   4.859   4.651
 3124TIP3   OH2 9377   4.920   4.416   3.669
 3124TIP3    H1 9378   5.013   4.394   3.661
 3124TIP3    H2 9379   4.875   4.332   3.664
 3125TIP3   OH2 9380   4.762   1.381   3.438
 3125TIP3    H1 9381   4.672   1.389   3.470
 3125TIP3    H2 9382   4.817   1.403   3.513
 3126TIP3   OH2 9383   0.502   2.638   0.834
 3126TIP3    H1 9384   0.484   2.544   0.842
 3126TIP3    H2 9385   0.596   2.643   0.815
 3127TIP3   OH2 9386   4.854   3.194   0.302
 3127TIP3    H1 9387   4.773   3.243   0.318
 3127TIP3    H2 9388   4.826   3.119   0.249
 3128TIP3   OH2 9389   1.054   0.304   4.386
 3128TIP3    H1 9390   1.108   0.242   4.337
 3128TIP3    H2 9391   1.047   0.264   4.473
 3129TIP3   OH2 9392   5.727   5.147   2.879
 3129TIP3    H1 9393   5.812   5.188   2.899
 3129TIP3    H2 9394   5.739   5.110   2.791
 3130TIP3   OH2 9395   3.034   4.825   2.284
 3130TIP3    H1 9396   3.083   4.756   2.240
 3130TIP3    H2 9397   3.084   4.844   2.363
 3131TIP3   OH2 9398   1.990   1.715   4.189
 3131TIP3    H1 9399   2.013   1.761   4.269
 3131TIP3    H2 9400   2.001   1.780   4.119
 3132TIP3   OH2 9401   5.854   5.815   5.024
 3132TIP3    H1 9402   5.771   5.794   5.065
 3132TIP3    H2 9403   5.886   5.891   5.074
 3133TIP3   OH2 9404   2.926   3.744   1.246
 3133TIP3    H1 9405   2.852   3.750   1.186
 3133TIP3    H2 9406   2.926   3.653   1.276
 3134TIP3   OH2 9407   0.289   2.227   5.058
 3134TIP3    H1 9408   0.223   2.187   5.002
 3134TIP3    H2 9409   0.268   2.321   5.056
 3135TIP3   OH2 9410   4.853   5.202   1.789
 3135TIP3    H1 9411   4.870   5.145   1.865
 3135TIP3    H2 9412   4.781   5.159   1.743
 3136TIP3   OH2 9413   4.596   4.254   3.816
 3136TIP3    H1 9414   4.543   4.284   3.890
 3136TIP3    H2 9415   4.604   4.160   3.828
 3137TIP3   OH2 9416   0.873   3.882   3.162
 3137TIP3    H1 9417   0.837   3.797   3.190
 3137TIP3    H2 9418   0.834   3.945   3.224
 3138TIP3   OH2 9419   6.072   5.016   0.122
 3138TIP3    H1 9420   6.084   5.068   0.042
 3138TIP3    H2 9421   6.057   5.082   0.190
 3139TIP3   OH2 9422   4.499   3.976   0.534
 3139TIP3    H1 9423   4.412   3.937   0.525
 3139TIP3    H2 9424   4.555   3.904   0.565
 3140TIP3   OH2 9425   5.090   3.849   3.578
 3140TIP3    H1 9426   5.117   3.767   3.619
 3140TIP3    H2 9427   5.083   3.911   3.650
 3141TIP3   OH2 9428   3.275   0.582   4.149
 3141TIP3    H1 9429   3.241   0.613   4.065
 3141TIP3    H2 9430   3.246   0.649   4.212
 3142TIP3   OH2 9431   4.151   3.826   4.460
 3142TIP3    H1 9432   4.106   3.869   4.532
 3142TIP3    H2 9433   4.121   3.872   4.382
 3143TIP3   OH2 9434   0.742   0.573   0.637
 3143TIP3    H1 9435   0.763   0.506   0.572
 3143TIP3    H2 9436   0.742   0.655   0.588
 3144TIP3   OH2 9437   4.831   5.576   4.084
 3144TIP3    H1 9438   4.927   5.579   4.086
 3144TIP3    H2 9439   4.804   5.667   4.097
 3145TIP3   OH2 9440   5.008   0.922   3.247
 3145TIP3    H1 9441   4.983   1.007   3.283
 3145TIP3    H2 9442   5.086   0.940   3.194
 3146TIP3   OH2 9443   3.470   1.111   0.449
 3146TIP3    H1 9444   3.396   1.089   0.506
 3146TIP3    H2 9445   3.532   1.155   0.507
 3147TIP3   OH2 9446   0.069   2.307   4.112
 3147TIP3    H1 9447   0.068   2.222   4.069
 3147TIP3    H2 9448   0.002   2.302   4.179
 3148TIP3   OH2 9449   5.210   0.706   1.369
 3148TIP3    H1 9450   5.189   0.720   1.276
 3148TIP3    H2 9451   5.235   0.793   1.401
 3149TIP3   OH2 9452   1.951   4.225   0.990
 3149TIP3    H1 9453   1.964   4.191   0.902
 3149TIP3    H2 9454   1.997   4.309   0.990
 3150TIP3   OH2 9455   2.041   3.399   2.617
 3150TIP3    H1 9456   2.049   3.356   2.702
 3150TIP3    H2 9457   2.014   3.489   2.637
 3151TIP3   OH2 9458   2.057   1.986   2.806
 3151TIP3    H1 9459   2.078   1.963   2.897
 3151TIP3    H2 9460   2.137   2.024   2.771
 3152TIP3   OH2 9461   0.606   3.915   0.492
 3152TIP3    H1 9462   0.597   3.968   0.413
 3152TIP3    H2 9463   0.548   3.840   0.477
 3153TIP3   OH2 9464   4.504   5.682   1.810
 3153TIP3    H1 9465   4.536   5.760   1.855
 3153TIP3    H2 9466   4.565   5.669   1.738
 3154TIP3   OH2 9467   0.611   0.993   4.618
 3154TIP3    H1 9468   0.668   1.009   4.543
 3154TIP3    H2 9469   0.557   0.919   4.592
 3155TIP3   OH2 9470   0.187   3.909   1.455
 3155TIP3    H1 9471   0.217   3.846   1.521
 3155TIP3    H2 9472   0.100   3.935   1.485
 3156TIP3   OH2 9473   4.577   3.636   2.794
 3156TIP3    H1 9474   4.615   3.711   2.840
 3156TIP3    H2 9475   4.530   3.675   2.720
 3157TIP3   OH2 9476   5.312   3.142   1.943
 3157TIP3    H1 9477   5.308   3.051   1.913
 3157TIP3    H2 9478   5.315   3.194   1.863
 3158TIP3   OH2 9479   0.970   1.038   1.503
 3158TIP3    H1 9480   0.952   1.097   1.576
 3158TIP3    H2 9481   1.065   1.035   1.497
 3159TIP3   OH2 9482   5.667   1.240   0.843
 3159TIP3    H1 9483   5.748   1.232   0.792
 3159TIP3    H2 9484   5.695   1.236   0.934
 3160TIP3   OH2 9485   1.640   1.880   4.726
 3160TIP3    H1 9486   1.581   1.844   4.793
 3160TIP3    H2 9487   1.724   1.888   4.770
 3161TIP3   OH2 9488   5.480   5.390   3.321
 3161TIP3    H1 9489   5.508   5.371   3.231
 3161TIP3    H2 9490   5.478   5.305   3.364
 3162TIP3   OH2 9491   1.643   4.084   4.560
 3162TIP3    H1 9492   1.682   4.042   4.484
 3162TIP3    H2 9493   1.551   4.093   4.538
 3163TIP3   OH2 9494   3.804   0.527   2.040
 3163TIP3    H1 9495   3.729   0.499   1.988
 3163TIP3    H2 9496   3.854   0.447   2.056
 3164TIP3   OH2 9497   2.774   2.300   2.614
 3164TIP3    H1 9498   2.691   2.264   2.644
 3164TIP3    H2 9499   2.756   2.329   2.524
 3165TIP3   OH2 9500   5.533   4.688   1.045
 3165TIP3    H1 9501   5.564   4.645   1.125
 3165TIP3    H2 9502   5.565   4.633   0.974
 3166TIP3   OH2 9503   5.805   2.737   2.837
 3166TIP3    H1 9504   5.872   2.805   2.840
 3166TIP3    H2 9505   5.851   2.658   2.866
 3167TIP3   OH2 9506   3.493   5.383   2.583
 3167TIP3    H1 9507   3.440   5.320   2.632
 3167TIP3    H2 9508   3.460   5.378   2.494
 3168TIP3   OH2 9509   5.901   1.160   0.092
 3168TIP3    H1 9510   5.950   1.238   0.064
 3168TIP3    H2 9511   5.811   1.178   0.065
 3169TIP3   OH2 9512   2.782  -0.015   3.836
 3169TIP3    H1 9513   2.696   0.016   3.865
 3169TIP3    H2 9514   2.822   0.061   3.794
 3170TIP3   OH2 9515   1.962   3.386  -0.063
 3170TIP3    H1 9516   1.957   3.359   0.029
 3170TIP3    H2 9517   2.046   3.432  -0.069
 3171TIP3   OH2 9518   2.277   1.150   3.534
 3171TIP3    H1 9519   2.186   1.168   3.507
 3171TIP3    H2 9520   2.277   1.169   3.628
 3172TIP3   OH2 9521   1.653   5.706   2.829
 3172TIP3    H1 9522   1.745   5.697   2.801
 3172TIP3    H2 9523   1.607   5.733   2.750
 3173TIP3   OH2 9524   1.027   4.065   2.226
 3173TIP3    H1 9525   1.068   4.036   2.144
 3173TIP3    H2 9526   1.088   4.128   2.263
 3174TIP3   OH2 9527   1.126   1.129   2.071
 3174TIP3    H1 9528   1.071   1.052   2.061
 3174TIP3    H2 9529   1.213   1.100   2.044
 3175TIP3   OH2 9530   1.800   2.452   4.423
 3175TIP3    H1 9531   1.801   2.517   4.353
 3175TIP3    H2 9532   1.722   2.473   4.475
 3176TIP3   OH2 9533   5.582   3.681   3.794
 3176TIP3    H1 9534   5.526   3.756   3.810
 3176TIP3    H2 9535   5.543   3.637   3.718
 3177TIP3   OH2 9536   0.174   1.873   4.906
 3177TIP3    H1 9537   0.154   1.824   4.827
 3177TIP3    H2 9538   0.259   1.840   4.935
 3178TIP3   OH2 9539   4.070   0.398   4.698
 3178TIP3    H1 9540   4.016   0.463   4.652
 3178TIP3    H2 9541   4.154   0.443   4.712
 3179TIP3   OH2 9542   3.861   5.674   0.891
 3179TIP3    H1 9543   3.952   5.661   0.918
 3179TIP3    H2 9544   3.865   5.744   0.826
 3180TIP3   OH2 9545   4.027   5.206   0.514
 3180TIP3    H1 9546   3.981   5.192   0.431
 3180TIP3    H2 9547   3.960   5.243   0.572
 3181TIP3   OH2 9548   5.201   5.461   1.590
 3181TIP3    H1 9549   5.263   5.392   1.565
 3181TIP3    H2 9550   5.115   5.423   1.572
 3182TIP3   OH2 9551   5.481   2.203   4.387
 3182TIP3    H1 9552   5.466   2.111   4.409
 3182TIP3    H2 9553   5.398   2.233   4.351
 3183TIP3   OH2 9554   2.427   4.925   4.877
 3183TIP3    H1 9555   2.505   4.870   4.887
 3183TIP3    H2 9556   2.354   4.863   4.873
 3184TIP3   OH2 9557   2.617   2.494   1.951
 3184TIP3    H1 9558   2.570   2.540   2.021
 3184TIP3    H2 9559   2.569   2.411   1.941
 3185TIP3   OH2 9560   3.896   5.922   3.557
 3185TIP3    H1 9561   3.990   5.903   3.559
 3185TIP3    H2 9562   3.878   5.964   3.641
 3186TIP3   OH2 9563   6.347   0.426   0.417
 3186TIP3    H1 9564   6.403   0.502   0.401
 3186TIP3    H2 9565   6.306   0.444   0.502
 3187TIP3   OH2 9566   3.040   0.798   0.885
 3187TIP3    H1 9567   3.125   0.789   0.842
 3187TIP3    H2 9568   3.035   0.891   0.907
 3188TIP3   OH2 9569   0.983   2.153   1.597
 3188TIP3    H1 9570   0.932   2.129   1.520
 3188TIP3    H2 9571   1.025   2.072   1.625
 3189TIP3   OH2 9572   1.212   1.288   1.000
 3189TIP3    H1 9573   1.135   1.237   1.024
 3189TIP3    H2 9574   1.195   1.316   0.910
 3190TIP3   OH2 9575   3.100   5.974   4.975
 3190TIP3    H1 9576   3.072   6.003   4.889
 3190TIP3    H2 9577   3.184   5.931   4.959
 3191TIP3   OH2 9578   4.931   0.064   3.863
 3191TIP3    H1 9579   5.011   0.077   3.812
 3191TIP3    H2 9580   4.863   0.051   3.798
 3192TIP3   OH2 9581   4.688   0.122   2.760
 3192TIP3    H1 9582   4.638   0.174   2.823
 3192TIP3    H2 9583   4.644   0.037   2.759
 3193TIP3   OH2 9584   1.337   3.746   0.647
 3193TIP3    H1 9585   1.263   3.724   0.591
 3193TIP3    H2 9586   1.366   3.832   0.617
 3194TIP3   OH2 9587   2.584   0.892   3.300
 3194TIP3    H1 9588   2.566   0.856   3.213
 3194TIP3    H2 9589   2.549   0.827   3.361
 3195TIP3   OH2 9590   1.691   4.828   1.585
 3195TIP3    H1 9591   1.699   4.923   1.594
 3195TIP3    H2 9592   1.599   4.809   1.606
 3196TIP3   OH2 9593   5.006   3.034   4.347
 3196TIP3    H1 9594   4.951   2.983   4.287
 3196TIP3    H2 9595   4.949   3.053   4.421
 3197TIP3   OH2 9596   2.634   2.736   0.598
 3197TIP3    H1 9597   2.575   2.754   0.525
 3197TIP3    H2 9598   2.596   2.658   0.640
 3198TIP3   OH2 9599   2.050   2.793   1.061
 3198TIP3    H1 9600   2.067   2.815   1.153
 3198TIP3    H2 9601   2.123   2.832   1.013
 3199TIP3   OH2 9602   4.016   3.868   4.961
 3199TIP3    H1 9603   4.063   3.827   4.888
 3199TIP3    H2 9604   4.060   3.953   4.972
 3200TIP3   OH2 9605   2.448   4.201   0.881
 3200TIP3    H1 9606   2.470   4.169   0.794
 3200TIP3    H2 9607   2.447   4.122   0.936
 3201TIP3   OH2 9608   5.910   3.999   3.367
 3201TIP3    H1 9609   5.851   3.937   3.409
 3201TIP3    H2 9610   5.917   3.969   3.277
 3202TIP3   OH2 9611   2.680   0.094   2.965
 3202TIP3    H1 9612   2.726   0.098   3.049
 3202TIP3    H2 9613   2.628   0.013   2.971
 3203TIP3   OH2 9614   5.069   0.129   0.800
 3203TIP3    H1 9615   5.026   0.099   0.720
 3203TIP3    H2 9616   5.081   0.223   0.787
 3204TIP3   OH2 9617   4.095   3.028   3.186
 3204TIP3    H1 9618   4.010   3.011   3.227
 3204TIP3    H2 9619   4.075   3.078   3.107
 3205TIP3   OH2 9620   3.301   1.164   0.649
 3205TIP3    H1 9621   3.324   1.251   0.617
 3205TIP3    H2 9622   3.327   1.164   0.741
 3206TIP3   OH2 9623   5.358   2.852   2.491
 3206TIP3    H1 9624   5.438   2.905   2.491
 3206TIP3    H2 9625   5.287   2.915   2.498
 3207TIP3   OH2 9626   4.320   4.654   0.717
 3207TIP3    H1 9627   4.344   4.716   0.648
 3207TIP3    H2 9628   4.227   4.637   0.703
 3208TIP3   OH2 9629   4.032   4.614   0.668
 3208TIP3    H1 9630   3.986   4.694   0.693
 3208TIP3    H2 9631   3.989   4.545   0.718
 3209TIP3   OH2 9632   3.830   3.065   3.230
 3209TIP3    H1 9633   3.809   2.991   3.173
 3209TIP3    H2 9634   3.750   3.081   3.279
 3210TIP3   OH2 9635   4.604   2.260   2.372
 3210TIP3    H1 9636   4.657   2.326   2.416
 3210TIP3    H2 9637   4.667   2.203   2.330
 3211TIP3   OH2 9638   0.374   5.424   0.635
 3211TIP3    H1 9639   0.327   5.448   0.555
 3211TIP3    H2 9640   0.344   5.336   0.654
 3212TIP3   OH2 9641   2.880   2.916   0.557
 3212TIP3    H1 9642   2.797   2.872   0.576
 3212TIP3    H2 9643   2.945   2.868   0.609
 3213TIP3   OH2 9644   4.821   2.387   3.471
 3213TIP3    H1 9645   4.741   2.419   3.513
 3213TIP3    H2 9646   4.887   2.453   3.489
 3214TIP3   OH2 9647   4.206   3.899   0.543
 3214TIP3    H1 9648   4.162   3.820   0.511
 3214TIP3    H2 9649   4.148   3.933   0.611
 3215TIP3   OH2 9650   0.282   4.742   0.147
 3215TIP3    H1 9651   0.197   4.749   0.105
 3215TIP3    H2 9652   0.345   4.747   0.075
 3216TIP3   OH2 9653   3.494   5.462   0.441
 3216TIP3    H1 9654   3.419   5.468   0.499
 3216TIP3    H2 9655   3.492   5.372   0.409
 3217TIP3   OH2 9656   3.795   2.380   5.147
 3217TIP3    H1 9657   3.832   2.428   5.073
 3217TIP3    H2 9658   3.745   2.309   5.106
 3218TIP3   OH2 9659   3.375   4.161   0.076
 3218TIP3    H1 9660   3.425   4.163  -0.005
 3218TIP3    H2 9661   3.319   4.083   0.068
 3219TIP3   OH2 9662   1.088   2.559   4.117
 3219TIP3    H1 9663   1.085   2.603   4.202
 3219TIP3    H2 9664   0.998   2.532   4.100
 3220TIP3   OH2 9665   0.516   0.549   2.476
 3220TIP3    H1 9666   0.599   0.552   2.429
 3220TIP3    H2 9667   0.524   0.473   2.533
 3221TIP3   OH2 9668   3.790   0.092   0.452
 3221TIP3    H1 9669   3.743   0.141   0.385
 3221TIP3    H2 9670   3.820   0.158   0.514
 3222TIP3   OH2 9671   4.791   5.475   2.016
 3222TIP3    H1 9672   4.804   5.393   2.064
 3222TIP3    H2 9673   4.772   5.448   1.926
 3223TIP3   OH2 9674   4.299   5.858   2.998
 3223TIP3    H1 9675   4.213   5.898   3.010
 3223TIP3    H2 9676   4.296   5.821   2.910
 3224TIP3   OH2 9677   0.402   0.602   0.708
 3224TIP3    H1 9678   0.400   0.693   0.680
 3224TIP3    H2 9679   0.319   0.566   0.678
 3225TIP3   OH2 9680   6.078   3.992   3.045
 3225TIP3    H1 9681   6.032   3.920   3.089
 3225TIP3    H2 9682   6.167   3.988   3.080
 3226TIP3   OH2 9683   1.560   0.205   1.693
 3226TIP3    H1 9684   1.525   0.170   1.610
 3226TIP3    H2 9685   1.542   0.299   1.689
 3227TIP3   OH2 9686   2.767   5.615   0.483
 3227TIP3    H1 9687   2.755   5.522   0.469
 3227TIP3    H2 9688   2.862   5.628   0.487
 3228TIP3   OH2 9689   3.181   5.541   4.917
 3228TIP3    H1 9690   3.275   5.527   4.913
 3228TIP3    H2 9691   3.165   5.614   4.857
 3229TIP3   OH2 9692   4.041   4.438   1.021
 3229TIP3    H1 9693   4.115   4.379   1.037
 3229TIP3    H2 9694   4.063   4.517   1.069
 3230TIP3   OH2 9695   0.194   2.962   4.570
 3230TIP3    H1 9696   0.166   2.873   4.589
 3230TIP3    H2 9697   0.286   2.955   4.546
 3231TIP3   OH2 9698   2.663   2.667   3.940
 3231TIP3    H1 9699   2.743   2.698   3.982
 3231TIP3    H2 9700   2.682   2.577   3.913
 3232TIP3   OH2 9701   2.726   2.123   3.904
 3232TIP3    H1 9702   2.649   2.154   3.857
 3232TIP3    H2 9703   2.799   2.168   3.863
 3233TIP3   OH2 9704   0.344   2.559   4.746
 3233TIP3    H1 9705   0.392   2.631   4.789
 3233TIP3    H2 9706   0.259   2.597   4.725
 3234TIP3   OH2 9707   0.094   5.553   1.452
 3234TIP3    H1 9708   0.144   5.625   1.490
 3234TIP3    H2 9709   0.092   5.573   1.358
 3235TIP3   OH2 9710   1.623   5.737   0.795
 3235TIP3    H1 9711   1.623   5.750   0.890
 3235TIP3    H2 9712   1.547   5.682   0.778
 3236TIP3   OH2 9713   5.647   1.650   1.068
 3236TIP3    H1 9714   5.723   1.707   1.056
 3236TIP3    H2 9715   5.638   1.603   0.985
 3237TIP3   OH2 9716   2.712  -0.036   0.550
 3237TIP3    H1 9717   2.693  -0.105   0.614
 3237TIP3    H2 9718   2.792   0.005   0.582
 3238TIP3   OH2 9719   4.359   5.550   0.875
 3238TIP3    H1 9720   4.439   5.557   0.822
 3238TIP3    H2 9721   4.301   5.617   0.839
 3239TIP3   OH2 9722   2.689   5.481   4.360
 3239TIP3    H1 9723   2.729   5.557   4.319
 3239TIP3    H2 9724   2.735   5.406   4.324
 3240TIP3   OH2 9725   1.371   2.589   4.865
 3240TIP3    H1 9726   1.301   2.539   4.908
 3240TIP3    H2 9727   1.438   2.523   4.846
 3241TIP3   OH2 9728   1.451   2.639   1.842
 3241TIP3    H1 9729   1.426   2.548   1.825
 3241TIP3    H2 9730   1.547   2.639   1.842
 3242TIP3   OH2 9731   3.879   5.476   2.940
 3242TIP3    H1 9732   3.970   5.491   2.915
 3242TIP3    H2 9733   3.833   5.466   2.857
 3243TIP3   OH2 9734   3.684   0.358   2.910
 3243TIP3    H1 9735   3.737   0.437   2.901
 3243TIP3    H2 9736   3.650   0.362   2.999
 3244TIP3   OH2 9737   1.584   5.661   1.370
 3244TIP3    H1 9738   1.507   5.612   1.342
 3244TIP3    H2 9739   1.553   5.717   1.441
 3245TIP3   OH2 9740   3.611   3.264   3.830
 3245TIP3    H1 9741   3.568   3.287   3.912
 3245TIP3    H2 9742   3.695   3.308   3.833
 3246TIP3   OH2 9743   3.805   4.406   2.166
 3246TIP3    H1 9744   3.730   4.387   2.222
 3246TIP3    H2 9745   3.851   4.477   2.211
 3247TIP3   OH2 9746   0.162   1.264   0.469
 3247TIP3    H1 9747   0.128   1.324   0.536
 3247TIP3    H2 9748   0.085   1.238   0.419
 3248TIP3   OH2 9749   2.017   0.800   4.806
 3248TIP3    H1 9750   1.977   0.882   4.775
 3248TIP3    H2 9751   2.091   0.786   4.747
 3249TIP3   OH2 9752   4.705   1.786   2.733
 3249TIP3    H1 9753   4.757   1.710   2.707
 3249TIP3    H2 9754   4.731   1.803   2.823
 3250TIP3   OH2 9755   4.385   2.004   4.307
 3250TIP3    H1 9756   4.479   1.998   4.291
 3250TIP3    H2 9757   4.375   2.080   4.364
 3251TIP3   OH2 9758   5.715   5.925   4.736
 3251TIP3    H1 9759   5.650   5.858   4.714
 3251TIP3    H2 9760   5.745   5.901   4.824
 3252TIP3   OH2 9761   3.052   3.844   4.641
 3252TIP3    H1 9762   3.028   3.755   4.617
 3252TIP3    H2 9763   3.077   3.885   4.559
 3253TIP3   OH2 9764   5.868   2.557   0.041
 3253TIP3    H1 9765   5.863   2.558  -0.055
 3253TIP3    H2 9766   5.778   2.541   0.069
 3254TIP3   OH2 9767   6.211   1.926   0.135
 3254TIP3    H1 9768   6.285   1.968   0.090
 3254TIP3    H2 9769   6.237   1.834   0.141
 3255TIP3   OH2 9770   3.240   1.425   2.197
 3255TIP3    H1 9771   3.203   1.363   2.135
 3255TIP3    H2 9772   3.170   1.441   2.260
 3256TIP3   OH2 9773   4.402   1.851   1.038
 3256TIP3    H1 9774   4.364   1.815   0.959
 3256TIP3    H2 9775   4.489   1.810   1.044
 3257TIP3   OH2 9776   3.318   4.844   0.277
 3257TIP3    H1 9777   3.324   4.869   0.369
 3257TIP3    H2 9778   3.312   4.927   0.229
 3258TIP3   OH2 9779   3.786   1.761   3.286
 3258TIP3    H1 9780   3.770   1.854   3.269
 3258TIP3    H2 9781   3.776   1.752   3.381
 3259TIP3   OH2 9782   5.467   3.993   0.420
 3259TIP3    H1 9783   5.429   4.061   0.363
 3259TIP3    H2 9784   5.397   3.927   0.427
 3260TIP3   OH2 9785   3.852   1.588   1.302
 3260TIP3    H1 9786   3.792   1.516   1.323
 3260TIP3    H2 9787   3.908   1.553   1.233
 3261TIP3   OH2 9788   2.796   1.546   4.684
 3261TIP3    H1 9789   2.852   1.503   4.749
 3261TIP3    H2 9790   2.707   1.525   4.711
 3262TIP3   OH2 9791   2.669   0.513   2.301
 3262TIP3    H1 9792   2.658   0.604   2.330
 3262TIP3    H2 9793   2.582   0.488   2.270
 3263TIP3   OH2 9794   1.630   3.254   5.073
 3263TIP3    H1 9795   1.559   3.301   5.116
 3263TIP3    H2 9796   1.616   3.269   4.979
 3264TIP3   OH2 9797   4.501   1.499   0.864
 3264TIP3    H1 9798   4.477   1.431   0.927
 3264TIP3    H2 9799   4.418   1.522   0.821
 3265TIP3   OH2 9800   0.375   5.512   1.656
 3265TIP3    H1 9801   0.327   5.436   1.624
 3265TIP3    H2 9802   0.346   5.584   1.599
 3266TIP3   OH2 9803   6.210   2.270   0.672
 3266TIP3    H1 9804   6.300   2.302   0.681
 3266TIP3    H2 9805   6.204   2.201   0.737
 3267TIP3   OH2 9806   3.804   2.196   3.372
 3267TIP3    H1 9807   3.789   2.142   3.294
 3267TIP3    H2 9808   3.881   2.157   3.414
 3268TIP3   OH2 9809   1.089   0.762   4.521
 3268TIP3    H1 9810   1.017   0.704   4.545
 3268TIP3    H2 9811   1.057   0.809   4.444
 3269TIP3   OH2 9812   5.754  -0.035   2.557
 3269TIP3    H1 9813   5.803  -0.078   2.486
 3269TIP3    H2 9814   5.773   0.059   2.546
 3270TIP3   OH2 9815   0.828   3.004   0.381
 3270TIP3    H1 9816   0.804   2.988   0.289
 3270TIP3    H2 9817   0.920   3.031   0.377
 3271TIP3   OH2 9818   1.125   5.868   0.579
 3271TIP3    H1 9819   1.149   5.805   0.511
 3271TIP3    H2 9820   1.161   5.831   0.659
 3272TIP3   OH2 9821   5.406   5.171   4.888
 3272TIP3    H1 9822   5.500   5.155   4.898
 3272TIP3    H2 9823   5.364   5.104   4.943
 3273TIP3   OH2 9824   3.853   3.479   0.387
 3273TIP3    H1 9825   3.854   3.557   0.331
 3273TIP3    H2 9826   3.788   3.421   0.346
 3274TIP3   OH2 9827   6.235   3.611   0.653
 3274TIP3    H1 9828   6.173   3.583   0.721
 3274TIP3    H2 9829   6.230   3.542   0.587
 3275TIP3   OH2 9830   1.026   4.970   0.736
 3275TIP3    H1 9831   0.942   5.011   0.715
 3275TIP3    H2 9832   1.029   4.892   0.681
 3276TIP3   OH2 9833   1.531   4.555   3.433
 3276TIP3    H1 9834   1.606   4.600   3.472
 3276TIP3    H2 9835   1.569   4.480   3.387
 3277TIP3   OH2 9836   5.760   4.695   4.315
 3277TIP3    H1 9837   5.749   4.769   4.374
 3277TIP3    H2 9838   5.851   4.700   4.286
 3278TIP3   OH2 9839   2.710   4.036   0.151
 3278TIP3    H1 9840   2.696   4.078   0.065
 3278TIP3    H2 9841   2.731   4.108   0.210
 3279TIP3   OH2 9842   5.490   0.124   2.440
 3279TIP3    H1 9843   5.452   0.059   2.500
 3279TIP3    H2 9844   5.499   0.078   2.357
 3280TIP3   OH2 9845   2.925   4.259   3.084
 3280TIP3    H1 9846   2.985   4.331   3.104
 3280TIP3    H2 9847   2.898   4.275   2.994
 3281TIP3   OH2 9848   3.328   5.670   2.246
 3281TIP3    H1 9849   3.352   5.635   2.160
 3281TIP3    H2 9850   3.232   5.673   2.244
 3282TIP3   OH2 9851   1.984   2.233   4.219
 3282TIP3    H1 9852   1.939   2.240   4.304
 3282TIP3    H2 9853   1.940   2.297   4.163
 3283TIP3   OH2 9854   0.847   1.923   1.796
 3283TIP3    H1 9855   0.855   1.972   1.878
 3283TIP3    H2 9856   0.753   1.906   1.787
 3284TIP3   OH2 9857   0.728   2.281   4.142
 3284TIP3    H1 9858   0.779   2.238   4.211
 3284TIP3    H2 9859   0.782   2.271   4.063
 3285TIP3   OH2 9860   4.090   3.562   1.578
 3285TIP3    H1 9861   4.114   3.594   1.665
 3285TIP3    H2 9862   4.158   3.596   1.520
 3286TIP3   OH2 9863   1.798   0.290   0.685
 3286TIP3    H1 9864   1.790   0.261   0.594
 3286TIP3    H2 9865   1.744   0.368   0.690
 3287TIP3   OH2 9866   1.158   5.760   2.989
 3287TIP3    H1 9867   1.164   5.665   2.977
 3287TIP3    H2 9868   1.249   5.789   2.995
 3288TIP3   OH2 9869   2.967   2.244   3.832
 3288TIP3    H1 9870   3.012   2.182   3.775
 3288TIP3    H2 9871   3.007   2.231   3.918
 3289TIP3   OH2 9872   1.034   5.448   4.214
 3289TIP3    H1 9873   0.992   5.375   4.168
 3289TIP3    H2 9874   1.064   5.411   4.297
 3290TIP3   OH2 9875   3.417   5.451   4.357
 3290TIP3    H1 9876   3.335   5.500   4.344
 3290TIP3    H2 9877   3.484   5.519   4.369
 3291TIP3   OH2 9878   0.166   5.142   1.818
 3291TIP3    H1 9879   0.152   5.048   1.807
 3291TIP3    H2 9880   0.192   5.173   1.731
 3292TIP3   OH2 9881   2.861   1.357   2.183
 3292TIP3    H1 9882   2.858   1.338   2.089
 3292TIP3    H2 9883   2.819   1.442   2.192
 3293TIP3   OH2 9884   4.282   0.407   2.536
 3293TIP3    H1 9885   4.190   0.388   2.557
 3293TIP3    H2 9886   4.303   0.344   2.467
 3294TIP3   OH2 9887   0.295   1.810   3.297
 3294TIP3    H1 9888   0.291   1.905   3.284
 3294TIP3    H2 9889   0.361   1.780   3.235
 3295TIP3   OH2 9890   1.357   4.835   4.655
 3295TIP3    H1 9891   1.424   4.804   4.594
 3295TIP3    H2 9892   1.279   4.847   4.601
 3296TIP3   OH2 9893   5.779   2.906   0.456
 3296TIP3    H1 9894   5.737   2.826   0.487
 3296TIP3    H2 9895   5.830   2.879   0.380
 3297TIP3   OH2 9896   6.328   4.335   2.553
 3297TIP3    H1 9897   6.386   4.290   2.492
 3297TIP3    H2 9898   6.309   4.419   2.511
 3298TIP3   OH2 9899   3.927   3.765   0.883
 3298TIP3    H1 9900   3.997   3.702   0.867
 3298TIP3    H2 9901   3.972   3.848   0.898
 3299TIP3   OH2 9902   1.487   5.870   1.874
 3299TIP3    H1 9903   1.494   5.888   1.967
 3299TIP3    H2 9904   1.577   5.859   1.845
 3300TIP3   OH2 9905   0.321   2.973   1.297
 3300TIP3    H1 9906   0.264   3.037   1.256
 3300TIP3    H2 9907   0.360   2.925   1.224
 3301TIP3   OH2 9908   1.731   2.366   3.984
 3301TIP3    H1 9909   1.713   2.386   4.076
 3301TIP3    H2 9910   1.701   2.443   3.936
 3302TIP3   OH2 9911   5.605   3.429   3.013
 3302TIP3    H1 9912   5.670   3.367   2.980
 3302TIP3    H2 9913   5.647   3.514   3.006
 3303TIP3   OH2 9914   2.238   2.529   0.783
 3303TIP3    H1 9915   2.216   2.510   0.874
 3303TIP3    H2 9916   2.334   2.532   0.781
 3304TIP3   OH2 9917   0.044   3.894   2.894
 3304TIP3    H1 9918   0.042   3.836   2.818
 3304TIP3    H2 9919   0.119   3.952   2.878
 3305TIP3   OH2 9920   2.340   0.654   5.197
 3305TIP3    H1 9921   2.346   0.568   5.239
 3305TIP3    H2 9922   2.376   0.641   5.109
 3306TIP3   OH2 9923   1.843   2.795   4.534
 3306TIP3    H1 9924   1.928   2.762   4.564
 3306TIP3    H2 9925   1.806   2.840   4.610
 3307TIP3   OH2 9926   5.710   3.357   1.759
 3307TIP3    H1 9927   5.630   3.409   1.769
 3307TIP3    H2 9928   5.683   3.268   1.782
 3308TIP3   OH2 9929   1.534   0.471   5.168
 3308TIP3    H1 9930   1.448   0.446   5.135
 3308TIP3    H2 9931   1.516   0.529   5.242
 3309TIP3   OH2 9932   5.988   3.508   1.358
 3309TIP3    H1 9933   6.064   3.480   1.407
 3309TIP3    H2 9934   5.924   3.438   1.369
 3310TIP3   OH2 9935   3.606   3.515   4.956
 3310TIP3    H1 9936   3.557   3.505   5.037
 3310TIP3    H2 9937   3.629   3.425   4.930
 3311TIP3   OH2 9938   0.775   3.578   3.559
 3311TIP3    H1 9939   0.800   3.670   3.560
 3311TIP3    H2 9940   0.851   3.531   3.594
 3312TIP3   OH2 9941   5.266   5.263   0.369
 3312TIP3    H1 9942   5.310   5.210   0.436
 3312TIP3    H2 9943   5.194   5.209   0.339
 3313TIP3   OH2 9944   5.171   2.030   0.816
 3313TIP3    H1 9945   5.267   2.025   0.809
 3313TIP3    H2 9946   5.147   1.951   0.865
 3314TIP3   OH2 9947   5.180   4.197   2.936
 3314TIP3    H1 9948   5.201   4.108   2.905
 3314TIP3    H2 9949   5.251   4.251   2.902
 3315TIP3   OH2 9950   2.241   2.594   0.491
 3315TIP3    H1 9951   2.224   2.591   0.585
 3315TIP3    H2 9952   2.213   2.682   0.465
 3316TIP3   OH2 9953   1.659   0.895   2.160
 3316TIP3    H1 9954   1.645   0.988   2.178
 3316TIP3    H2 9955   1.642   0.886   2.066
 3317TIP3   OH2 9956   4.550   4.283   4.920
 3317TIP3    H1 9957   4.476   4.344   4.928
 3317TIP3    H2 9958   4.626   4.333   4.952
 3318TIP3   OH2 9959   0.513   4.860   5.073
 3318TIP3    H1 9960   0.494   4.913   4.997
 3318TIP3    H2 9961   0.584   4.906   5.118
 3319TIP3   OH2 9962   5.787   5.777   0.870
 3319TIP3    H1 9963   5.824   5.689   0.875
 3319TIP3    H2 9964   5.857   5.831   0.834
 3320TIP3   OH2 9965   2.213   5.832   3.492
 3320TIP3    H1 9966   2.176   5.870   3.572
 3320TIP3    H2 9967   2.269   5.761   3.522
 3321TIP3   OH2 9968   5.232   3.198   4.328
 3321TIP3    H1 9969   5.209   3.262   4.396
 3321TIP3    H2 9970   5.159   3.136   4.328
 3322TIP3   OH2 9971   4.248   0.413   1.118
 3322TIP3    H1 9972   4.181   0.368   1.170
 3322TIP3    H2 9973   4.200   0.478   1.067
 3323TIP3   OH2 9974   0.421   4.728   0.460
 3323TIP3    H1 9975   0.482   4.701   0.391
 3323TIP3    H2 9976   0.369   4.649   0.477
 3324TIP3   OH2 9977   4.000   5.892   3.024
 3324TIP3    H1 9978   3.971   5.872   2.935
 3324TIP3    H2 9979   3.930   5.944   3.062
 3325TIP3   OH2 9980   4.940   0.073   4.451
 3325TIP3    H1 9981   4.949   0.168   4.459
 3325TIP3    H2 9982   5.013   0.046   4.395
 3326TIP3   OH2 9983   4.213   3.267   2.165
 3326TIP3    H1 9984   4.294   3.221   2.187
 3326TIP3    H2 9985   4.145   3.201   2.178
 3327TIP3   OH2 9986   4.524   1.211   2.459
 3327TIP3    H1 9987   4.453   1.179   2.514
 3327TIP3    H2 9988   4.481   1.275   2.401
 3328TIP3   OH2 9989   5.043   2.914   2.969
 3328TIP3    H1 9990   5.052   3.001   3.008
 3328TIP3    H2 9991   5.133   2.881   2.962
 3329TIP3   OH2 9992   1.878   4.394   2.134
 3329TIP3    H1 9993   1.900   4.449   2.058
 3329TIP3    H2 9994   1.855   4.456   2.203
 3330TIP3   OH2 9995   4.667   2.787   0.774
 3330TIP3    H1 9996   4.711   2.818   0.853
 3330TIP3    H2 9997   4.610   2.716   0.805
 3331TIP3   OH2 9998   1.804   5.397   1.391
 3331TIP3    H1 9999   1.739   5.428   1.329
 3331TIP3    H210000   1.833   5.313   1.357
 3332TIP3   OH210001   2.186   1.273   0.419
 3332TIP3    H110002   2.232   1.204   0.370
 3332TIP3    H210003   2.234   1.279   0.502
 3333TIP3   OH210004   0.213   5.015   0.205
 3333TIP3    H110005   0.228   4.925   0.233
 3333TIP3    H210006   0.299   5.048   0.180
 3334TIP3   OH210007   5.088   4.174   2.344
 3334TIP3    H110008   5.131   4.127   2.273
 3334TIP3    H210009   5.060   4.106   2.405
 3335TIP3   OH210010   5.182   1.261   1.814
 3335TIP3    H110011   5.244   1.271   1.741
 3335TIP3    H210012   5.116   1.328   1.800
 3336TIP3   OH210013   3.090   4.011   1.763
 3336TIP3    H110014   3.103   4.102   1.790
 3336TIP3    H210015   3.080   4.016   1.668
 3337TIP3   OH210016   4.586   3.922   4.464
 3337TIP3    H110017   4.673   3.884   4.478
 3337TIP3    H210018   4.566   3.967   4.546
 3338TIP3   OH210019   2.506   2.457   0.578
 3338TIP3    H110020   2.514   2.479   0.671
 3338TIP3    H210021   2.544   2.370   0.570
 3339TIP3   OH210022   2.579   1.020   2.535
 3339TIP3    H110023   2.650   1.066   2.580
 3339TIP3    H210024   2.511   1.087   2.524
 3340TIP3   OH210025   4.933   4.928   5.088
 3340TIP3    H110026   4.863   4.867   5.110
 3340TIP3    H210027   4.917   4.951   4.996
 3341TIP3   OH210028   0.188   1.996   2.084
 3341TIP3    H110029   0.118   1.934   2.108
 3341TIP3    H210030   0.153   2.082   2.106
 3342TIP3   OH210031   5.811   0.170   0.229
 3342TIP3    H110032   5.843   0.259   0.245
 3342TIP3    H210033   5.724   0.182   0.193
 3343TIP3   OH210034   1.728   0.398   4.620
 3343TIP3    H110035   1.808   0.346   4.611
 3343TIP3    H210036   1.738   0.469   4.556
 3344TIP3   OH210037   5.710   2.994   0.742
 3344TIP3    H110038   5.616   2.988   0.725
 3344TIP3    H210039   5.751   2.962   0.661
 3345TIP3   OH210040   2.374  -0.027   5.145
 3345TIP3    H110041   2.322  -0.085   5.201
 3345TIP3    H210042   2.311   0.037   5.112
 3346TIP3   OH210043   4.447   2.723   3.264
 3346TIP3    H110044   4.383   2.652   3.265
 3346TIP3    H210045   4.402   2.794   3.218
 3347TIP3   OH210046   0.891   2.321   3.688
 3347TIP3    H110047   0.819   2.371   3.650
 3347TIP3    H210048   0.950   2.303   3.615
 3348TIP3   OH210049   5.908   5.704   1.856
 3348TIP3    H110050   5.993   5.660   1.857
 3348TIP3    H210051   5.855   5.651   1.797
 3349TIP3   OH210052   4.963   3.800   5.064
 3349TIP3    H110053   4.987   3.748   5.140
 3349TIP3    H210054   4.874   3.770   5.041
 3350TIP3   OH210055   4.481   5.238   4.416
 3350TIP3    H110056   4.547   5.175   4.387
 3350TIP3    H210057   4.520   5.323   4.400
 3351TIP3   OH210058   4.735   3.483   2.611
 3351TIP3    H110059   4.753   3.534   2.532
 3351TIP3    H210060   4.685   3.543   2.667
 3352TIP3   OH210061   4.771   1.312   2.509
 3352TIP3    H110062   4.681   1.282   2.499
 3352TIP3    H210063   4.825   1.238   2.480
 3353TIP3   OH210064   1.184   4.408   4.381
 3353TIP3    H110065   1.100   4.420   4.426
 3353TIP3    H210066   1.160   4.365   4.298
 3354TIP3   OH210067   3.624   2.286   4.762
 3354TIP3    H110068   3.588   2.356   4.707
 3354TIP3    H210069   3.719   2.290   4.746
 3355TIP3   OH210070   5.507   5.764   1.956
 3355TIP3    H110071   5.512   5.839   1.896
 3355TIP3    H210072   5.437   5.709   1.919
 3356TIP3   OH210073   1.096   4.241   0.807
 3356TIP3    H110074   1.016   4.194   0.829
 3356TIP3    H210075   1.158   4.173   0.782
 3357TIP3   OH210076   2.674   1.842   4.867
 3357TIP3    H110077   2.762   1.813   4.888
 3357TIP3    H210078   2.617   1.776   4.908
 3358TIP3   OH210079   3.433   1.835   4.725
 3358TIP3    H110080   3.514   1.885   4.721
 3358TIP3    H210081   3.437   1.777   4.650
 3359TIP3   OH210082   1.987   4.339   2.534
 3359TIP3    H110083   1.892   4.340   2.550
 3359TIP3    H210084   1.995   4.308   2.444
 3360TIP3   OH210085   3.836   3.017   0.292
 3360TIP3    H110086   3.772   2.995   0.224
 3360TIP3    H210087   3.857   2.933   0.333
 3361TIP3   OH210088   2.249   5.339   0.787
 3361TIP3    H110089   2.239   5.250   0.822
 3361TIP3    H210090   2.159   5.371   0.776
 3362TIP3   OH210091   5.344   3.799   3.457
 3362TIP3    H110092   5.378   3.884   3.429
 3362TIP3    H210093   5.265   3.821   3.507
 3363TIP3   OH210094   0.088   5.331   0.244
 3363TIP3    H110095   0.123   5.242   0.239
 3363TIP3    H210096   0.038   5.332   0.326
 3364TIP3   OH210097   2.495   2.349   4.065
 3364TIP3    H110098   2.514   2.281   4.000
 3364TIP3    H210099   2.493   2.430   4.015
 3365TIP3   OH210100   5.700   0.174   1.713
 3365TIP3    H110101   5.698   0.085   1.749
 3365TIP3    H210102   5.645   0.169   1.635
 3366TIP3   OH210103   2.122   5.435   4.539
 3366TIP3    H110104   2.189   5.496   4.570
 3366TIP3    H210105   2.140   5.354   4.586
 3367TIP3   OH210106   4.527   2.861   2.369
 3367TIP3    H110107   4.529   2.885   2.462
 3367TIP3    H210108   4.574   2.778   2.365
 3368TIP3   OH210109   1.862   1.711   2.152
 3368TIP3    H110110   1.940   1.762   2.128
 3368TIP3    H210111   1.875   1.690   2.244
 3369TIP3   OH210112   5.204   3.391   4.044
 3369TIP3    H110113   5.116   3.392   4.083
 3369TIP3    H210114   5.203   3.317   3.984
 3370TIP3   OH210115   4.262   4.748   2.229
 3370TIP3    H110116   4.290   4.831   2.191
 3370TIP3    H210117   4.320   4.736   2.305
 3371TIP3   OH210118   0.135   3.518   4.588
 3371TIP3    H110119   0.152   3.435   4.634
 3371TIP3    H210120   0.204   3.524   4.522
 3372TIP3   OH210121   1.701   3.238   3.178
 3372TIP3    H110122   1.683   3.302   3.109
 3372TIP3    H210123   1.630   3.250   3.241
 3373TIP3   OH210124   5.936   1.766   3.110
 3373TIP3    H110125   5.866   1.752   3.046
 3373TIP3    H210126   5.920   1.700   3.177
 3374TIP3   OH210127   3.037   3.277   2.349
 3374TIP3    H110128   3.120   3.283   2.396
 3374TIP3    H210129   2.973   3.255   2.416
 3375TIP3   OH210130   0.156   3.781   3.248
 3375TIP3    H110131   0.147   3.686   3.235
 3375TIP3    H210132   0.072   3.817   3.217
 3376TIP3   OH210133   1.435   0.254   2.182
 3376TIP3    H110134   1.514   0.211   2.149
 3376TIP3    H210135   1.382   0.270   2.103
 3377TIP3   OH210136   3.433   2.899   2.983
 3377TIP3    H110137   3.368   2.909   2.914
 3377TIP3    H210138   3.483   2.822   2.959
 3378TIP3   OH210139   4.911   2.721   0.716
 3378TIP3    H110140   4.825   2.762   0.708
 3378TIP3    H210141   4.895   2.640   0.765
 3379TIP3   OH210142   0.547   1.021   3.904
 3379TIP3    H110143   0.594   1.102   3.889
 3379TIP3    H210144   0.459   1.037   3.869
 3380TIP3   OH210145   2.246   1.218   3.810
 3380TIP3    H110146   2.265   1.144   3.867
 3380TIP3    H210147   2.279   1.294   3.857
 3381TIP3   OH210148   5.192   3.028   2.388
 3381TIP3    H110149   5.218   3.023   2.296
 3381TIP3    H210150   5.099   3.051   2.385
 3382TIP3   OH210151   4.454   1.635   4.946
 3382TIP3    H110152   4.472   1.701   4.880
 3382TIP3    H210153   4.538   1.621   4.990
 3383TIP3   OH210154   1.336   1.587   0.883
 3383TIP3    H110155   1.243   1.589   0.859
 3383TIP3    H210156   1.362   1.495   0.871
 3384TIP3   OH210157   0.287   1.511   3.815
 3384TIP3    H110158   0.347   1.540   3.747
 3384TIP3    H210159   0.204   1.553   3.794
 3385TIP3   OH210160   2.588   5.593   0.140
 3385TIP3    H110161   2.520   5.620   0.202
 3385TIP3    H210162   2.541   5.543   0.073
 3386TIP3   OH210163   2.510   0.572   0.325
 3386TIP3    H110164   2.562   0.594   0.249
 3386TIP3    H210165   2.504   0.476   0.323
 3387TIP3   OH210166   1.362   1.111   1.934
 3387TIP3    H110167   1.351   1.205   1.916
 3387TIP3    H210168   1.312   1.068   1.866
 3388TIP3   OH210169   5.845   3.050   1.219
 3388TIP3    H110170   5.799   3.133   1.228
 3388TIP3    H210171   5.871   3.046   1.127
 3389TIP3   OH210172   2.696   5.843   4.933
 3389TIP3    H110173   2.607   5.815   4.914
 3389TIP3    H210174   2.706   5.926   4.886
 3390TIP3   OH210175   1.472   4.483   1.270
 3390TIP3    H110176   1.431   4.510   1.188
 3390TIP3    H210177   1.399   4.451   1.324
 3391TIP3   OH210178   6.032   0.447   2.215
 3391TIP3    H110179   6.101   0.382   2.198
 3391TIP3    H210180   6.080   0.524   2.246
 3392TIP3   OH210181   0.736   1.298   0.224
 3392TIP3    H110182   0.763   1.280   0.314
 3392TIP3    H210183   0.726   1.212   0.184
 3393TIP3   OH210184   0.958   0.666   0.213
 3393TIP3    H110185   1.006   0.748   0.196
 3393TIP3    H210186   0.981   0.642   0.302
 3394TIP3   OH210187   5.504   2.504   3.643
 3394TIP3    H110188   5.469   2.432   3.695
 3394TIP3    H210189   5.556   2.555   3.705
 3395TIP3   OH210190   5.322   1.554   5.076
 3395TIP3    H110191   5.331   1.505   4.995
 3395TIP3    H210192   5.393   1.619   5.074
 3396TIP3   OH210193   0.768   4.058   2.350
 3396TIP3    H110194   0.755   4.149   2.377
 3396TIP3    H210195   0.847   4.059   2.297
 3397TIP3   OH210196   5.365   0.883   5.037
 3397TIP3    H110197   5.365   0.799   5.083
 3397TIP3    H210198   5.326   0.945   5.098
 3398TIP3   OH210199   1.909   1.813   3.771
 3398TIP3    H110200   1.980   1.838   3.829
 3398TIP3    H210201   1.924   1.720   3.753
 3399TIP3   OH210202   1.080   1.359   2.519
 3399TIP3    H110203   1.110   1.291   2.460
 3399TIP3    H210204   0.985   1.359   2.509
 3400TIP3   OH210205   0.252   5.920   0.686
 3400TIP3    H110206   0.268   5.990   0.622
 3400TIP3    H210207   0.337   5.877   0.697
 3401TIP3   OH210208   2.441   3.325   4.473
 3401TIP3    H110209   2.505   3.395   4.488
 3401TIP3    H210210   2.481   3.248   4.513
 3402TIP3   OH210211   1.878   1.397   2.494
 3402TIP3    H110212   1.924   1.369   2.415
 3402TIP3    H210213   1.794   1.351   2.490
 3403TIP3   OH210214   5.758   3.441   4.850
 3403TIP3    H110215   5.711   3.444   4.933
 3403TIP3    H210216   5.756   3.531   4.818
 3404TIP3   OH210217   3.578   4.749   3.851
 3404TIP3    H110218   3.511   4.745   3.783
 3404TIP3    H210219   3.621   4.663   3.848
 3405TIP3   OH210220   2.330   2.595   3.026
 3405TIP3    H110221   2.272   2.519   3.026
 3405TIP3    H210222   2.403   2.569   3.083
 3406TIP3   OH210223   3.071   3.386   5.090
 3406TIP3    H110224   3.022   3.305   5.095
 3406TIP3    H210225   3.163   3.359   5.098
 3407TIP3   OH210226   0.136   0.005   1.813
 3407TIP3    H110227   0.224  -0.021   1.840
 3407TIP3    H210228   0.135   0.100   1.820
 3408TIP3   OH210229   1.166   4.176   0.456
 3408TIP3    H110230   1.118   4.111   0.405
 3408TIP3    H210231   1.227   4.125   0.509
 3409TIP3   OH210232   2.685   1.366   3.989
 3409TIP3    H110233   2.729   1.318   4.060
 3409TIP3    H210234   2.711   1.457   4.002
 3410TIP3   OH210235   2.937   2.301   2.384
 3410TIP3    H110236   2.967   2.379   2.431
 3410TIP3    H210237   2.963   2.228   2.440
 3411TIP3   OH210238   5.476   2.946   0.285
 3411TIP3    H110239   5.556   2.947   0.337
 3411TIP3    H210240   5.504   2.967   0.196
 3412TIP3   OH210241   3.475   3.810   2.306
 3412TIP3    H110242   3.422   3.866   2.250
 3412TIP3    H210243   3.453   3.721   2.280
 3413TIP3   OH210244   4.622   0.433   4.136
 3413TIP3    H110245   4.656   0.478   4.213
 3413TIP3    H210246   4.663   0.346   4.139
 3414TIP3   OH210247   3.884   3.555   1.859
 3414TIP3    H110248   3.944   3.486   1.890
 3414TIP3    H210249   3.827   3.511   1.797
 3415TIP3   OH210250   1.474   4.477   0.482
 3415TIP3    H110251   1.470   4.539   0.555
 3415TIP3    H210252   1.474   4.533   0.404
 3416TIP3   OH210253   3.261   5.739   1.525
 3416TIP3    H110254   3.341   5.687   1.532
 3416TIP3    H210255   3.190   5.675   1.530
 3417TIP3   OH210256   3.106   2.715   2.274
 3417TIP3    H110257   3.128   2.776   2.344
 3417TIP3    H210258   3.040   2.760   2.222
 3418TIP3   OH210259   5.742   2.224   2.097
 3418TIP3    H110260   5.698   2.309   2.101
 3418TIP3    H210261   5.686   2.165   2.147
 3419TIP3   OH210262   1.215   3.411   3.531
 3419TIP3    H110263   1.123   3.437   3.539
 3419TIP3    H210264   1.217   3.320   3.562
 3420TIP3   OH210265   0.644   1.791   2.334
 3420TIP3    H110266   0.592   1.845   2.393
 3420TIP3    H210267   0.613   1.814   2.247
 3421TIP3   OH210268   5.018   0.820   5.027
 3421TIP3    H110269   5.004   0.748   5.089
 3421TIP3    H210270   5.075   0.783   4.960
 3422TIP3   OH210271   4.629   2.586   3.821
 3422TIP3    H110272   4.713   2.631   3.813
 3422TIP3    H210273   4.584   2.606   3.738
 3423TIP3   OH210274   3.633   3.996   0.526
 3423TIP3    H110275   3.575   4.024   0.455
 3423TIP3    H210276   3.698   3.941   0.483
 3424TIP3   OH210277   0.495   3.559   3.603
 3424TIP3    H110278   0.588   3.582   3.614
 3424TIP3    H210279   0.485   3.545   3.509
 3425TIP3   OH210280   1.895   4.674   3.784
 3425TIP3    H110281   1.970   4.617   3.768
 3425TIP3    H210282   1.832   4.651   3.716
 3426TIP3   OH210283   5.336   1.855   2.410
 3426TIP3    H110284   5.390   1.903   2.347
 3426TIP3    H210285   5.315   1.773   2.367
 3427TIP3   OH210286   5.452   2.984   0.630
 3427TIP3    H110287   5.418   3.058   0.579
 3427TIP3    H210288   5.402   2.986   0.712
 3428TIP3   OH210289   4.228   2.571   1.869
 3428TIP3    H110290   4.165   2.511   1.909
 3428TIP3    H210291   4.196   2.658   1.893
 3429TIP3   OH210292   4.674   2.938   0.195
 3429TIP3    H110293   4.749   2.927   0.137
 3429TIP3    H210294   4.605   2.971   0.138
 3430TIP3   OH210295   2.111   6.007   3.924
 3430TIP3    H110296   2.055   6.019   3.847
 3430TIP3    H210297   2.055   6.027   3.999
 3431TIP3   OH210298   6.290   0.732   1.048
 3431TIP3    H110299   6.377   0.751   1.085
 3431TIP3    H210300   6.306   0.719   0.955
 3432TIP3   OH210301   3.836   0.141   0.944
 3432TIP3    H110302   3.871   0.224   0.911
 3432TIP3    H210303   3.851   0.145   1.039
 3433TIP3   OH210304   1.384   0.278   4.002
 3433TIP3    H110305   1.426   0.354   3.962
 3433TIP3    H210306   1.312   0.314   4.053
 3434TIP3   OH210307   1.617   4.082   3.291
 3434TIP3    H110308   1.572   4.043   3.365
 3434TIP3    H210309   1.565   4.055   3.215
 3435TIP3   OH210310   2.570   5.546   1.097
 3435TIP3    H110311   2.592   5.453   1.104
 3435TIP3    H210312   2.516   5.552   1.019
 3436TIP3   OH210313   4.328   4.668   0.382
 3436TIP3    H110314   4.377   4.729   0.436
 3436TIP3    H210315   4.368   4.676   0.295
 3437TIP3   OH210316   1.842   0.165   3.874
 3437TIP3    H110317   1.856   0.071   3.862
 3437TIP3    H210318   1.756   0.181   3.834
 3438TIP3   OH210319   2.141   3.230   4.718
 3438TIP3    H110320   2.141   3.313   4.671
 3438TIP3    H210321   2.124   3.254   4.809
 3439TIP3   OH210322   0.461   3.894   0.070
 3439TIP3    H110323   0.375   3.924   0.098
 3439TIP3    H210324   0.521   3.928   0.137
 3440TIP3   OH210325   1.650   6.027   2.770
 3440TIP3    H110326   1.736   6.014   2.810
 3440TIP3    H210327   1.634   5.947   2.720
 3441TIP3   OH210328   0.321   5.977   4.449
 3441TIP3    H110329   0.326   5.960   4.355
 3441TIP3    H210330   0.279   5.899   4.485
 3442TIP3   OH210331   2.688   3.739   3.472
 3442TIP3    H110332   2.721   3.708   3.557
 3442TIP3    H210333   2.659   3.660   3.427
 3443TIP3   OH210334   5.990   4.813   0.514
 3443TIP3    H110335   5.943   4.877   0.460
 3443TIP3    H210336   6.017   4.745   0.452
 3444TIP3   OH210337   0.457   2.635   3.949
 3444TIP3    H110338   0.400   2.578   4.001
 3444TIP3    H210339   0.543   2.626   3.990
 3445TIP3   OH210340   3.290   1.807   5.150
 3445TIP3    H110341   3.293   1.713   5.164
 3445TIP3    H210342   3.202   1.833   5.177
 3446TIP3   OH210343   2.539   3.658   0.141
 3446TIP3    H110344   2.499   3.723   0.084
 3446TIP3    H210345   2.560   3.707   0.221
 3447TIP3   OH210346   3.513   2.452   1.426
 3447TIP3    H110347   3.465   2.482   1.503
 3447TIP3    H210348   3.476   2.367   1.405
 3448TIP3   OH210349   0.735   3.476   5.023
 3448TIP3    H110350   0.660   3.470   5.082
 3448TIP3    H210351   0.754   3.385   4.999
 3449TIP3   OH210352   2.287   2.278   2.352
 3449TIP3    H110353   2.347   2.241   2.417
 3449TIP3    H210354   2.260   2.362   2.388
 3450TIP3   OH210355   2.505   4.534   3.083
 3450TIP3    H110356   2.514   4.553   3.176
 3450TIP3    H210357   2.474   4.443   3.079
 3451TIP3   OH210358   0.972   3.099   4.071
 3451TIP3    H110359   1.017   3.172   4.112
 3451TIP3    H210360   1.015   3.088   3.986
 3452TIP3   OH210361   3.618   1.080   4.293
 3452TIP3    H110362   3.597   0.987   4.295
 3452TIP3    H210363   3.610   1.108   4.385
 3453TIP3   OH210364   1.653   2.316   1.827
 3453TIP3    H110365   1.565   2.323   1.789
 3453TIP3    H210366   1.683   2.406   1.836
 3454TIP3   OH210367   5.941   0.284   1.949
 3454TIP3    H110368   5.992   0.290   2.030
 3454TIP3    H210369   5.851   0.269   1.979
 3455TIP3   OH210370   4.522   5.149   1.975
 3455TIP3    H110371   4.518   5.223   1.914
 3455TIP3    H210372   4.563   5.185   2.054
 3456TIP3   OH210373   4.527   3.945   3.601
 3456TIP3    H110374   4.606   3.938   3.654
 3456TIP3    H210375   4.483   4.024   3.633
 3457TIP3   OH210376   0.136   1.724   4.681
 3457TIP3    H110377   0.171   1.641   4.714
 3457TIP3    H210378   0.153   1.721   4.586
 3458TIP3   OH210379   0.205   5.552   5.084
 3458TIP3    H110380   0.232   5.549   5.175
 3458TIP3    H210381   0.128   5.609   5.083
 3459TIP3   OH210382   4.615   1.538   3.229
 3459TIP3    H110383   4.633   1.545   3.135
 3459TIP3    H210384   4.666   1.462   3.256
 3460TIP3   OH210385   5.961   1.984   3.275
 3460TIP3    H110386   5.883   1.993   3.329
 3460TIP3    H210387   5.939   1.915   3.212
 3461TIP3   OH210388   4.493   3.679   3.665
 3461TIP3    H110389   4.506   3.773   3.651
 3461TIP3    H210390   4.552   3.658   3.738
 3462TIP3   OH210391   5.520   5.050   0.370
 3462TIP3    H110392   5.584   5.012   0.430
 3462TIP3    H210393   5.460   4.978   0.351
 3463TIP3   OH210394   4.454   1.505   3.443
 3463TIP3    H110395   4.445   1.591   3.483
 3463TIP3    H210396   4.515   1.518   3.370
 3464TIP3   OH210397   6.234   1.516   2.695
 3464TIP3    H110398   6.300   1.581   2.717
 3464TIP3    H210399   6.285   1.435   2.681
 3465TIP3   OH210400   2.595   4.358   0.107
 3465TIP3    H110401   2.516   4.395   0.145
 3465TIP3    H210402   2.647   4.330   0.182
 3466TIP3   OH210403   2.725   2.932   1.620
 3466TIP3    H110404   2.658   2.914   1.686
 3466TIP3    H210405   2.680   2.918   1.536
 3467TIP3   OH210406   5.361   5.556   4.721
 3467TIP3    H110407   5.454   5.574   4.703
 3467TIP3    H210408   5.315   5.627   4.676
 3468TIP3   OH210409   3.366   4.701   3.686
 3468TIP3    H110410   3.415   4.691   3.605
 3468TIP3    H210411   3.294   4.760   3.664
 3469TIP3   OH210412   2.300   5.067   4.136
 3469TIP3    H110413   2.281   5.155   4.101
 3469TIP3    H210414   2.307   5.012   4.058
 3470TIP3   OH210415   3.364   1.549   5.056
 3470TIP3    H110416   3.292   1.499   5.018
 3470TIP3    H210417   3.437   1.534   4.996
 3471TIP3   OH210418   3.160   3.572   4.600
 3471TIP3    H110419   3.071   3.569   4.565
 3471TIP3    H210420   3.197   3.487   4.576
 3472TIP3   OH210421   5.980   1.403   4.753
 3472TIP3    H110422   5.983   1.464   4.679
 3472TIP3    H210423   5.964   1.458   4.830
 3473TIP3   OH210424   1.166   4.097   5.146
 3473TIP3    H110425   1.257   4.125   5.146
 3473TIP3    H210426   1.170   4.001   5.146
 3474TIP3   OH210427   5.224   0.703   2.375
 3474TIP3    H110428   5.129   0.698   2.368
 3474TIP3    H210429   5.239   0.748   2.459
 3475TIP3   OH210430   3.379   3.338   4.777
 3475TIP3    H110431   3.447   3.326   4.711
 3475TIP3    H210432   3.372   3.433   4.787
 3476TIP3   OH210433   1.291   0.061   0.148
 3476TIP3    H110434   1.326   0.079   0.060
 3476TIP3    H210435   1.334  -0.021   0.174
 3477TIP3   OH210436   4.594   0.246   1.707
 3477TIP3    H110437   4.603   0.337   1.733
 3477TIP3    H210438   4.681   0.220   1.678
 3478TIP3   OH210439   4.324   4.402   2.306
 3478TIP3    H110440   4.280   4.455   2.372
 3478TIP3    H210441   4.399   4.364   2.353
 3479TIP3   OH210442   6.280   4.485   3.252
 3479TIP3    H110443   6.220   4.438   3.194
 3479TIP3    H210444   6.224   4.522   3.320
 3480TIP3   OH210445   2.965   1.111   1.343
 3480TIP3    H110446   2.981   1.084   1.253
 3480TIP3    H210447   3.017   1.191   1.354
 3481TIP3   OH210448   1.329   2.562   0.770
 3481TIP3    H110449   1.339   2.489   0.708
 3481TIP3    H210450   1.409   2.560   0.822
 3482TIP3   OH210451   1.823   1.180   3.154
 3482TIP3    H110452   1.800   1.267   3.185
 3482TIP3    H210453   1.812   1.184   3.059
 3483TIP3   OH210454   1.598   3.294   0.831
 3483TIP3    H110455   1.606   3.382   0.867
 3483TIP3    H210456   1.594   3.237   0.907
 3484TIP3   OH210457   4.414   4.287   1.743
 3484TIP3    H110458   4.421   4.319   1.653
 3484TIP3    H210459   4.345   4.221   1.741
 3485TIP3   OH210460   3.222   0.431   3.796
 3485TIP3    H110461   3.170   0.501   3.758
 3485TIP3    H210462   3.159   0.381   3.849
 3486TIP3   OH210463   5.334   3.006   4.170
 3486TIP3    H110464   5.292   3.066   4.231
 3486TIP3    H210465   5.426   3.003   4.199
 3487TIP3   OH210466   1.430   3.382   1.722
 3487TIP3    H110467   1.368   3.353   1.656
 3487TIP3    H210468   1.516   3.366   1.682
 3488TIP3   OH210469   3.010   0.458   1.903
 3488TIP3    H110470   3.085   0.457   1.843
 3488TIP3    H210471   3.000   0.550   1.926
 3489TIP3   OH210472   1.619   2.552   4.596
 3489TIP3    H110473   1.573   2.599   4.526
 3489TIP3    H210474   1.636   2.618   4.662
 3490TIP3   OH210475   1.353   2.111   0.340
 3490TIP3    H110476   1.385   2.060   0.414
 3490TIP3    H210477   1.342   2.047   0.270
 3491TIP3   OH210478   1.078   0.993   1.139
 3491TIP3    H110479   1.088   0.905   1.174
 3491TIP3    H210480   0.984   1.004   1.127
 3492TIP3   OH210481   6.156   3.733   0.055
 3492TIP3    H110482   6.102   3.783   0.116
 3492TIP3    H210483   6.094   3.695  -0.007
 3493TIP3   OH210484   1.499   2.249   2.283
 3493TIP3    H110485   1.517   2.329   2.233
 3493TIP3    H210486   1.582   2.202   2.284
 3494TIP3   OH210487   3.364   0.093   4.970
 3494TIP3    H110488   3.317   0.166   4.929
 3494TIP3    H210489   3.328   0.087   5.058
 3495TIP3   OH210490   1.983   2.203   3.086
 3495TIP3    H110491   1.921   2.165   3.024
 3495TIP3    H210492   1.937   2.280   3.121
 3496TIP3   OH210493   4.899   1.958   1.752
 3496TIP3    H110494   4.871   2.046   1.778
 3496TIP3    H210495   4.994   1.960   1.757
 3497TIP3   OH210496   1.340   1.170   3.802
 3497TIP3    H110497   1.414   1.133   3.851
 3497TIP3    H210498   1.319   1.103   3.737
 3498TIP3   OH210499   2.321   2.763   2.031
 3498TIP3    H110500   2.235   2.757   2.074
 3498TIP3    H210501   2.384   2.760   2.103
 3499TIP3   OH210502   5.345   0.080   0.100
 3499TIP3    H110503   5.402   0.012   0.136
 3499TIP3    H210504   5.399   0.125   0.035
 3500TIP3   OH210505   4.180   3.874   1.025
 3500TIP3    H110506   4.273   3.874   1.002
 3500TIP3    H210507   4.155   3.966   1.024
 3501TIP3   OH210508   3.919   4.025   2.287
 3501TIP3    H110509   3.888   3.996   2.202
 3501TIP3    H210510   3.975   4.101   2.269
 3502TIP3   OH210511   5.196   2.334   2.739
 3502TIP3    H110512   5.231   2.353   2.826
 3502TIP3    H210513   5.257   2.377   2.678
 3503TIP3   OH210514   6.182   0.914   4.775
 3503TIP3    H110515   6.167   0.958   4.859
 3503TIP3    H210516   6.164   0.822   4.792
 3504TIP3   OH210517   5.343   0.173   3.756
 3504TIP3    H110518   5.398   0.137   3.826
 3504TIP3    H210519   5.385   0.255   3.732
 3505TIP3   OH210520   4.735   2.060   1.999
 3505TIP3    H110521   4.771   2.145   1.975
 3505TIP3    H210522   4.745   2.055   2.094
 3506TIP3   OH210523   0.742   0.129   0.222
 3506TIP3    H110524   0.719   0.036   0.223
 3506TIP3    H210525   0.830   0.131   0.186
 3507TIP3   OH210526   0.697   1.622   0.511
 3507TIP3    H110527   0.778   1.626   0.461
 3507TIP3    H210528   0.714   1.558   0.580
 3508TIP3   OH210529   5.448   0.066   1.040
 3508TIP3    H110530   5.353   0.064   1.026
 3508TIP3    H210531   5.462   0.020   1.122
 3509TIP3   OH210532   3.701   5.205   1.915
 3509TIP3    H110533   3.778   5.147   1.918
 3509TIP3    H210534   3.634   5.158   1.964
 3510TIP3   OH210535   0.949   1.516   1.048
 3510TIP3    H110536   1.007   1.565   0.989
 3510TIP3    H210537   0.927   1.437   0.999
 3511TIP3   OH210538   0.933   2.153   2.768
 3511TIP3    H110539   0.971   2.219   2.826
 3511TIP3    H210540   0.972   2.070   2.796
 3512TIP3   OH210541   1.848   3.814   4.308
 3512TIP3    H110542   1.793   3.892   4.304
 3512TIP3    H210543   1.818   3.760   4.235
 3513TIP3   OH210544   2.803   0.067   1.243
 3513TIP3    H110545   2.854   0.131   1.293
 3513TIP3    H210546   2.868   0.017   1.194
 3514TIP3   OH210547   2.107   1.355   1.878
 3514TIP3    H110548   2.182   1.409   1.903
 3514TIP3    H210549   2.134   1.266   1.897
 3515TIP3   OH210550   0.593   4.183   1.670
 3515TIP3    H110551   0.520   4.244   1.682
 3515TIP3    H210552   0.665   4.239   1.639
 3516TIP3   OH210553   2.828   0.548   4.421
 3516TIP3    H110554   2.905   0.584   4.377
 3516TIP3    H210555   2.755   0.568   4.363
 3517TIP3   OH210556   3.554   2.187   0.317
 3517TIP3    H110557   3.572   2.279   0.335
 3517TIP3    H210558   3.582   2.141   0.397
 3518TIP3   OH210559   5.741   0.981   3.011
 3518TIP3    H110560   5.721   1.038   2.937
 3518TIP3    H210561   5.705   0.896   2.986
 3519TIP3   OH210562   4.284   3.416   0.703
 3519TIP3    H110563   4.312   3.457   0.622
 3519TIP3    H210564   4.348   3.445   0.768
 3520TIP3   OH210565   3.119   1.625   3.122
 3520TIP3    H110566   3.078   1.669   3.048
 3520TIP3    H210567   3.111   1.688   3.194
 3521TIP3   OH210568   3.082   3.166   1.044
 3521TIP3    H110569   3.141   3.168   0.969
 3521TIP3    H210570   3.063   3.258   1.062
 3522TIP3   OH210571   0.766   5.102   0.694
 3522TIP3    H110572   0.704   5.073   0.628
 3522TIP3    H210573   0.716   5.165   0.747
 3523TIP3   OH210574   2.478  -0.032   4.154
 3523TIP3    H110575   2.406  -0.093   4.173
 3523TIP3    H210576   2.435   0.045   4.116
 3524TIP3   OH210577   5.685   3.689   4.384
 3524TIP3    H110578   5.640   3.647   4.311
 3524TIP3    H210579   5.670   3.783   4.370
 3525TIP3   OH210580   4.226   2.321   3.372
 3525TIP3    H110581   4.201   2.411   3.351
 3525TIP3    H210582   4.286   2.296   3.302
 3526TIP3   OH210583   1.395   4.964   0.653
 3526TIP3    H110584   1.336   5.009   0.714
 3526TIP3    H210585   1.439   5.035   0.606
 3527TIP3   OH210586   0.082   2.408   0.832
 3527TIP3    H110587   0.135   2.470   0.882
 3527TIP3    H210588   0.130   2.326   0.836
 3528TIP3   OH210589   5.494   0.405   0.496
 3528TIP3    H110590   5.476   0.445   0.580
 3528TIP3    H210591   5.522   0.315   0.517
 3529TIP3   OH210592   3.885   0.645   3.584
 3529TIP3    H110593   3.832   0.567   3.568
 3529TIP3    H210594   3.964   0.612   3.627
 3530TIP3   OH210595   5.737   5.250   0.488
 3530TIP3    H110596   5.642   5.261   0.491
 3530TIP3    H210597   5.764   5.304   0.414
 3531TIP3   OH210598   5.778   0.441   2.272
 3531TIP3    H110599   5.762   0.385   2.195
 3531TIP3    H210600   5.872   0.458   2.270
 3532TIP3   OH210601   2.476   3.055   4.512
 3532TIP3    H110602   2.415   3.010   4.454
 3532TIP3    H210603   2.540   2.988   4.536
 3533TIP3   OH210604   5.165   5.813   2.587
 3533TIP3    H110605   5.180   5.848   2.499
 3533TIP3    H210606   5.187   5.720   2.580
 3534TIP3   OH210607   0.709   3.532   2.369
 3534TIP3    H110608   0.690   3.513   2.277
 3534TIP3    H210609   0.750   3.618   2.368
 3535TIP3   OH210610   1.444   2.810   3.105
 3535TIP3    H110611   1.523   2.863   3.102
 3535TIP3    H210612   1.379   2.861   3.057
 3536TIP3   OH210613   0.122   0.471   5.163
 3536TIP3    H110614   0.166   0.387   5.156
 3536TIP3    H210615   0.143   0.502   5.252
 3537TIP3   OH210616   6.017   2.286   3.379
 3537TIP3    H110617   6.092   2.332   3.416
 3537TIP3    H210618   5.941   2.321   3.426
 3538TIP3   OH210619   6.161   2.223   4.927
 3538TIP3    H110620   6.254   2.215   4.905
 3538TIP3    H210621   6.137   2.311   4.899
 3539TIP3   OH210622   4.100   4.222   0.441
 3539TIP3    H110623   4.184   4.181   0.420
 3539TIP3    H210624   4.124   4.305   0.482
 3540TIP3   OH210625   3.163   3.959   0.889
 3540TIP3    H110626   3.188   3.890   0.827
 3540TIP3    H210627   3.219   4.033   0.865
 3541TIP3   OH210628   3.502   4.416   2.441
 3541TIP3    H110629   3.411   4.401   2.417
 3541TIP3    H210630   3.547   4.334   2.420
 3542TIP3   OH210631   4.877   4.927   4.768
 3542TIP3    H110632   4.909   5.017   4.767
 3542TIP3    H210633   4.783   4.935   4.754
 3543TIP3   OH210634   4.413   2.036   1.522
 3543TIP3    H110635   4.436   2.012   1.433
 3543TIP3    H210636   4.467   1.979   1.577
 3544TIP3   OH210637   0.438   3.751   4.985
 3544TIP3    H110638   0.450   3.706   5.068
 3544TIP3    H210639   0.391   3.688   4.930
 3545TIP3   OH210640   5.606   4.845   3.212
 3545TIP3    H110641   5.531   4.789   3.192
 3545TIP3    H210642   5.620   4.834   3.307
 3546TIP3   OH210643   4.318   4.724   4.058
 3546TIP3    H110644   4.273   4.678   4.129
 3546TIP3    H210645   4.312   4.665   3.984
 3547TIP3   OH210646   4.290   2.916   3.700
 3547TIP3    H110647   4.301   2.823   3.721
 3547TIP3    H210648   4.265   2.918   3.608
 3548TIP3   OH210649   3.286   3.025   2.421
 3548TIP3    H110650   3.376   3.008   2.394
 3548TIP3    H210651   3.284   3.119   2.439
 3549TIP3   OH210652   5.645   4.240   2.978
 3549TIP3    H110653   5.634   4.148   2.951
 3549TIP3    H210654   5.740   4.251   2.984
 3550TIP3   OH210655   3.042   3.528   0.628
 3550TIP3    H110656   2.999   3.498   0.709
 3550TIP3    H210657   3.085   3.610   0.653
 3551TIP3   OH210658   4.065   3.926   1.906
 3551TIP3    H110659   4.044   4.019   1.916
 3551TIP3    H210660   4.027   3.902   1.822
 3552TIP3   OH210661   4.017   5.370   4.811
 3552TIP3    H110662   3.972   5.386   4.894
 3552TIP3    H210663   3.958   5.406   4.744
 3553TIP3   OH210664   6.240   1.025   1.113
 3553TIP3    H110665   6.279   0.938   1.107
 3553TIP3    H210666   6.165   1.014   1.172
 3554TIP3   OH210667   2.226   0.841   2.957
 3554TIP3    H110668   2.162   0.805   2.896
 3554TIP3    H210669   2.243   0.930   2.926
 3555TIP3   OH210670   1.728   4.110   1.116
 3555TIP3    H110671   1.798   4.160   1.073
 3555TIP3    H210672   1.762   4.021   1.122
 3556TIP3   OH210673   1.006   1.340   1.941
 3556TIP3    H110674   1.049   1.425   1.933
 3556TIP3    H210675   1.072   1.284   1.980
 3557TIP3   OH210676   6.189   4.342   3.014
 3557TIP3    H110677   6.126   4.414   3.023
 3557TIP3    H210678   6.142   4.276   2.964
 3558TIP3   OH210679   2.233   4.697   3.642
 3558TIP3    H110680   2.198   4.618   3.684
 3558TIP3    H210681   2.262   4.667   3.556
 3559TIP3   OH210682   4.921   2.403   2.688
 3559TIP3    H110683   4.851   2.401   2.753
 3559TIP3    H210684   5.000   2.378   2.736
 3560TIP3   OH210685   4.056   2.821   2.189
 3560TIP3    H110686   4.059   2.891   2.254
 3560TIP3    H210687   4.136   2.771   2.203
 3561TIP3   OH210688   4.740   3.768   3.274
 3561TIP3    H110689   4.782   3.734   3.353
 3561TIP3    H210690   4.656   3.803   3.305
 3562TIP3   OH210691   0.921   1.259   0.946
 3562TIP3    H110692   0.890   1.193   1.008
 3562TIP3    H210693   0.925   1.213   0.862
 3563TIP3   OH210694   1.314   3.149   5.089
 3563TIP3    H110695   1.357   3.120   5.009
 3563TIP3    H210696   1.294   3.241   5.074
 3564TIP3   OH210697   4.847   2.379   1.241
 3564TIP3    H110698   4.772   2.336   1.199
 3564TIP3    H210699   4.924   2.340   1.199
 3565TIP3   OH210700   0.602   2.227   4.636
 3565TIP3    H110701   0.634   2.180   4.559
 3565TIP3    H210702   0.560   2.160   4.690
 3566TIP3   OH210703   0.934   2.695   1.930
 3566TIP3    H110704   0.928   2.602   1.953
 3566TIP3    H210705   0.951   2.740   2.013
 3567TIP3   OH210706   5.448   0.416   0.796
 3567TIP3    H110707   5.443   0.459   0.881
 3567TIP3    H210708   5.515   0.348   0.808
 3568TIP3   OH210709   2.924  -0.018   2.362
 3568TIP3    H110710   2.966   0.051   2.414
 3568TIP3    H210711   2.893   0.028   2.283
 3569TIP3   OH210712   6.016   1.349   0.848
 3569TIP3    H110713   6.085   1.289   0.875
 3569TIP3    H210714   5.967   1.302   0.781
 3570TIP3   OH210715   3.136   0.828   3.392
 3570TIP3    H110716   3.128   0.875   3.475
 3570TIP3    H210717   3.202   0.876   3.343
 3571TIP3   OH210718   1.956   4.280   4.965
 3571TIP3    H110719   1.918   4.294   4.879
 3571TIP3    H210720   1.975   4.368   4.998
 3572TIP3   OH210721   4.169   1.011   3.070
 3572TIP3    H110722   4.261   1.008   3.097
 3572TIP3    H210723   4.137   1.095   3.102
 3573TIP3   OH210724   5.882   3.503   4.464
 3573TIP3    H110725   5.939   3.524   4.390
 3573TIP3    H210726   5.799   3.548   4.443
 3574TIP3   OH210727   4.932   2.148   4.900
 3574TIP3    H110728   4.871   2.190   4.838
 3574TIP3    H210729   5.014   2.196   4.888
 3575TIP3   OH210730   5.193   1.268   5.047
 3575TIP3    H110731   5.123   1.264   5.113
 3575TIP3    H210732   5.203   1.362   5.029
 3576TIP3   OH210733   4.575   5.793   2.758
 3576TIP3    H110734   4.577   5.718   2.817
 3576TIP3    H210735   4.667   5.808   2.735
 3577TIP3   OH210736   5.228   5.410   4.890
 3577TIP3    H110737   5.260   5.321   4.878
 3577TIP3    H210738   5.286   5.465   4.837
 3578TIP3   OH210739   3.373   5.864   4.947
 3578TIP3    H110740   3.413   5.866   4.860
 3578TIP3    H210741   3.439   5.902   5.005
 3579TIP3   OH210742   0.024   3.021   3.855
 3579TIP3    H110743   0.060   2.941   3.816
 3579TIP3    H210744   0.098   3.062   3.899
 3580TIP3   OH210745   1.108   3.275   2.913
 3580TIP3    H110746   1.056   3.342   2.957
 3580TIP3    H210747   1.134   3.314   2.830
 3581TIP3   OH210748   0.427   0.742   2.681
 3581TIP3    H110749   0.458   0.825   2.716
 3581TIP3    H210750   0.495   0.715   2.619
 3582TIP3   OH210751   3.999   3.997   4.198
 3582TIP3    H110752   3.998   3.903   4.180
 3582TIP3    H210753   3.911   4.017   4.229
 3583TIP3   OH210754   2.560   3.216   1.348
 3583TIP3    H110755   2.477   3.264   1.352
 3583TIP3    H210756   2.543   3.135   1.395
 3584TIP3   OH210757   5.856   3.705   1.626
 3584TIP3    H110758   5.763   3.697   1.649
 3584TIP3    H210759   5.887   3.776   1.682
 3585TIP3   OH210760   0.095   2.818   2.038
 3585TIP3    H110761   0.036   2.813   1.963
 3585TIP3    H210762   0.076   2.740   2.089
 3586TIP3   OH210763   0.453   4.825   1.290
 3586TIP3    H110764   0.444   4.764   1.217
 3586TIP3    H210765   0.386   4.892   1.274
 3587TIP3   OH210766   0.463   2.626   1.669
 3587TIP3    H110767   0.533   2.691   1.669
 3587TIP3    H210768   0.468   2.585   1.755
 3588TIP3   OH210769   1.975   4.534   1.910
 3588TIP3    H110770   1.922   4.582   1.847
 3588TIP3    H210771   1.993   4.450   1.868
 3589TIP3   OH210772   4.253   3.244   1.092
 3589TIP3    H110773   4.170   3.277   1.057
 3589TIP3    H210774   4.320   3.293   1.044
 3590TIP3   OH210775   4.715   0.466   2.694
 3590TIP3    H110776   4.765   0.417   2.759
 3590TIP3    H210777   4.638   0.498   2.741
 3591TIP3   OH210778   6.028   2.407   4.774
 3591TIP3    H110779   6.008   2.348   4.702
 3591TIP3    H210780   5.950   2.462   4.782
 3592TIP3   OH210781   0.738   2.929   4.713
 3592TIP3    H110782   0.723   2.900   4.803
 3592TIP3    H210783   0.693   3.013   4.706
 3593TIP3   OH210784   6.298   4.057   2.262
 3593TIP3    H110785   6.204   4.051   2.245
 3593TIP3    H210786   6.330   3.967   2.256
 3594TIP3   OH210787   2.348   3.341   2.549
 3594TIP3    H110788   2.368   3.434   2.544
 3594TIP3    H210789   2.261   3.337   2.589
 3595TIP3   OH210790   4.197   0.060   4.981
 3595TIP3    H110791   4.121   0.101   4.939
 3595TIP3    H210792   4.182  -0.034   4.970
 3596TIP3   OH210793   5.782   3.403   0.591
 3596TIP3    H110794   5.785   3.478   0.532
 3596TIP3    H210795   5.838   3.338   0.551
 3597TIP3   OH210796   5.499   3.401   3.999
 3597TIP3    H110797   5.488   3.429   3.908
 3597TIP3    H210798   5.428   3.339   4.015
 3598TIP3   OH210799   4.679   0.931   1.169
 3598TIP3    H110800   4.714   0.957   1.084
 3598TIP3    H210801   4.682   0.835   1.167
 3599TIP3   OH210802   0.253   3.725   3.750
 3599TIP3    H110803   0.252   3.633   3.722
 3599TIP3    H210804   0.161   3.752   3.747
 3600TIP3   OH210805   6.178   4.024   3.421
 3600TIP3    H110806   6.084   4.026   3.401
 3600TIP3    H210807   6.206   3.936   3.396
 3601TIP3   OH210808   6.059   2.022   1.068
 3601TIP3    H110809   6.121   2.066   1.010
 3601TIP3    H210810   6.048   2.083   1.141
 3602TIP3   OH210811   1.760   0.307   1.335
 3602TIP3    H110812   1.817   0.350   1.272
 3602TIP3    H210813   1.816   0.244   1.380
 3603TIP3   OH210814   1.963   4.557   5.021
 3603TIP3    H110815   2.052   4.539   4.990
 3603TIP3    H210816   1.962   4.651   5.038
 3604TIP3   OH210817   1.683   4.083   1.835
 3604TIP3    H110818   1.701   4.137   1.758
 3604TIP3    H210819   1.602   4.038   1.814
 3605TIP3   OH210820   0.911   4.509   1.403
 3605TIP3    H110821   0.958   4.492   1.485
 3605TIP3    H210822   0.879   4.423   1.376
 3606TIP3   OH210823   3.389   5.602   1.978
 3606TIP3    H110824   3.410   5.693   1.954
 3606TIP3    H210825   3.442   5.548   1.920
 3607TIP3   OH210826   6.176   4.921   2.593
 3607TIP3    H110827   6.254   4.866   2.588
 3607TIP3    H210828   6.208   5.006   2.622
 3608TIP3   OH210829   5.423   0.252   2.073
 3608TIP3    H110830   5.415   0.315   2.145
 3608TIP3    H210831   5.370   0.177   2.101
 3609TIP3   OH210832   6.048   5.938   1.789
 3609TIP3    H110833   6.124   5.981   1.827
 3609TIP3    H210834   5.997   5.908   1.864
 3610TIP3   OH210835   2.480   5.500   1.377
 3610TIP3    H110836   2.445   5.416   1.348
 3610TIP3    H210837   2.419   5.530   1.445
 3611TIP3   OH210838   1.429   2.829   1.098
 3611TIP3    H110839   1.456   2.774   1.171
 3611TIP3    H210840   1.432   2.772   1.021
 3612TIP3   OH210841   2.980   4.818   4.805
 3612TIP3    H110842   3.031   4.742   4.834
 3612TIP3    H210843   3.043   4.890   4.804
 3613TIP3   OH210844   5.003   3.425   1.278
 3613TIP3    H110845   5.004   3.344   1.228
 3613TIP3    H210846   4.941   3.481   1.232
 3614TIP3   OH210847   4.043   0.188   3.716
 3614TIP3    H110848   4.029   0.095   3.698
 3614TIP3    H210849   3.955   0.225   3.721
 3615TIP3   OH210850   3.339   2.087   5.132
 3615TIP3    H110851   3.331   1.991   5.135
 3615TIP3    H210852   3.252   2.117   5.107
 3616TIP3   OH210853   1.926   5.030   4.080
 3616TIP3    H110854   1.841   4.994   4.106
 3616TIP3    H210855   1.927   5.022   3.985
 3617TIP3   OH210856   0.532  -0.034   2.340
 3617TIP3    H110857   0.461   0.023   2.308
 3617TIP3    H210858   0.592   0.026   2.385
 3618TIP3   OH210859   5.570   5.968   0.828
 3618TIP3    H110860   5.619   5.886   0.827
 3618TIP3    H210861   5.586   6.005   0.915
 3619TIP3   OH210862   1.493   5.178   2.082
 3619TIP3    H110863   1.568   5.229   2.112
 3619TIP3    H210864   1.417   5.233   2.102
 3620TIP3   OH210865   5.260   1.819   3.861
 3620TIP3    H110866   5.300   1.860   3.785
 3620TIP3    H210867   5.166   1.835   3.851
 3621TIP3   OH210868   0.914   5.532   0.595
 3621TIP3    H110869   0.831   5.511   0.639
 3621TIP3    H210870   0.930   5.457   0.538
 3622TIP3   OH210871   2.073   4.299   1.761
 3622TIP3    H110872   2.087   4.336   1.673
 3622TIP3    H210873   2.061   4.206   1.746
 3623TIP3   OH210874   4.108   5.515   4.006
 3623TIP3    H110875   4.175   5.575   4.039
 3623TIP3    H210876   4.146   5.428   4.020
 3624TIP3   OH210877   2.124   5.935   0.717
 3624TIP3    H110878   2.067   5.997   0.761
 3624TIP3    H210879   2.064   5.877   0.670
 3625TIP3   OH210880   0.289   5.739   1.532
 3625TIP3    H110881   0.338   5.794   1.471
 3625TIP3    H210882   0.247   5.801   1.592
 3626TIP3   OH210883   4.652   1.153   0.594
 3626TIP3    H110884   4.653   1.244   0.625
 3626TIP3    H210885   4.697   1.156   0.510
 3627TIP3   OH210886   2.665   0.859   3.620
 3627TIP3    H110887   2.619   0.798   3.563
 3627TIP3    H210888   2.757   0.850   3.596
 3628TIP3   OH210889   5.992   3.441   1.760
 3628TIP3    H110890   5.908   3.396   1.765
 3628TIP3    H210891   6.014   3.438   1.667
 3629TIP3   OH210892   2.725   3.180   4.701
 3629TIP3    H110893   2.743   3.224   4.618
 3629TIP3    H210894   2.680   3.099   4.677
 3630TIP3   OH210895   1.812   0.023   3.025
 3630TIP3    H110896   1.760   0.098   2.996
 3630TIP3    H210897   1.814   0.030   3.120
 3631TIP3   OH210898   1.326   2.605   2.632
 3631TIP3    H110899   1.290   2.540   2.693
 3631TIP3    H210900   1.307   2.570   2.545
 3632TIP3   OH210901   3.110   4.828   3.951
 3632TIP3    H110902   3.140   4.791   4.034
 3632TIP3    H210903   3.188   4.867   3.912
 3633TIP3   OH210904   6.111   0.319   0.259
 3633TIP3    H110905   6.204   0.297   0.268
 3633TIP3    H210906   6.077   0.312   0.348
 3634TIP3   OH210907   3.371   5.822   0.660
 3634TIP3    H110908   3.415   5.818   0.575
 3634TIP3    H210909   3.439   5.848   0.721
 3635TIP3   OH210910   6.221   0.255   2.156
 3635TIP3    H110911   6.253   0.168   2.135
 3635TIP3    H210912   6.290   0.293   2.211
 3636TIP3   OH210913   3.868   2.818   2.004
 3636TIP3    H110914   3.933   2.815   2.074
 3636TIP3    H210915   3.857   2.727   1.977
 3637TIP3   OH210916   3.631   2.975   0.139
 3637TIP3    H110917   3.542   3.009   0.137
 3637TIP3    H210918   3.677   3.022   0.069
 3638TIP3   OH210919   1.242   5.301   2.109
 3638TIP3    H110920   1.228   5.328   2.018
 3638TIP3    H210921   1.250   5.383   2.158
 3639TIP3   OH210922   4.327   0.240   2.812
 3639TIP3    H110923   4.333   0.263   2.719
 3639TIP3    H210924   4.411   0.269   2.849
 3640TIP3   OH210925   0.030   0.234   3.584
 3640TIP3    H110926   0.084   0.206   3.658
 3640TIP3    H210927   0.086   0.294   3.535
 3641TIP3   OH210928   1.545   2.163   1.436
 3641TIP3    H110929   1.496   2.085   1.464
 3641TIP3    H210930   1.630   2.155   1.479
 3642TIP3   OH210931   5.878   0.887   4.839
 3642TIP3    H110932   5.858   0.872   4.931
 3642TIP3    H210933   5.822   0.961   4.814
 3643TIP3   OH210934   3.736   3.656   2.310
 3643TIP3    H110935   3.760   3.669   2.218
 3643TIP3    H210936   3.660   3.714   2.323
 3644TIP3   OH210937   2.237   4.502   4.023
 3644TIP3    H110938   2.163   4.525   4.080
 3644TIP3    H210939   2.286   4.438   4.074
 3645TIP3   OH210940   1.569   3.400   0.019
 3645TIP3    H110941   1.557   3.467   0.086
 3645TIP3    H210942   1.502   3.334   0.037
 3646TIP3   OH210943   6.226   0.298   2.724
 3646TIP3    H110944   6.138   0.308   2.688
 3646TIP3    H210945   6.232   0.365   2.792
 3647TIP3   OH210946   0.662   2.583   3.290
 3647TIP3    H110947   0.621   2.625   3.366
 3647TIP3    H210948   0.590   2.567   3.229
 3648TIP3   OH210949   2.740   3.714   2.825
 3648TIP3    H110950   2.671   3.652   2.848
 3648TIP3    H210951   2.694   3.784   2.778
 3649TIP3   OH210952   2.745   2.379   4.576
 3649TIP3    H110953   2.684   2.312   4.605
 3649TIP3    H210954   2.696   2.460   4.579
 3650TIP3   OH210955   4.688   3.814   0.651
 3650TIP3    H110956   4.748   3.888   0.638
 3650TIP3    H210957   4.740   3.737   0.629
 3651TIP3   OH210958   2.277   3.983   4.365
 3651TIP3    H110959   2.291   4.068   4.407
 3651TIP3    H210960   2.343   3.981   4.294
 3652TIP3   OH210961   1.336   2.497   2.379
 3652TIP3    H110962   1.403   2.434   2.405
 3652TIP3    H210963   1.278   2.449   2.320
 3653TIP3   OH210964   1.789   0.202   0.412
 3653TIP3    H110965   1.730   0.166   0.346
 3653TIP3    H210966   1.873   0.160   0.395
 3654TIP3   OH210967   2.739   3.119   4.149
 3654TIP3    H110968   2.811   3.136   4.209
 3654TIP3    H210969   2.673   3.185   4.171
 3655TIP3   OH210970   2.585   5.041   2.001
 3655TIP3    H110971   2.654   5.100   2.031
 3655TIP3    H210972   2.504   5.083   2.028
 3656TIP3   OH210973   0.459   1.032   0.852
 3656TIP3    H110974   0.451   1.047   0.946
 3656TIP3    H210975   0.501   0.947   0.844
 3657TIP3   OH210976   2.913   3.099   2.721
 3657TIP3    H110977   2.923   3.020   2.774
 3657TIP3    H210978   2.921   3.171   2.784
 3658TIP3   OH210979   1.991   2.736   4.798
 3658TIP3    H110980   2.032   2.823   4.801
 3658TIP3    H210981   2.059   2.679   4.762
 3659TIP3   OH210982   4.446   5.950   1.004
 3659TIP3    H110983   4.448   5.983   1.094
 3659TIP3    H210984   4.539   5.937   0.981
 3660TIP3   OH210985   5.950   2.273   0.021
 3660TIP3    H110986   5.879   2.250   0.081
 3660TIP3    H210987   5.955   2.368   0.025
 3661TIP3   OH210988   4.416   2.885   4.647
 3661TIP3    H110989   4.490   2.837   4.684
 3661TIP3    H210990   4.456   2.941   4.580
 3662TIP3   OH210991   0.308   1.468   4.525
 3662TIP3    H110992   0.245   1.412   4.570
 3662TIP3    H210993   0.352   1.410   4.463
 3663TIP3   OH210994   5.100   0.555   3.799
 3663TIP3    H110995   5.007   0.535   3.784
 3663TIP3    H210996   5.143   0.533   3.717
 3664TIP3   OH210997   2.763   2.574   2.248
 3664TIP3    H110998   2.849   2.573   2.291
 3664TIP3    H210999   2.762   2.494   2.195
 3665TIP3   OH211000   3.513   2.794   2.015
 3665TIP3    H111001   3.438   2.781   1.957
 3665TIP3    H211002   3.578   2.839   1.960
 3666TIP3   OH211003   4.699   0.539   1.137
 3666TIP3    H111004   4.663   0.564   1.052
 3666TIP3    H211005   4.622   0.530   1.194
 3667TIP3   OH211006   3.372   4.217   3.718
 3667TIP3    H111007   3.296   4.212   3.660
 3667TIP3    H211008   3.357   4.296   3.770
 3668TIP3   OH211009   5.950   0.709   1.360
 3668TIP3    H111010   5.917   0.798   1.371
 3668TIP3    H211011   5.994   0.690   1.443
 3669TIP3   OH211012   3.060   2.486   0.455
 3669TIP3    H111013   3.041   2.531   0.373
 3669TIP3    H211014   3.085   2.398   0.430
 3670TIP3   OH211015   4.999   4.605   2.998
 3670TIP3    H111016   4.989   4.699   3.010
 3670TIP3    H211017   4.992   4.569   3.086
 3671TIP3   OH211018   4.687   1.089   3.684
 3671TIP3    H111019   4.632   1.155   3.726
 3671TIP3    H211020   4.767   1.086   3.737
 3672TIP3   OH211021   1.641   3.265   1.282
 3672TIP3    H111022   1.699   3.308   1.344
 3672TIP3    H211023   1.577   3.332   1.259
 3673TIP3   OH211024   1.165   4.756   4.831
 3673TIP3    H111025   1.089   4.812   4.847
 3673TIP3    H211026   1.222   4.809   4.776
 3674TIP3   OH211027   2.645   4.974   2.741
 3674TIP3    H111028   2.719   5.029   2.766
 3674TIP3    H211029   2.646   4.901   2.803
 3675TIP3   OH211030   5.609   3.096   4.400
 3675TIP3    H111031   5.613   3.190   4.383
 3675TIP3    H211032   5.694   3.063   4.373
 3676TIP3   OH211033   6.285   2.426   1.989
 3676TIP3    H111034   6.348   2.438   1.917
 3676TIP3    H211035   6.208   2.389   1.947
 3677TIP3   OH211036   4.899   2.943   4.116
 3677TIP3    H111037   4.819   2.967   4.069
 3677TIP3    H211038   4.970   2.966   4.056
 3678TIP3   OH211039   2.905   3.209   0.797
 3678TIP3    H111040   2.906   3.153   0.874
 3678TIP3    H211041   2.813   3.213   0.771
 3679TIP3   OH211042   4.716   0.718   3.019
 3679TIP3    H111043   4.809   0.711   3.042
 3679TIP3    H211044   4.697   0.811   3.024
 3680TIP3   OH211045   3.184   4.892   3.637
 3680TIP3    H111046   3.091   4.913   3.633
 3680TIP3    H211047   3.228   4.977   3.630
 3681TIP3   OH211048   1.686   4.988   4.831
 3681TIP3    H111049   1.631   4.910   4.843
 3681TIP3    H211050   1.626   5.053   4.794
 3682TIP3   OH211051   0.741   2.928   2.652
 3682TIP3    H111052   0.676   2.895   2.590
 3682TIP3    H211053   0.714   2.893   2.736
 3683TIP3   OH211054   1.413   0.560   2.244
 3683TIP3    H111055   1.337   0.617   2.242
 3683TIP3    H211056   1.461   0.586   2.323
 3684TIP3   OH211057   1.716   0.758   1.566
 3684TIP3    H111058   1.725   0.666   1.539
 3684TIP3    H211059   1.805   0.794   1.559
 3685TIP3   OH211060   5.682   3.311   0.112
 3685TIP3    H111061   5.748   3.287   0.048
 3685TIP3    H211062   5.706   3.263   0.191
 3686TIP3   OH211063   4.174   3.362   3.833
 3686TIP3    H111064   4.216   3.448   3.838
 3686TIP3    H211065   4.247   3.300   3.823
 3687TIP3   OH211066   0.772   3.618   3.247
 3687TIP3    H111067   0.813   3.557   3.308
 3687TIP3    H211068   0.791   3.582   3.161
 3688TIP3   OH211069   3.958   0.392   0.928
 3688TIP3    H111070   3.963   0.450   0.852
 3688TIP3    H211071   3.891   0.432   0.984
 3689TIP3   OH211072   6.086   3.357   4.160
 3689TIP3    H111073   6.104   3.386   4.070
 3689TIP3    H211074   6.166   3.379   4.208
 3690TIP3   OH211075   1.164   2.817   2.544
 3690TIP3    H111076   1.124   2.843   2.628
 3690TIP3    H211077   1.238   2.763   2.569
 3691TIP3   OH211078   3.966   3.965   2.558
 3691TIP3    H111079   3.949   4.012   2.476
 3691TIP3    H211080   4.060   3.976   2.573
 3692TIP3   OH211081   5.928   2.819   1.824
 3692TIP3    H111082   5.999   2.882   1.814
 3692TIP3    H211083   5.943   2.779   1.910
 3693TIP3   OH211084   4.086   1.704   0.916
 3693TIP3    H111085   4.050   1.762   0.982
 3693TIP3    H211086   4.057   1.742   0.832
 3694TIP3   OH211087   1.384   0.883   0.566
 3694TIP3    H111088   1.388   0.793   0.597
 3694TIP3    H211089   1.311   0.922   0.614
 3695TIP3   OH211090   1.316   0.785   5.034
 3695TIP3    H111091   1.323   0.857   5.097
 3695TIP3    H211092   1.225   0.788   5.004
 3696TIP3   OH211093   4.082   1.369   4.184
 3696TIP3    H111094   4.038   1.454   4.193
 3696TIP3    H211095   4.051   1.335   4.100
 3697TIP3   OH211096   2.725   3.899   2.252
 3697TIP3    H111097   2.739   3.985   2.292
 3697TIP3    H211098   2.639   3.905   2.211
 3698TIP3   OH211099   2.908   4.433   0.984
 3698TIP3    H111100   2.827   4.382   0.977
 3698TIP3    H211101   2.885   4.519   0.947
 3699TIP3   OH211102   3.776   1.786   2.945
 3699TIP3    H111103   3.867   1.771   2.919
 3699TIP3    H211104   3.724   1.754   2.871
 3700TIP3   OH211105   4.621   5.098   5.196
 3700TIP3    H111106   4.595   5.155   5.124
 3700TIP3    H211107   4.712   5.124   5.214
 3701TIP3   OH211108   4.186   0.711   4.759
 3701TIP3    H111109   4.226   0.743   4.679
 3701TIP3    H211110   4.251   0.651   4.796
 3702TIP3   OH211111   0.719   2.083   2.565
 3702TIP3    H111112   0.774   2.128   2.629
 3702TIP3    H211113   0.750   2.113   2.480
 3703TIP3   OH211114   5.846   3.484   4.179
 3703TIP3    H111115   5.930   3.442   4.162
 3703TIP3    H211116   5.822   3.525   4.096
 3704TIP3   OH211117   1.554   5.158   3.952
 3704TIP3    H111118   1.482   5.155   3.888
 3704TIP3    H211119   1.550   5.246   3.988
 3705TIP3   OH211120   2.412   1.784   3.407
 3705TIP3    H111121   2.333   1.836   3.393
 3705TIP3    H211122   2.386   1.715   3.467
 3706TIP3   OH211123   0.001   2.985   2.524
 3706TIP3    H111124   0.008   3.002   2.618
 3706TIP3    H211125   0.009   2.890   2.516
 3707TIP3   OH211126   4.467   5.112   4.100
 3707TIP3    H111127   4.470   5.040   4.163
 3707TIP3    H211128   4.540   5.168   4.124
 3708TIP3   OH211129   2.151   0.374   0.138
 3708TIP3    H111130   2.230   0.425   0.123
 3708TIP3    H211131   2.182   0.287   0.162
 3709TIP3   OH211132   3.848   3.541   4.432
 3709TIP3    H111133   3.889   3.470   4.384
 3709TIP3    H211134   3.813   3.500   4.511
 3710TIP3   OH211135   3.549   5.509   3.254
 3710TIP3    H111136   3.477   5.474   3.203
 3710TIP3    H211137   3.596   5.432   3.286
 3711TIP3   OH211138   3.369   0.933   1.734
 3711TIP3    H111139   3.341   0.878   1.808
 3711TIP3    H211140   3.464   0.940   1.745
 3712TIP3   OH211141   2.328   4.337   3.028
 3712TIP3    H111142   2.296   4.324   2.939
 3712TIP3    H211143   2.329   4.250   3.066
 3713TIP3   OH211144   3.672   5.503   0.685
 3713TIP3    H111145   3.644   5.589   0.716
 3713TIP3    H211146   3.614   5.483   0.612
 3714TIP3   OH211147   3.157   5.019   4.825
 3714TIP3    H111148   3.234   5.020   4.768
 3714TIP3    H211149   3.174   5.088   4.888
 3715TIP3   OH211150   0.129   3.133   3.473
 3715TIP3    H111151   0.059   3.102   3.531
 3715TIP3    H211152   0.084   3.188   3.409
 3716TIP3   OH211153   4.093   1.269   0.886
 3716TIP3    H111154   4.118   1.347   0.935
 3716TIP3    H211155   4.176   1.224   0.868
 3717TIP3   OH211156   2.341   2.082   0.231
 3717TIP3    H111157   2.337   2.160   0.286
 3717TIP3    H211158   2.405   2.104   0.163
 3718TIP3   OH211159   0.740   2.304   0.663
 3718TIP3    H111160   0.759   2.218   0.624
 3718TIP3    H211161   0.822   2.352   0.655
 3719TIP3   OH211162  -0.030   0.114   0.884
 3719TIP3    H111163   0.054   0.092   0.923
 3719TIP3    H211164  -0.047   0.204   0.913
 3720TIP3   OH211165   2.003   2.395   3.892
 3720TIP3    H111166   1.989   2.342   3.814
 3720TIP3    H211167   1.919   2.391   3.939
 3721TIP3   OH211168   1.383   0.066   3.187
 3721TIP3    H111169   1.445   0.138   3.203
 3721TIP3    H211170   1.382   0.056   3.092
 3722TIP3   OH211171   1.459   1.683   4.229
 3722TIP3    H111172   1.377   1.650   4.265
 3722TIP3    H211173   1.523   1.670   4.299
 3723TIP3   OH211174   4.138   2.337   2.349
 3723TIP3    H111175   4.131   2.298   2.437
 3723TIP3    H211176   4.230   2.326   2.326
 3724TIP3   OH211177   1.960   4.563   0.756
 3724TIP3    H111178   1.940   4.495   0.691
 3724TIP3    H211179   1.961   4.644   0.706
 3725TIP3   OH211180   2.676   3.869   4.876
 3725TIP3    H111181   2.722   3.857   4.793
 3725TIP3    H211182   2.711   3.951   4.910
 3726TIP3   OH211183   2.987   3.497   1.382
 3726TIP3    H111184   3.029   3.539   1.457
 3726TIP3    H211185   2.926   3.434   1.421
 3727TIP3   OH211186   2.945   1.093   1.693
 3727TIP3    H111187   2.992   1.174   1.674
 3727TIP3    H211188   3.007   1.023   1.674
 3728TIP3   OH211189   3.828   4.825   0.649
 3728TIP3    H111190   3.912   4.844   0.608
 3728TIP3    H211191   3.823   4.886   0.723
 3729TIP3   OH211192   1.605   0.843   0.996
 3729TIP3    H111193   1.685   0.791   1.006
 3729TIP3    H211194   1.609   0.875   0.906
 3730TIP3   OH211195   2.063   5.032   0.074
 3730TIP3    H111196   2.058   5.122   0.107
 3730TIP3    H211197   2.012   5.034  -0.007
 3731TIP3   OH211198   4.387   5.420   3.842
 3731TIP3    H111199   4.398   5.456   3.930
 3731TIP3    H211200   4.468   5.371   3.826
 3732TIP3   OH211201   4.907   1.084   3.827
 3732TIP3    H111202   4.890   1.040   3.911
 3732TIP3    H211203   4.942   1.015   3.771
 3733TIP3   OH211204   1.472   1.633   2.481
 3733TIP3    H111205   1.404   1.700   2.472
 3733TIP3    H211206   1.427   1.558   2.521
 3734TIP3   OH211207   0.803   0.413   2.616
 3734TIP3    H111208   0.838   0.355   2.548
 3734TIP3    H211209   0.830   0.501   2.589
 3735TIP3   OH211210   6.240   1.267   0.377
 3735TIP3    H111211   6.252   1.269   0.282
 3735TIP3    H211212   6.154   1.228   0.390
 3736TIP3   OH211213   4.328   1.033   2.608
 3736TIP3    H111214   4.328   0.939   2.593
 3736TIP3    H211215   4.243   1.063   2.574
 3737TIP3   OH211216   4.471   0.044   3.837
 3737TIP3    H111217   4.376   0.037   3.851
 3737TIP3    H211218   4.483   0.129   3.795
 3738TIP3   OH211219   0.220   3.479   3.584
 3738TIP3    H111220   0.282   3.502   3.514
 3738TIP3    H211221   0.246   3.391   3.611
 3739TIP3   OH211222   1.616   4.349   3.256
 3739TIP3    H111223   1.655   4.267   3.288
 3739TIP3    H211224   1.596   4.332   3.164
 3740TIP3   OH211225   4.388   0.923   2.129
 3740TIP3    H111226   4.302   0.922   2.086
 3740TIP3    H211227   4.374   0.874   2.210
 3741TIP3   OH211228   5.885   0.626   3.906
 3741TIP3    H111229   5.971   0.668   3.910
 3741TIP3    H211230   5.841   0.668   3.832
 3742TIP3   OH211231   6.251   5.431   2.378
 3742TIP3    H111232   6.321   5.435   2.313
 3742TIP3    H211233   6.207   5.348   2.359
 3743TIP3   OH211234   6.132   3.627   5.146
 3743TIP3    H111235   6.125   3.645   5.240
 3743TIP3    H211236   6.066   3.684   5.106
 3744TIP3   OH211237   4.018   3.171   0.918
 3744TIP3    H111238   4.105   3.143   0.889
 3744TIP3    H211239   3.960   3.099   0.893
 3745TIP3   OH211240   3.523   1.784   3.081
 3745TIP3    H111241   3.463   1.770   3.008
 3745TIP3    H211242   3.609   1.797   3.040
 3746TIP3   OH211243   3.434   0.017   2.090
 3746TIP3    H111244   3.378  -0.028   2.026
 3746TIP3    H211245   3.384   0.095   2.115
 3747TIP3   OH211246   2.911   1.061   1.042
 3747TIP3    H111247   2.868   1.132   0.994
 3747TIP3    H211248   3.004   1.081   1.036
 3748TIP3   OH211249   1.631   2.693   0.341
 3748TIP3    H111250   1.679   2.610   0.341
 3748TIP3    H211251   1.632   2.721   0.432
 3749TIP3   OH211252   0.298   0.956   0.457
 3749TIP3    H111253   0.262   1.032   0.412
 3749TIP3    H211254   0.387   0.983   0.482
 3750TIP3   OH211255   0.238   1.268   1.099
 3750TIP3    H111256   0.148   1.283   1.130
 3750TIP3    H211257   0.268   1.192   1.148
 3751TIP3   OH211258   2.300   1.095   1.034
 3751TIP3    H111259   2.349   1.024   0.992
 3751TIP3    H211260   2.365   1.162   1.052
 3752TIP3   OH211261   2.600   4.851   3.116
 3752TIP3    H111262   2.652   4.928   3.140
 3752TIP3    H211263   2.665   4.785   3.092
 3753TIP3   OH211264   6.016   3.367   2.935
 3753TIP3    H111265   6.089   3.306   2.919
 3753TIP3    H211266   5.938   3.312   2.928
 3754TIP3   OH211267   4.788   1.558   4.152
 3754TIP3    H111268   4.844   1.483   4.135
 3754TIP3    H211269   4.829   1.631   4.107
 3755TIP3   OH211270   4.965   1.727   3.992
 3755TIP3    H111271   5.018   1.648   3.994
 3755TIP3    H211272   4.999   1.776   3.917
 3756TIP3   OH211273   5.302   5.503   3.487
 3756TIP3    H111274   5.303   5.595   3.462
 3756TIP3    H211275   5.362   5.461   3.427
 3757TIP3   OH211276   4.428   1.880   0.087
 3757TIP3    H111277   4.438   1.894  -0.007
 3757TIP3    H211278   4.517   1.887   0.122
 3758TIP3   OH211279   2.342   0.695   2.414
 3758TIP3    H111280   2.287   0.623   2.446
 3758TIP3    H211281   2.301   0.774   2.448
 3759TIP3   OH211282   3.902   0.208   0.084
 3759TIP3    H111283   3.976   0.227   0.026
 3759TIP3    H211284   3.834   0.269   0.058
 3760TIP3   OH211285   5.237   2.229   2.323
 3760TIP3    H111286   5.180   2.164   2.364
 3760TIP3    H211287   5.307   2.178   2.282
 3761TIP3   OH211288   1.843   1.387   0.396
 3761TIP3    H111289   1.909   1.440   0.440
 3761TIP3    H211290   1.850   1.300   0.437
 3762TIP3   OH211291   4.007   0.145   2.881
 3762TIP3    H111292   4.041   0.234   2.867
 3762TIP3    H211293   4.062   0.090   2.825
 3763TIP3   OH211294   2.195   5.742   2.696
 3763TIP3    H111295   2.233   5.669   2.745
 3763TIP3    H211296   2.212   5.819   2.749
 3764TIP3   OH211297   4.734   5.722   3.148
 3764TIP3    H111298   4.760   5.813   3.158
 3764TIP3    H211299   4.804   5.672   3.191
 3765TIP3   OH211300   5.820   5.330   4.926
 3765TIP3    H111301   5.758   5.262   4.899
 3765TIP3    H211302   5.882   5.284   4.983
 3766TIP3   OH211303   5.208   1.835   3.298
 3766TIP3    H111304   5.279   1.825   3.234
 3766TIP3    H211305   5.128   1.838   3.245
 3767TIP3   OH211306   5.617   1.256   2.227
 3767TIP3    H111307   5.687   1.242   2.163
 3767TIP3    H211308   5.646   1.331   2.279
 3768TIP3   OH211309   4.655   3.004   1.577
 3768TIP3    H111310   4.567   3.029   1.548
 3768TIP3    H211311   4.647   2.996   1.672
 3769TIP3   OH211312   1.896   2.823   4.079
 3769TIP3    H111313   1.897   2.898   4.020
 3769TIP3    H211314   1.806   2.790   4.074
 3770TIP3   OH211315   2.909   2.436   4.794
 3770TIP3    H111316   2.985   2.379   4.802
 3770TIP3    H211317   2.880   2.425   4.703
 3771TIP3   OH211318   3.466   0.249   0.064
 3771TIP3    H111319   3.416   0.331   0.074
 3771TIP3    H211320   3.403   0.181   0.088
 3772TIP3   OH211321   3.516   1.031   4.885
 3772TIP3    H111322   3.570   0.964   4.928
 3772TIP3    H211323   3.498   1.095   4.954
 3773TIP3   OH211324   0.457   4.309   1.346
 3773TIP3    H111325   0.432   4.353   1.427
 3773TIP3    H211326   0.451   4.216   1.367
 3774TIP3   OH211327   4.431   3.286   3.611
 3774TIP3    H111328   4.442   3.379   3.633
 3774TIP3    H211329   4.387   3.288   3.526
 3775TIP3   OH211330   0.623   5.709   4.527
 3775TIP3    H111331   0.691   5.655   4.487
 3775TIP3    H211332   0.598   5.770   4.458
 3776TIP3   OH211333   1.357   5.770   2.524
 3776TIP3    H111334   1.278   5.794   2.573
 3776TIP3    H211335   1.332   5.779   2.432
 3777TIP3   OH211336   2.126   4.242   2.242
 3777TIP3    H111337   2.177   4.276   2.168
 3777TIP3    H211338   2.044   4.212   2.203
 3778TIP3   OH211339   4.530   1.943   1.879
 3778TIP3    H111340   4.599   1.989   1.926
 3778TIP3    H211341   4.532   1.854   1.914
 3779TIP3   OH211342   6.175   5.558   0.585
 3779TIP3    H111343   6.249   5.586   0.530
 3779TIP3    H211344   6.214   5.499   0.649
 3780TIP3   OH211345   0.443   2.787   5.083
 3780TIP3    H111346   0.379   2.836   5.135
 3780TIP3    H211347   0.483   2.726   5.144
 3781TIP3   OH211348   2.281   0.100   1.348
 3781TIP3    H111349   2.318   0.093   1.436
 3781TIP3    H211350   2.320   0.180   1.312
 3782TIP3   OH211351   4.941   4.982   2.409
 3782TIP3    H111352   5.005   4.963   2.477
 3782TIP3    H211353   4.993   4.995   2.330
 3783TIP3   OH211354   6.079   0.371  -0.006
 3783TIP3    H111355   6.089   0.368   0.089
 3783TIP3    H211356   5.994   0.330  -0.022
 3784TIP3   OH211357   3.884   2.162   4.435
 3784TIP3    H111358   3.805   2.168   4.381
 3784TIP3    H211359   3.937   2.094   4.392
 3785TIP3   OH211360   4.911   0.352   0.305
 3785TIP3    H111361   5.005   0.363   0.317
 3785TIP3    H211362   4.879   0.440   0.283
 3786TIP3   OH211363   4.794   3.015   4.545
 3786TIP3    H111364   4.725   3.082   4.544
 3786TIP3    H211365   4.834   3.023   4.631
 3787TIP3   OH211366   2.818   4.549   4.581
 3787TIP3    H111367   2.790   4.637   4.604
 3787TIP3    H211368   2.899   4.561   4.531
 3788TIP3   OH211369   0.420   1.777   4.985
 3788TIP3    H111370   0.463   1.803   5.066
 3788TIP3    H211371   0.489   1.734   4.934
 3789TIP3   OH211372   0.761   1.953   3.313
 3789TIP3    H111373   0.707   1.880   3.345
 3789TIP3    H211374   0.778   1.931   3.221
 3790TIP3   OH211375   4.038   4.843   3.272
 3790TIP3    H111376   4.085   4.875   3.349
 3790TIP3    H211377   4.032   4.919   3.214
 3791TIP3   OH211378   0.233   2.461   0.552
 3791TIP3    H111379   0.285   2.381   0.557
 3791TIP3    H211380   0.181   2.460   0.632
 3792TIP3   OH211381   4.056   1.713   0.622
 3792TIP3    H111382   4.041   1.698   0.529
 3792TIP3    H211383   4.103   1.797   0.626
 3793TIP3   OH211384   5.435   5.315   1.522
 3793TIP3    H111385   5.519   5.321   1.568
 3793TIP3    H211386   5.458   5.285   1.434
 3794TIP3   OH211387   5.308   0.421   4.838
 3794TIP3    H111388   5.301   0.507   4.879
 3794TIP3    H211389   5.218   0.391   4.829
 3795TIP3   OH211390   3.107   4.024   0.182
 3795TIP3    H111391   3.063   4.039   0.266
 3795TIP3    H211392   3.073   3.940   0.152
 3796TIP3   OH211393   2.186   3.567   3.730
 3796TIP3    H111394   2.168   3.622   3.807
 3796TIP3    H211395   2.135   3.488   3.745
 3797TIP3   OH211396   3.976   5.554   1.959
 3797TIP3    H111397   4.053   5.587   2.005
 3797TIP3    H211398   4.010   5.483   1.905
 3798TIP3   OH211399   0.349   4.914   0.770
 3798TIP3    H111400   0.410   4.875   0.707
 3798TIP3    H211401   0.270   4.861   0.763
 3799TIP3   OH211402   6.008   2.023   2.094
 3799TIP3    H111403   5.945   2.093   2.076
 3799TIP3    H211404   5.976   1.981   2.174
 3800TIP3   OH211405   3.651   2.234   4.219
 3800TIP3    H111406   3.699   2.249   4.138
 3800TIP3    H211407   3.602   2.153   4.203
 3801TIP3   OH211408   4.038   0.856   4.400
 3801TIP3    H111409   3.950   0.865   4.364
 3801TIP3    H211410   4.091   0.920   4.353
 3802TIP3   OH211411   2.622   5.415   4.725
 3802TIP3    H111412   2.586   5.504   4.716
 3802TIP3    H211413   2.547   5.361   4.749
 3803TIP3   OH211414   3.657   0.678   4.008
 3803TIP3    H111415   3.616   0.638   3.931
 3803TIP3    H211416   3.727   0.733   3.971
 3804TIP3   OH211417   4.639   1.838   3.266
 3804TIP3    H111418   4.620   1.745   3.254
 3804TIP3    H211419   4.712   1.840   3.329
 3805TIP3   OH211420   2.386   1.193   4.392
 3805TIP3    H111421   2.471   1.163   4.425
 3805TIP3    H211422   2.322   1.142   4.441
 3806TIP3   OH211423   3.926   2.756   2.835
 3806TIP3    H111424   3.895   2.814   2.765
 3806TIP3    H211425   3.951   2.676   2.789
 3807TIP3   OH211426   3.029   4.677   4.450
 3807TIP3    H111427   3.061   4.662   4.361
 3807TIP3    H211428   3.103   4.656   4.506
 3808TIP3   OH211429   2.587   3.174   2.864
 3808TIP3    H111430   2.581   3.211   2.776
 3808TIP3    H211431   2.608   3.248   2.921
 3809TIP3   OH211432   3.043   3.044   4.573
 3809TIP3    H111433   3.129   3.053   4.614
 3809TIP3    H211434   2.981   3.057   4.644
 3810TIP3   OH211435   3.495   4.683   4.127
 3810TIP3    H111436   3.571   4.680   4.185
 3810TIP3    H211437   3.526   4.728   4.048
 3811TIP3   OH211438   1.986   5.357   0.711
 3811TIP3    H111439   1.928   5.317   0.646
 3811TIP3    H211440   1.958   5.317   0.794
 3812TIP3   OH211441   2.564   2.528   3.162
 3812TIP3    H111442   2.595   2.448   3.119
 3812TIP3    H211443   2.611   2.531   3.245
 3813TIP3   OH211444   2.444   4.013   1.092
 3813TIP3    H111445   2.532   4.042   1.116
 3813TIP3    H211446   2.397   4.007   1.175
 3814TIP3   OH211447   1.724   3.671   0.930
 3814TIP3    H111448   1.818   3.657   0.926
 3814TIP3    H211449   1.708   3.740   0.865
 3815TIP3   OH211450   0.012   1.892   1.573
 3815TIP3    H111451   0.049   1.922   1.490
 3815TIP3    H211452   0.060   1.941   1.640
 3816TIP3   OH211453   0.912   2.300   3.101
 3816TIP3    H111454   0.875   2.306   3.188
 3816TIP3    H211455   0.892   2.210   3.072
 3817TIP3   OH211456   4.937   3.512   1.549
 3817TIP3    H111457   5.009   3.472   1.598
 3817TIP3    H211458   4.938   3.466   1.465
 3818TIP3   OH211459   5.761   4.522   4.772
 3818TIP3    H111460   5.746   4.615   4.790
 3818TIP3    H211461   5.856   4.513   4.768
 3819TIP3   OH211462   0.713   1.734  -0.036
 3819TIP3    H111463   0.674   1.649  -0.017
 3819TIP3    H211464   0.648   1.779  -0.091
 3820TIP3   OH211465   6.383   4.233   1.431
 3820TIP3    H111466   6.373   4.303   1.495
 3820TIP3    H211467   6.323   4.164   1.461
 3821TIP3   OH211468   3.683   2.039   1.230
 3821TIP3    H111469   3.734   2.019   1.308
 3821TIP3    H211470   3.737   2.007   1.158
 3822TIP3   OH211471   5.956   4.043   0.781
 3822TIP3    H111472   5.890   3.974   0.786
 3822TIP3    H211473   5.970   4.071   0.872
 3823TIP3   OH211474   0.512   3.758   2.185
 3823TIP3    H111475   0.496   3.664   2.195
 3823TIP3    H211476   0.579   3.778   2.251
 3824TIP3   OH211477   5.897   3.670   1.928
 3824TIP3    H111478   5.949   3.718   1.863
 3824TIP3    H211479   5.872   3.589   1.883
 3825TIP3   OH211480   3.879   4.638   1.821
 3825TIP3    H111481   3.910   4.661   1.734
 3825TIP3    H211482   3.959   4.636   1.875
 3826TIP3   OH211483   5.482   4.301   0.985
 3826TIP3    H111484   5.554   4.316   1.046
 3826TIP3    H211485   5.508   4.224   0.935
 3827TIP3   OH211486   3.838   1.882   1.408
 3827TIP3    H111487   3.885   1.801   1.387
 3827TIP3    H211488   3.896   1.928   1.469
 3828TIP3   OH211489   6.004   4.647   4.032
 3828TIP3    H111490   6.000   4.733   3.990
 3828TIP3    H211491   6.097   4.629   4.041
 3829TIP3   OH211492   6.102   0.417   1.395
 3829TIP3    H111493   6.111   0.479   1.467
 3829TIP3    H211494   6.009   0.423   1.371
 3830TIP3   OH211495   0.222   5.789   2.108
 3830TIP3    H111496   0.256   5.787   2.197
 3830TIP3    H211497   0.299   5.782   2.052
 3831TIP3   OH211498   2.933   5.580   3.519
 3831TIP3    H111499   2.935   5.676   3.516
 3831TIP3    H211500   3.018   5.555   3.555
 3832TIP3   OH211501   1.302   4.038   0.894
 3832TIP3    H111502   1.364   3.966   0.906
 3832TIP3    H211503   1.303   4.085   0.978
 3833TIP3   OH211504   1.073   2.979   4.991
 3833TIP3    H111505   1.155   2.933   4.975
 3833TIP3    H211506   1.062   2.975   5.086
 3834TIP3   OH211507   6.147   4.313   0.213
 3834TIP3    H111508   6.171   4.251   0.282
 3834TIP3    H211509   6.091   4.263   0.154
 3835TIP3   OH211510   0.461   5.107   0.147
 3835TIP3    H111511   0.507   5.023   0.150
 3835TIP3    H211512   0.506   5.156   0.078
 3836TIP3   OH211513   5.835   1.272   2.536
 3836TIP3    H111514   5.849   1.366   2.529
 3836TIP3    H211515   5.892   1.244   2.607
 3837TIP3   OH211516   5.313   2.610   3.963
 3837TIP3    H111517   5.241   2.672   3.957
 3837TIP3    H211518   5.293   2.556   4.039
 3838TIP3   OH211519   2.739   2.120   3.184
 3838TIP3    H111520   2.785   2.039   3.163
 3838TIP3    H211521   2.790   2.160   3.255
 3839TIP3   OH211522   2.914   5.807   5.079
 3839TIP3    H111523   2.972   5.855   5.020
 3839TIP3    H211524   2.827   5.819   5.042
 3840TIP3   OH211525   1.981   5.070   3.446
 3840TIP3    H111526   1.925   5.126   3.498
 3840TIP3    H211527   1.969   5.100   3.356
 3841TIP3   OH211528   5.305   4.745   2.893
 3841TIP3    H111529   5.234   4.809   2.888
 3841TIP3    H211530   5.379   4.795   2.930
 3842TIP3   OH211531   3.460   1.028   0.199
 3842TIP3    H111532   3.486   1.050   0.289
 3842TIP3    H211533   3.443   0.934   0.202
 3843TIP3   OH211534   5.383   1.339   1.656
 3843TIP3    H111535   5.408   1.431   1.662
 3843TIP3    H211536   5.453   1.292   1.700
 3844TIP3   OH211537   2.773   2.921   3.210
 3844TIP3    H111538   2.858   2.929   3.167
 3844TIP3    H211539   2.729   2.851   3.162
 3845TIP3   OH211540   5.441   0.863   2.826
 3845TIP3    H111541   5.502   0.794   2.851
 3845TIP3    H211542   5.454   0.931   2.893
 3846TIP3   OH211543   3.628   0.534   0.197
 3846TIP3    H111544   3.608   0.576   0.281
 3846TIP3    H211545   3.563   0.570   0.137
 3847TIP3   OH211546   5.820   1.255   4.602
 3847TIP3    H111547   5.864   1.302   4.673
 3847TIP3    H211548   5.858   1.167   4.605
 3848TIP3   OH211549   0.624   1.916   4.099
 3848TIP3    H111550   0.677   1.841   4.126
 3848TIP3    H211551   0.566   1.932   4.174
 3849TIP3   OH211552   3.816   2.814   1.123
 3849TIP3    H111553   3.894   2.761   1.140
 3849TIP3    H211554   3.817   2.828   1.028
 3850TIP3   OH211555   2.557   2.851   2.452
 3850TIP3    H111556   2.590   2.854   2.541
 3850TIP3    H211557   2.479   2.906   2.453
 3851TIP3   OH211558   0.763   5.898   4.112
 3851TIP3    H111559   0.731   5.988   4.107
 3851TIP3    H211560   0.817   5.896   4.191
 3852TIP3   OH211561   6.320   2.362   1.115
 3852TIP3    H111562   6.300   2.354   1.208
 3852TIP3    H211563   6.286   2.448   1.091
 3853TIP3   OH211564   5.248   3.649   4.039
 3853TIP3    H111565   5.211   3.664   3.952
 3853TIP3    H211566   5.237   3.555   4.054
 3854TIP3   OH211567   1.485   0.365   4.725
 3854TIP3    H111568   1.441   0.441   4.764
 3854TIP3    H211569   1.565   0.400   4.687
 3855TIP3   OH211570   3.298   2.766   1.032
 3855TIP3    H111571   3.299   2.857   1.002
 3855TIP3    H211572   3.302   2.772   1.127
 3856TIP3   OH211573   0.917   0.625   4.980
 3856TIP3    H111574   0.946   0.552   5.035
 3856TIP3    H211575   0.828   0.644   5.010
 3857TIP3   OH211576   2.781   1.465   1.139
 3857TIP3    H111577   2.846   1.479   1.208
 3857TIP3    H211578   2.700   1.501   1.174
 3858TIP3   OH211579   2.406   5.599   1.816
 3858TIP3    H111580   2.412   5.504   1.809
 3858TIP3    H211581   2.316   5.615   1.842
 3859TIP3   OH211582   0.875   3.921   0.588
 3859TIP3    H111583   0.784   3.892   0.577
 3859TIP3    H211584   0.916   3.850   0.639
 3860TIP3   OH211585   5.242   3.436   1.399
 3860TIP3    H111586   5.215   3.518   1.441
 3860TIP3    H211587   5.164   3.406   1.353
 3861TIP3   OH211588   2.845   4.075   4.325
 3861TIP3    H111589   2.891   4.077   4.409
 3861TIP3    H211590   2.841   4.167   4.297
 3862TIP3   OH211591   4.442   2.169   3.216
 3862TIP3    H111592   4.477   2.259   3.218
 3862TIP3    H211593   4.436   2.148   3.123
 3863TIP3   OH211594   2.845   4.654   0.798
 3863TIP3    H111595   2.901   4.704   0.739
 3863TIP3    H211596   2.774   4.622   0.743
 3864TIP3   OH211597   0.293   3.130   4.997
 3864TIP3    H111598   0.243   3.048   4.992
 3864TIP3    H211599   0.228   3.196   5.021
 3865TIP3   OH211600   2.820   4.834   4.345
 3865TIP3    H111601   2.749   4.846   4.408
 3865TIP3    H211602   2.892   4.798   4.397
 3866TIP3   OH211603   4.696   1.512   4.815
 3866TIP3    H111604   4.645   1.442   4.855
 3866TIP3    H211605   4.744   1.469   4.744
 3867TIP3   OH211606   4.617   2.595   5.119
 3867TIP3    H111607   4.689   2.603   5.182
 3867TIP3    H211608   4.634   2.512   5.075
 3868TIP3   OH211609   1.830   3.364   3.695
 3868TIP3    H111610   1.855   3.440   3.643
 3868TIP3    H211611   1.911   3.314   3.707
 3869TIP3   OH211612   4.098   0.254   1.550
 3869TIP3    H111613   4.124   0.296   1.632
 3869TIP3    H211614   4.051   0.176   1.576
 3870TIP3   OH211615   2.754   1.162   0.326
 3870TIP3    H111616   2.781   1.102   0.257
 3870TIP3    H211617   2.835   1.203   0.355
 3871TIP3   OH211618   1.107   4.854   4.534
 3871TIP3    H111619   1.138   4.813   4.454
 3871TIP3    H211620   1.032   4.802   4.561
 3872TIP3   OH211621   3.629   1.709   2.725
 3872TIP3    H111622   3.580   1.639   2.680
 3872TIP3    H211623   3.599   1.790   2.683
 3873TIP3   OH211624   5.912   0.888   4.320
 3873TIP3    H111625   5.881   0.803   4.351
 3873TIP3    H211626   5.843   0.949   4.345
 3874TIP3   OH211627   5.345   4.852   0.282
 3874TIP3    H111628   5.249   4.852   0.276
 3874TIP3    H211629   5.375   4.864   0.192
 3875TIP3   OH211630   3.548   4.552   1.258
 3875TIP3    H111631   3.635   4.526   1.290
 3875TIP3    H211632   3.545   4.646   1.271
 3876TIP3   OH211633   1.952   3.562   1.272
 3876TIP3    H111634   1.938   3.473   1.302
 3876TIP3    H211635   1.981   3.610   1.350
 3877TIP3   OH211636   5.286   5.704   4.978
 3877TIP3    H111637   5.356   5.641   4.960
 3877TIP3    H211638   5.310   5.781   4.925
 3878TIP3   OH211639   5.125   4.751   1.915
 3878TIP3    H111640   5.047   4.791   1.954
 3878TIP3    H211641   5.168   4.706   1.988
 3879TIP3   OH211642   6.027   0.638   1.079
 3879TIP3    H111643   6.108   0.678   1.111
 3879TIP3    H211644   5.961   0.662   1.144
 3880TIP3   OH211645   4.864   3.656   3.482
 3880TIP3    H111646   4.896   3.682   3.568
 3880TIP3    H211647   4.878   3.562   3.479
 3881TIP3   OH211648   2.732   3.093   2.165
 3881TIP3    H111649   2.649   3.057   2.135
 3881TIP3    H211650   2.713   3.130   2.251
 3882TIP3   OH211651   0.292   0.352   3.476
 3882TIP3    H111652   0.364   0.406   3.444
 3882TIP3    H211653   0.313   0.264   3.444
 3883TIP3   OH211654   0.351   2.848   0.709
 3883TIP3    H111655   0.399   2.785   0.762
 3883TIP3    H211656   0.418   2.894   0.658
 3884TIP3   OH211657   1.396   1.722   2.794
 3884TIP3    H111658   1.321   1.760   2.840
 3884TIP3    H211659   1.358   1.667   2.726
 3885TIP3   OH211660   3.007   1.006   5.115
 3885TIP3    H111661   3.004   0.911   5.130
 3885TIP3    H211662   3.094   1.032   5.145
 3886TIP3   OH211663   2.371   5.184   1.946
 3886TIP3    H111664   2.311   5.111   1.933
 3886TIP3    H211665   2.416   5.194   1.862
 3887TIP3   OH211666   5.206   0.134   1.601
 3887TIP3    H111667   5.228   0.178   1.519
 3887TIP3    H211668   5.254   0.184   1.668
 3888TIP3   OH211669   3.830   2.887   0.861
 3888TIP3    H111670   3.860   2.950   0.796
 3888TIP3    H211671   3.801   2.812   0.810
 3889TIP3   OH211672   5.583   0.221   2.840
 3889TIP3    H111673   5.678   0.229   2.842
 3889TIP3    H211674   5.554   0.283   2.773
 3890TIP3   OH211675   4.825   5.393   3.583
 3890TIP3    H111676   4.786   5.362   3.501
 3890TIP3    H211677   4.794   5.331   3.649
 3891TIP3   OH211678   5.020   3.837   4.413
 3891TIP3    H111679   5.081   3.856   4.342
 3891TIP3    H211680   5.047   3.752   4.446
 3892TIP3   OH211681   5.308   4.855   4.455
 3892TIP3    H111682   5.330   4.945   4.478
 3892TIP3    H211683   5.357   4.801   4.517
 3893TIP3   OH211684   0.926   4.056   4.661
 3893TIP3    H111685   1.009   4.011   4.670
 3893TIP3    H211686   0.889   4.024   4.579
 3894TIP3   OH211687   5.626   3.524   2.087
 3894TIP3    H111688   5.649   3.473   2.165
 3894TIP3    H211689   5.694   3.590   2.080
 3895TIP3   OH211690   0.960   0.545   4.346
 3895TIP3    H111691   0.948   0.560   4.252
 3895TIP3    H211692   0.976   0.451   4.354
 3896TIP3   OH211693   0.870   2.105   0.540
 3896TIP3    H111694   0.932   2.152   0.484
 3896TIP3    H211695   0.835   2.036   0.485
 3897TIP3   OH211696   5.450   5.009   0.713
 3897TIP3    H111697   5.448   5.016   0.808
 3897TIP3    H211698   5.539   4.980   0.692
 3898TIP3   OH211699   4.788   1.129   4.796
 3898TIP3    H111700   4.792   1.081   4.879
 3898TIP3    H211701   4.704   1.175   4.799
 3899TIP3   OH211702   1.330   2.276   1.308
 3899TIP3    H111703   1.276   2.321   1.373
 3899TIP3    H211704   1.391   2.225   1.360
 3900TIP3   OH211705   2.051   1.356   1.267
 3900TIP3    H111706   1.975   1.410   1.289
 3900TIP3    H211707   2.091   1.336   1.351
 3901TIP3   OH211708   0.267   1.240   0.833
 3901TIP3    H111709   0.256   1.234   0.928
 3901TIP3    H211710   0.346   1.189   0.815
 3902TIP3   OH211711   2.319   1.960   1.220
 3902TIP3    H111712   2.236   1.932   1.182
 3902TIP3    H211713   2.310   2.055   1.228
 3903TIP3   OH211714   3.492   0.164   2.772
 3903TIP3    H111715   3.429   0.222   2.729
 3903TIP3    H211716   3.442   0.123   2.843
 3904TIP3   OH211717   5.697   0.142   1.193
 3904TIP3    H111718   5.625   0.204   1.197
 3904TIP3    H211719   5.710   0.126   1.099
 3905TIP3   OH211720   3.540   1.166   2.696
 3905TIP3    H111721   3.581   1.252   2.698
 3905TIP3    H211722   3.609   1.107   2.668
 3906TIP3   OH211723   5.164   1.243   4.609
 3906TIP3    H111724   5.081   1.204   4.584
 3906TIP3    H211725   5.191   1.196   4.688
 3907TIP3   OH211726   0.321   4.267   3.481
 3907TIP3    H111727   0.326   4.220   3.564
 3907TIP3    H211728   0.286   4.353   3.504
 3908TIP3   OH211729   1.684   5.357   2.247
 3908TIP3    H111730   1.722   5.306   2.319
 3908TIP3    H211731   1.755   5.364   2.183
 3909TIP3   OH211732   0.544   1.490   4.655
 3909TIP3    H111733   0.578   1.402   4.668
 3909TIP3    H211734   0.451   1.479   4.638
 3910TIP3   OH211735   4.252   1.678   4.696
 3910TIP3    H111736   4.229   1.738   4.625
 3910TIP3    H211737   4.263   1.593   4.653
 3911TIP3   OH211738   2.475   4.367   3.332
 3911TIP3    H111739   2.421   4.434   3.374
 3911TIP3    H211740   2.461   4.288   3.384
 3912TIP3   OH211741   1.388   0.702   4.005
 3912TIP3    H111742   1.420   0.618   3.972
 3912TIP3    H211743   1.464   0.760   4.003
 3913TIP3   OH211744   1.355   5.230   4.611
 3913TIP3    H111745   1.386   5.174   4.682
 3913TIP3    H211746   1.435   5.266   4.571
 3914TIP3   OH211747   0.407   0.489   3.059
 3914TIP3    H111748   0.453   0.480   3.142
 3914TIP3    H211749   0.468   0.452   2.994
 3915TIP3   OH211750   6.063   5.224   2.561
 3915TIP3    H111751   6.055   5.169   2.484
 3915TIP3    H211752   5.979   5.269   2.567
 3916TIP3   OH211753   3.940   1.880   1.947
 3916TIP3    H111754   3.980   1.836   1.873
 3916TIP3    H211755   4.007   1.879   2.015
 3917TIP3   OH211756   1.220   5.797   2.282
 3917TIP3    H111757   1.153   5.834   2.339
 3917TIP3    H211758   1.256   5.871   2.234
 3918TIP3   OH211759   0.609   5.386   1.737
 3918TIP3    H111760   0.531   5.430   1.703
 3918TIP3    H211761   0.630   5.320   1.672
 3919TIP3   OH211762   4.907   0.632   4.376
 3919TIP3    H111763   4.897   0.710   4.431
 3919TIP3    H211764   4.987   0.647   4.326
 3920TIP3   OH211765   4.731   0.639   3.597
 3920TIP3    H111766   4.779   0.717   3.569
 3920TIP3    H211767   4.650   0.672   3.634
 3921TIP3   OH211768   0.833   2.008   3.571
 3921TIP3    H111769   0.773   2.051   3.632
 3921TIP3    H211770   0.780   1.992   3.493
 3922TIP3   OH211771   3.863   2.965   4.370
 3922TIP3    H111772   3.794   3.021   4.405
 3922TIP3    H211773   3.940   2.985   4.423
 3923TIP3   OH211774   2.446   3.032   2.128
 3923TIP3    H111775   2.438   3.011   2.221
 3923TIP3    H211776   2.393   2.966   2.084
 3924TIP3   OH211777   2.513   4.105   2.926
 3924TIP3    H111778   2.547   4.164   2.993
 3924TIP3    H211779   2.459   4.161   2.870
 3925TIP3   OH211780   5.223   5.027   1.589
 3925TIP3    H111781   5.296   4.974   1.622
 3925TIP3    H211782   5.147   4.969   1.595
 3926TIP3   OH211783   1.179   1.866   0.911
 3926TIP3    H111784   1.266   1.880   0.873
 3926TIP3    H211785   1.122   1.856   0.834
 3927TIP3   OH211786   5.712   4.546   3.135
 3927TIP3    H111787   5.711   4.484   3.062
 3927TIP3    H211788   5.621   4.576   3.143
 3928TIP3   OH211789   2.227   0.297   3.830
 3928TIP3    H111790   2.148   0.343   3.799
 3928TIP3    H211791   2.245   0.231   3.763
 3929TIP3   OH211792   0.162   1.941   1.307
 3929TIP3    H111793   0.179   1.987   1.225
 3929TIP3    H211794   0.180   1.849   1.287
 3930TIP3   OH211795   1.704   3.304   2.799
 3930TIP3    H111796   1.800   3.301   2.791
 3930TIP3    H211797   1.688   3.379   2.856
 3931TIP3   OH211798   5.651   1.951   0.896
 3931TIP3    H111799   5.623   1.994   0.815
 3931TIP3    H211800   5.732   1.907   0.873
 3932TIP3   OH211801   3.866   1.071   4.161
 3932TIP3    H111802   3.858   0.979   4.187
 3932TIP3    H211803   3.788   1.113   4.196
 3933TIP3   OH211804   4.735   1.415   3.880
 3933TIP3    H111805   4.797   1.437   3.950
 3933TIP3    H211806   4.787   1.419   3.800
 3934TIP3   OH211807   6.046   2.933   2.843
 3934TIP3    H111808   6.109   2.896   2.904
 3934TIP3    H211809   6.098   2.961   2.768
 3935TIP3   OH211810   5.348   4.352   4.562
 3935TIP3    H111811   5.358   4.305   4.645
 3935TIP3    H211812   5.435   4.350   4.522
 3936TIP3   OH211813   1.149   1.999   1.936
 3936TIP3    H111814   1.074   2.059   1.935
 3936TIP3    H211815   1.127   1.936   2.004
 3937TIP3   OH211816   2.475   0.362   3.598
 3937TIP3    H111817   2.502   0.419   3.670
 3937TIP3    H211818   2.444   0.422   3.531
 3938TIP3   OH211819   3.025   1.322   4.364
 3938TIP3    H111820   3.018   1.310   4.459
 3938TIP3    H211821   3.062   1.410   4.355
 3939TIP3   OH211822   6.181   2.166   4.251
 3939TIP3    H111823   6.115   2.109   4.212
 3939TIP3    H211824   6.133   2.244   4.276
 3940TIP3   OH211825   4.536   5.553   2.123
 3940TIP3    H111826   4.595   5.551   2.048
 3940TIP3    H211827   4.582   5.606   2.189
 3941TIP3   OH211828   0.756   0.727   4.424
 3941TIP3    H111829   0.822   0.663   4.397
 3941TIP3    H211830   0.777   0.805   4.371
 3942TIP3   OH211831   3.412   3.993   2.068
 3942TIP3    H111832   3.370   3.951   1.993
 3942TIP3    H211833   3.391   4.086   2.058
 3943TIP3   OH211834   5.343   3.296   1.711
 3943TIP3    H111835   5.361   3.224   1.651
 3943TIP3    H211836   5.404   3.365   1.684
 3944TIP3   OH211837   0.535   5.760   0.778
 3944TIP3    H111838   0.630   5.763   0.776
 3944TIP3    H211839   0.514   5.682   0.828
 3945TIP3   OH211840   6.277   2.288   1.443
 3945TIP3    H111841   6.365   2.252   1.439
 3945TIP3    H211842   6.250   2.277   1.534
 3946TIP3   OH211843   1.742   4.310   2.670
 3946TIP3    H111844   1.788   4.333   2.751
 3946TIP3    H211845   1.697   4.390   2.645
 3947TIP3   OH211846   1.612   2.505   5.118
 3947TIP3    H111847   1.627   2.595   5.148
 3947TIP3    H211848   1.675   2.493   5.047
 3948TIP3   OH211849   3.602   4.661   2.341
 3948TIP3    H111850   3.555   4.585   2.374
 3948TIP3    H211851   3.683   4.664   2.393
 3949TIP3   OH211852   2.559   5.780   0.379
 3949TIP3    H111853   2.635   5.730   0.350
 3949TIP3    H211854   2.590   5.871   0.381
 3950TIP3   OH211855   2.844   0.193   0.235
 3950TIP3    H111856   2.931   0.227   0.257
 3950TIP3    H211857   2.852   0.098   0.248
 3951TIP3   OH211858   2.811   3.149   2.477
 3951TIP3    H111859   2.730   3.190   2.509
 3951TIP3    H211860   2.860   3.128   2.556
 3952TIP3   OH211861   5.702   2.410   1.416
 3952TIP3    H111862   5.671   2.331   1.460
 3952TIP3    H211863   5.668   2.482   1.468
 3953TIP3   OH211864   4.519   3.674   4.395
 3953TIP3    H111865   4.524   3.766   4.421
 3953TIP3    H211866   4.596   3.634   4.436
 3954TIP3   OH211867   0.545   4.635   2.955
 3954TIP3    H111868   0.589   4.639   2.870
 3954TIP3    H211869   0.512   4.546   2.960
 3955TIP3   OH211870   5.758   0.224   4.957
 3955TIP3    H111871   5.663   0.222   4.940
 3955TIP3    H211872   5.775   0.144   5.007
 3956TIP3   OH211873   5.352   1.347   0.973
 3956TIP3    H111874   5.425   1.406   0.953
 3956TIP3    H211875   5.274   1.401   0.963
 3957TIP3   OH211876   4.786   0.963   5.001
 3957TIP3    H111877   4.870   0.916   5.011
 3957TIP3    H211878   4.744   0.956   5.087
 3958TIP3   OH211879   3.711   0.816   0.286
 3958TIP3    H111880   3.618   0.799   0.278
 3958TIP3    H211881   3.722   0.848   0.376
 3959TIP3   OH211882   1.299   5.658   1.786
 3959TIP3    H111883   1.237   5.720   1.824
 3959TIP3    H211884   1.253   5.574   1.787
 3960TIP3   OH211885   2.855   1.810   1.035
 3960TIP3    H111886   2.779   1.842   1.083
 3960TIP3    H211887   2.819   1.770   0.956
 3961TIP3   OH211888   1.283   4.959   1.452
 3961TIP3    H111889   1.217   5.027   1.462
 3961TIP3    H211890   1.233   4.880   1.432
 3962TIP3   OH211891   3.238   4.823   3.302
 3962TIP3    H111892   3.205   4.744   3.258
 3962TIP3    H211893   3.318   4.794   3.346
 3963TIP3   OH211894   0.818   1.705   4.122
 3963TIP3    H111895   0.890   1.763   4.098
 3963TIP3    H211896   0.858   1.639   4.180
 3964TIP3   OH211897   6.362   3.685   4.105
 3964TIP3    H111898   6.365   3.601   4.060
 3964TIP3    H211899   6.294   3.674   4.172
 3965TIP3   OH211900  -0.014   1.450   0.853
 3965TIP3    H111901   0.000   1.356   0.838
 3965TIP3    H211902  -0.047   1.483   0.769
 3966TIP3   OH211903   3.954   5.682   0.272
 3966TIP3    H111904   4.025   5.622   0.297
 3966TIP3    H211905   3.989   5.732   0.199
 3967TIP3   OH211906   5.115   2.445   4.605
 3967TIP3    H111907   5.190   2.493   4.640
 3967TIP3    H211908   5.059   2.430   4.680
 3968TIP3   OH211909   3.746   0.929   0.535
 3968TIP3    H111910   3.668   0.945   0.587
 3968TIP3    H211911   3.815   0.911   0.600
 3969TIP3   OH211912   5.512   5.355   2.913
 3969TIP3    H111913   5.524   5.437   2.864
 3969TIP3    H211914   5.595   5.310   2.904
 3970TIP3   OH211915   4.602   4.571   4.274
 3970TIP3    H111916   4.661   4.593   4.346
 3970TIP3    H211917   4.657   4.520   4.214
 3971TIP3   OH211918   0.794   0.028   5.018
 3971TIP3    H111919   0.762   0.094   5.080
 3971TIP3    H211920   0.884   0.056   4.998
 3972TIP3   OH211921   4.445   3.081   3.308
 3972TIP3    H111922   4.536   3.052   3.305
 3972TIP3    H211923   4.404   3.037   3.233
 3973TIP3   OH211924   0.918   0.044   1.224
 3973TIP3    H111925   0.834   0.077   1.258
 3973TIP3    H211926   0.901  -0.048   1.203
 3974TIP3   OH211927   5.004   4.557   4.318
 3974TIP3    H111928   4.941   4.493   4.284
 3974TIP3    H211929   4.996   4.632   4.259
 3975TIP3   OH211930   1.170   4.199   2.900
 3975TIP3    H111931   1.204   4.141   2.832
 3975TIP3    H211932   1.111   4.144   2.952
 3976TIP3   OH211933   4.851   1.371   2.059
 3976TIP3    H111934   4.813   1.442   2.008
 3976TIP3    H211935   4.834   1.292   2.006
 3977TIP3   OH211936   5.682   3.829   1.984
 3977TIP3    H111937   5.700   3.917   1.953
 3977TIP3    H211938   5.760   3.778   1.959
 3978TIP3   OH211939   0.478   5.727   5.030
 3978TIP3    H111940   0.384   5.734   5.047
 3978TIP3    H211941   0.484   5.675   4.950
 3979TIP3   OH211942   0.520   1.136   3.399
 3979TIP3    H111943   0.541   1.089   3.318
 3979TIP3    H211944   0.602   1.137   3.448
 3980TIP3   OH211945   3.027   4.190   2.194
 3980TIP3    H111946   2.977   4.135   2.133
 3980TIP3    H211947   3.068   4.128   2.254
 3981TIP3   OH211948   4.950   0.964   0.255
 3981TIP3    H111949   4.961   0.896   0.322
 3981TIP3    H211950   4.994   0.928   0.177
 3982TIP3   OH211951   3.287   0.406   1.088
 3982TIP3    H111952   3.294   0.324   1.138
 3982TIP3    H211953   3.209   0.394   1.034
 3983TIP3   OH211954   2.527   3.677   3.076
 3983TIP3    H111955   2.522   3.637   2.989
 3983TIP3    H211956   2.595   3.628   3.121
 3984TIP3   OH211957   0.421   1.905   3.833
 3984TIP3    H111958   0.502   1.899   3.883
 3984TIP3    H211959   0.352   1.908   3.899
 3985TIP3   OH211960   4.798   0.354   4.921
 3985TIP3    H111961   4.748   0.430   4.891
 3985TIP3    H211962   4.825   0.377   5.010
 3986TIP3   OH211963   4.669   3.236   1.185
 3986TIP3    H111964   4.640   3.154   1.226
 3986TIP3    H211965   4.731   3.207   1.118
 3987TIP3   OH211966   5.594   4.363   2.654
 3987TIP3    H111967   5.586   4.447   2.608
 3987TIP3    H211968   5.630   4.304   2.588
 3988TIP3   OH211969   3.693   0.907   1.245
 3988TIP3    H111970   3.716   0.815   1.253
 3988TIP3    H211971   3.607   0.914   1.287
 3989TIP3   OH211972   1.398   5.736   0.153
 3989TIP3    H111973   1.353   5.797   0.212
 3989TIP3    H211974   1.455   5.792   0.100
 3990TIP3   OH211975   4.419   1.230   3.547
 3990TIP3    H111976   4.434   1.247   3.640
 3990TIP3    H211977   4.432   1.315   3.505
 3991TIP3   OH211978   3.088   5.942   1.827
 3991TIP3    H111979   3.131   5.884   1.764
 3991TIP3    H211980   3.081   6.026   1.782
 3992TIP3   OH211981   5.446   5.426   5.203
 3992TIP3    H111982   5.407   5.385   5.126
 3992TIP3    H211983   5.522   5.474   5.169
 3993TIP3   OH211984   4.545   1.637   3.965
 3993TIP3    H111985   4.618   1.577   3.980
 3993TIP3    H211986   4.467   1.582   3.970
 3994TIP3   OH211987   5.882   3.042   0.951
 3994TIP3    H111988   5.795   3.039   0.911
 3994TIP3    H211989   5.935   2.984   0.897
 3995TIP3   OH211990   0.242   2.896   3.313
 3995TIP3    H111991   0.212   2.820   3.361
 3995TIP3    H211992   0.204   2.971   3.359
 3996TIP3   OH211993   0.437   1.167   0.135
 3996TIP3    H111994   0.443   1.194   0.043
 3996TIP3    H211995   0.473   1.240   0.184
 3997TIP3   OH211996   0.765   2.610   0.763
 3997TIP3    H111997   0.804   2.535   0.717
 3997TIP3    H211998   0.798   2.686   0.716
 3998TIP3   OH211999   0.929   2.703   3.320
 3998TIP3    H112000   0.852   2.666   3.362
 3998TIP3    H212001   1.003   2.652   3.355
 3999TIP3   OH212002   0.950   5.238   1.965
 3999TIP3    H112003   0.954   5.218   2.059
 3999TIP3    H212004   1.030   5.287   1.948
 4000TIP3   OH212005   4.614   4.831   2.991
 4000TIP3    H112006   4.627   4.779   3.070
 4000TIP3    H212007   4.606   4.766   2.921
 4001TIP3   OH212008   4.997   1.758   0.643
 4001TIP3    H112009   4.941   1.822   0.686
 4001TIP3    H212010   4.939   1.715   0.580
 4002TIP3   OH212011   0.788   3.003   0.097
 4002TIP3    H112012   0.837   3.080   0.068
 4002TIP3    H212013   0.798   2.940   0.025
 4003TIP3   OH212014   4.795   3.046   0.689
 4003TIP3    H112015   4.760   3.016   0.774
 4003TIP3    H212016   4.768   3.138   0.685
 4004TIP3   OH212017   2.114   5.325   0.198
 4004TIP3    H112018   2.193   5.363   0.159
 4004TIP3    H212019   2.088   5.387   0.265
 4005TIP3   OH212020   5.389   2.390   2.525
 4005TIP3    H112021   5.335   2.369   2.450
 4005TIP3    H212022   5.467   2.335   2.516
 4006TIP3   OH212023   4.651   4.685   1.473
 4006TIP3    H112024   4.728   4.683   1.416
 4006TIP3    H212025   4.618   4.595   1.473
 4007TIP3   OH212026   4.803   2.675   3.402
 4007TIP3    H112027   4.730   2.646   3.456
 4007TIP3    H212028   4.763   2.735   3.339
 4008TIP3   OH212029   1.480   4.603   2.440
 4008TIP3    H112030   1.416   4.634   2.376
 4008TIP3    H212031   1.427   4.568   2.511
 4009TIP3   OH212032   1.695   1.287   3.874
 4009TIP3    H112033   1.618   1.230   3.880
 4009TIP3    H212034   1.662   1.368   3.835
 4010TIP3   OH212035   0.712   5.351   3.368
 4010TIP3    H112036   0.684   5.275   3.318
 4010TIP3    H212037   0.744   5.412   3.302
 4011TIP3   OH212038   5.328   4.588   2.401
 4011TIP3    H112039   5.373   4.624   2.478
 4011TIP3    H212040   5.310   4.497   2.425
 4012TIP3   OH212041   3.433   2.245   3.721
 4012TIP3    H112042   3.503   2.283   3.667
 4012TIP3    H212043   3.437   2.294   3.803
 4013TIP3   OH212044   4.000   6.029   4.434
 4013TIP3    H112045   3.941   6.075   4.494
 4013TIP3    H212046   3.968   6.052   4.347
 4014TIP3   OH212047   6.267   1.436   4.028
 4014TIP3    H112048   6.274   1.512   3.971
 4014TIP3    H212049   6.182   1.445   4.070
 4015TIP3   OH212050   3.042   0.215   1.363
 4015TIP3    H112051   3.137   0.226   1.364
 4015TIP3    H212052   3.010   0.281   1.425
 4016TIP3   OH212053   3.554   1.511   1.912
 4016TIP3    H112054   3.464   1.488   1.890
 4016TIP3    H212055   3.557   1.509   2.008
 4017TIP3   OH212056   2.968   3.147   4.339
 4017TIP3    H112057   3.032   3.216   4.323
 4017TIP3    H212058   2.993   3.109   4.424
 4018TIP3   OH212059   5.763   5.849   2.716
 4018TIP3    H112060   5.840   5.818   2.764
 4018TIP3    H212061   5.754   5.788   2.643
 4019TIP3   OH212062   5.718   3.057   3.134
 4019TIP3    H112063   5.676   2.979   3.099
 4019TIP3    H212064   5.781   3.025   3.199
 4020TIP3   OH212065   5.154   4.315   3.712
 4020TIP3    H112066   5.244   4.347   3.715
 4020TIP3    H212067   5.157   4.243   3.649
 4021TIP3   OH212068   6.051   1.931   0.352
 4021TIP3    H112069   6.063   1.947   0.258
 4021TIP3    H212070   6.106   1.997   0.394
 4022TIP3   OH212071   1.325   3.459   2.440
 4022TIP3    H112072   1.255   3.505   2.393
 4022TIP3    H212073   1.376   3.416   2.372
 4023TIP3   OH212074   3.674   5.334   3.037
 4023TIP3    H112075   3.760   5.336   2.997
 4023TIP3    H212076   3.688   5.365   3.126
 4024TIP3   OH212077   0.267   1.423   2.812
 4024TIP3    H112078   0.263   1.474   2.731
 4024TIP3    H212079   0.335   1.357   2.796
 4025TIP3   OH212080   4.468   4.544   3.479
 4025TIP3    H112081   4.558   4.568   3.504
 4025TIP3    H212082   4.436   4.621   3.432
 4026TIP3   OH212083   2.964   0.069   1.742
 4026TIP3    H112084   2.875   0.034   1.751
 4026TIP3    H212085   3.003   0.016   1.672
 4027TIP3   OH212086   2.205   2.744   2.277
 4027TIP3    H112087   2.110   2.743   2.292
 4027TIP3    H212088   2.241   2.686   2.343
 4028TIP3   OH212089   0.907   1.923   2.164
 4028TIP3    H112090   0.854   1.904   2.242
 4028TIP3    H212091   0.962   1.846   2.153
 4029TIP3   OH212092   2.507   1.769   4.445
 4029TIP3    H112093   2.465   1.684   4.456
 4029TIP3    H212094   2.443   1.821   4.396
 4030TIP3   OH212095   2.579   4.741   0.675
 4030TIP3    H112096   2.617   4.692   0.602
 4030TIP3    H212097   2.497   4.776   0.639
 4031TIP3   OH212098   1.482   5.394   4.085
 4031TIP3    H112099   1.421   5.439   4.026
 4031TIP3    H212100   1.494   5.456   4.158
 4032TIP3   OH212101   4.288   0.760   4.492
 4032TIP3    H112102   4.201   0.794   4.475
 4032TIP3    H212103   4.288   0.673   4.453
 4033TIP3   OH212104   2.360   1.262   0.624
 4033TIP3    H112105   2.403   1.312   0.555
 4033TIP3    H212106   2.428   1.246   0.689
 4034TIP3   OH212107   3.714   5.781   4.101
 4034TIP3    H112108   3.787   5.719   4.107
 4034TIP3    H212109   3.636   5.726   4.107
 4035TIP3   OH212110   3.934   1.754   5.023
 4035TIP3    H112111   3.939   1.770   5.117
 4035TIP3    H212112   4.021   1.724   4.998
 4036TIP3   OH212113   3.217   2.346   1.089
 4036TIP3    H112114   3.261   2.422   1.127
 4036TIP3    H212115   3.191   2.375   1.001
 4037TIP3   OH212116   1.243   4.695   3.834
 4037TIP3    H112117   1.286   4.654   3.909
 4037TIP3    H212118   1.222   4.783   3.863
 4038TIP3   OH212119   0.291   0.757   1.084
 4038TIP3    H112120   0.311   0.713   1.166
 4038TIP3    H212121   0.355   0.828   1.078
 4039TIP3   OH212122   4.976   2.275   0.198
 4039TIP3    H112123   5.029   2.320   0.133
 4039TIP3    H212124   5.029   2.277   0.278
 4040TIP3   OH212125   2.730   1.089   2.748
 4040TIP3    H112126   2.817   1.059   2.774
 4040TIP3    H212127   2.679   1.087   2.829
 4041TIP3   OH212128   2.538   5.150   0.239
 4041TIP3    H112129   2.471   5.085   0.214
 4041TIP3    H212130   2.490   5.215   0.291
 4042TIP3   OH212131   5.024   5.739   1.252
 4042TIP3    H112132   5.022   5.645   1.268
 4042TIP3    H212133   4.932   5.765   1.252
 4043TIP3   OH212134   0.197   4.118   3.259
 4043TIP3    H112135   0.226   4.163   3.338
 4043TIP3    H212136   0.274   4.071   3.227
 4044TIP3   OH212137   4.199   1.912   2.513
 4044TIP3    H112138   4.161   1.832   2.477
 4044TIP3    H212139   4.267   1.937   2.450
 4045TIP3   OH212140   0.830   1.336   4.977
 4045TIP3    H112141   0.833   1.291   5.061
 4045TIP3    H212142   0.922   1.355   4.957
 4046TIP3   OH212143   1.933   1.065   4.694
 4046TIP3    H112144   1.839   1.074   4.685
 4046TIP3    H212145   1.969   1.145   4.655
 4047TIP3   OH212146   6.187   2.549   0.910
 4047TIP3    H112147   6.152   2.572   0.824
 4047TIP3    H212148   6.269   2.505   0.891
 4048TIP3   OH212149   3.843   1.167   3.426
 4048TIP3    H112150   3.749   1.167   3.410
 4048TIP3    H212151   3.868   1.259   3.422
 4049TIP3   OH212152   2.026   4.444   4.190
 4049TIP3    H112153   2.052   4.380   4.257
 4049TIP3    H212154   2.004   4.523   4.240
 4050TIP3   OH212155   0.207   5.336   4.940
 4050TIP3    H112156   0.209   5.418   4.989
 4050TIP3    H212157   0.236   5.270   5.003
 4051TIP3   OH212158   3.624   1.964   0.922
 4051TIP3    H112159   3.585   1.972   0.835
 4051TIP3    H212160   3.620   2.053   0.957
 4052TIP3   OH212161   6.059   1.114   3.257
 4052TIP3    H112162   5.997   1.049   3.289
 4052TIP3    H212163   6.081   1.085   3.168
 4053TIP3   OH212164   2.690   0.048   4.548
 4053TIP3    H112165   2.703   0.143   4.553
 4053TIP3    H212166   2.596   0.038   4.532
 4054TIP3   OH212167   2.727   5.775   2.301
 4054TIP3    H112168   2.680   5.728   2.232
 4054TIP3    H212169   2.693   5.865   2.295
 4055TIP3   OH212170   5.266   5.805   0.622
 4055TIP3    H112171   5.223   5.770   0.543
 4055TIP3    H212172   5.320   5.877   0.589
 4056TIP3   OH212173   3.652   1.298   0.566
 4056TIP3    H112174   3.704   1.267   0.640
 4056TIP3    H212175   3.717   1.321   0.499
 4057TIP3   OH212176   0.027   4.729   4.630
 4057TIP3    H112177   0.078   4.688   4.700
 4057TIP3    H212178   0.066   4.816   4.620
 4058TIP3   OH212179   2.246   2.812   1.537
 4058TIP3    H112180   2.294   2.778   1.612
 4058TIP3    H212181   2.248   2.742   1.472
 4059TIP3   OH212182   0.502   3.746   4.074
 4059TIP3    H112183   0.459   3.792   4.146
 4059TIP3    H212184   0.479   3.797   3.996
 4060TIP3   OH212185   4.407   2.673   2.612
 4060TIP3    H112186   4.367   2.619   2.543
 4060TIP3    H212187   4.501   2.660   2.601
 4061TIP3   OH212188   5.399   3.066   3.161
 4061TIP3    H112189   5.341   3.127   3.114
 4061TIP3    H212190   5.487   3.100   3.146
 4062TIP3   OH212191   4.561   1.260   4.183
 4062TIP3    H112192   4.644   1.227   4.148
 4062TIP3    H212193   4.583   1.344   4.222
 4063TIP3   OH212194   2.402   1.593   2.862
 4063TIP3    H112195   2.332   1.643   2.820
 4063TIP3    H212196   2.390   1.609   2.955
 4064TIP3   OH212197   3.389   4.097   3.193
 4064TIP3    H112198   3.427   4.135   3.272
 4064TIP3    H212199   3.447   4.126   3.122
 4065TIP3   OH212200   6.030   2.175   1.300
 4065TIP3    H112201   6.104   2.179   1.362
 4065TIP3    H212202   5.972   2.108   1.336
 4066TIP3   OH212203   2.023   2.881   4.322
 4066TIP3    H112204   1.961   2.856   4.390
 4066TIP3    H212205   1.969   2.896   4.244
 4067TIP3   OH212206   1.125   4.476   4.794
 4067TIP3    H112207   1.207   4.428   4.785
 4067TIP3    H212208   1.151   4.567   4.805
 4068TIP3   OH212209   0.066   2.899   1.457
 4068TIP3    H112210   0.145   2.923   1.409
 4068TIP3    H212211   0.066   2.804   1.456
 4069TIP3   OH212212   4.439   3.987   1.560
 4069TIP3    H112213   4.437   4.059   1.496
 4069TIP3    H212214   4.356   3.995   1.607
 4070TIP3   OH212215   1.887   1.694   0.510
 4070TIP3    H112216   1.889   1.688   0.414
 4070TIP3    H212217   1.979   1.693   0.537
 4071TIP3   OH212218   4.538   3.256   2.920
 4071TIP3    H112219   4.494   3.321   2.976
 4071TIP3    H212220   4.629   3.256   2.950
 4072TIP3   OH212221   4.337   4.984   2.112
 4072TIP3    H112222   4.390   5.041   2.055
 4072TIP3    H212223   4.325   5.035   2.192
 4073TIP3   OH212224   4.187   4.040   2.727
 4073TIP3    H112225   4.179   3.986   2.806
 4073TIP3    H212226   4.281   4.038   2.706
 4074TIP3   OH212227   5.998   0.217   1.165
 4074TIP3    H112228   6.088   0.233   1.193
 4074TIP3    H212229   5.945   0.270   1.225
 4075TIP3   OH212230   3.344   3.760   1.550
 4075TIP3    H112231   3.373   3.701   1.619
 4075TIP3    H212232   3.330   3.704   1.474
 4076TIP3   OH212233   1.206   5.677   0.379
 4076TIP3    H112234   1.176   5.652   0.292
 4076TIP3    H212235   1.248   5.598   0.413
 4077TIP3   OH212236   3.054   4.789   0.954
 4077TIP3    H112237   2.974   4.773   0.904
 4077TIP3    H212238   3.047   4.880   0.983
 4078TIP3   OH212239   3.604   1.818   1.979
 4078TIP3    H112240   3.642   1.905   1.973
 4078TIP3    H212241   3.525   1.822   1.925
 4079TIP3   OH212242   3.201   0.152   0.784
 4079TIP3    H112243   3.215   0.147   0.689
 4079TIP3    H212244   3.236   0.070   0.818
 4080TIP3   OH212245   2.652   4.286   2.380
 4080TIP3    H112246   2.590   4.348   2.341
 4080TIP3    H212247   2.601   4.208   2.396
 4081TIP3   OH212248   1.523   5.819   1.072
 4081TIP3    H112249   1.542   5.812   1.166
 4081TIP3    H212250   1.437   5.778   1.062
 4082TIP3   OH212251   3.777   3.285   4.179
 4082TIP3    H112252   3.870   3.301   4.194
 4082TIP3    H212253   3.748   3.358   4.124
 4083TIP3   OH212254   0.982   2.377   2.583
 4083TIP3    H112255   0.993   2.420   2.668
 4083TIP3    H212256   1.038   2.299   2.588
 4084TIP3   OH212257   4.535   4.094   2.903
 4084TIP3    H112258   4.603   4.102   2.971
 4084TIP3    H212259   4.501   4.006   2.915
 4085TIP3   OH212260   1.366   5.803   3.904
 4085TIP3    H112261   1.277   5.837   3.899
 4085TIP3    H212262   1.382   5.791   3.998
 4086TIP3   OH212263   5.179   5.360   4.293
 4086TIP3    H112264   5.232   5.440   4.294
 4086TIP3    H212265   5.241   5.290   4.311
 4087TIP3   OH212266   1.004   1.996   5.214
 4087TIP3    H112267   0.943   2.044   5.160
 4087TIP3    H212268   0.975   2.012   5.304
 4088TIP3   OH212269   6.334   1.270   1.245
 4088TIP3    H112270   6.244   1.291   1.271
 4088TIP3    H212271   6.326   1.187   1.198
 4089TIP3   OH212272   3.697   3.149   2.496
 4089TIP3    H112273   3.758   3.220   2.517
 4089TIP3    H212274   3.632   3.151   2.567
 4090TIP3   OH212275   1.023   0.508   0.470
 4090TIP3    H112276   1.037   0.456   0.548
 4090TIP3    H212277   1.001   0.444   0.402
 4091TIP3   OH212278   2.300   4.513   0.784
 4091TIP3    H112279   2.335   4.568   0.854
 4091TIP3    H212280   2.290   4.426   0.824
 4092TIP3   OH212281   3.081   2.158   5.138
 4092TIP3    H112282   3.043   2.073   5.158
 4092TIP3    H212283   3.026   2.193   5.068
 4093TIP3   OH212284   3.071   0.473   2.214
 4093TIP3    H112285   3.040   0.515   2.133
 4093TIP3    H212286   2.996   0.480   2.274
 4094TIP3   OH212287   5.787   5.595   0.091
 4094TIP3    H112288   5.855   5.661   0.078
 4094TIP3    H212289   5.822   5.516   0.050
 4095TIP3   OH212290   2.262   2.491   4.894
 4095TIP3    H112291   2.342   2.462   4.938
 4095TIP3    H212292   2.279   2.477   4.801
 4096TIP3   OH212293   4.430   2.521   1.233
 4096TIP3    H112294   4.383   2.571   1.166
 4096TIP3    H212295   4.452   2.439   1.190
 4097TIP3   OH212296   2.186   2.504   2.419
 4097TIP3    H112297   2.196   2.546   2.504
 4097TIP3    H212298   2.092   2.499   2.406
 4098TIP3   OH212299   1.108   3.652   0.493
 4098TIP3    H112300   1.124   3.609   0.409
 4098TIP3    H212301   1.054   3.590   0.542
 4099TIP3   OH212302   4.480   5.641   2.401
 4099TIP3    H112303   4.444   5.596   2.479
 4099TIP3    H212304   4.573   5.620   2.403
 4100TIP3   OH212305   2.242   3.846   1.566
 4100TIP3    H112306   2.245   3.871   1.474
 4100TIP3    H212307   2.318   3.888   1.605
 4101TIP3   OH212308   1.895   2.097   1.287
 4101TIP3    H112309   1.831   2.028   1.267
 4101TIP3    H212310   1.841   2.171   1.316
 4102TIP3   OH212311   4.015   5.440   1.136
 4102TIP3    H112312   4.041   5.352   1.163
 4102TIP3    H212313   4.098   5.486   1.123
 4103TIP3   OH212314   1.160   3.264   1.062
 4103TIP3    H112315   1.072   3.250   1.027
 4103TIP3    H212316   1.170   3.197   1.130
 4104TIP3   OH212317   3.891   4.195   1.265
 4104TIP3    H112318   3.845   4.233   1.340
 4104TIP3    H212319   3.821   4.161   1.209
 4105TIP3   OH212320   6.263   2.585   4.702
 4105TIP3    H112321   6.215   2.503   4.692
 4105TIP3    H212322   6.199   2.646   4.739
 4106TIP3   OH212323   0.481   2.185   0.332
 4106TIP3    H112324   0.488   2.091   0.345
 4106TIP3    H212325   0.550   2.206   0.269
 4107TIP3   OH212326   5.587   5.951   1.782
 4107TIP3    H112327   5.645   6.020   1.752
 4107TIP3    H212328   5.590   5.885   1.712
 4108TIP3   OH212329   0.245   4.053   2.825
 4108TIP3    H112330   0.171   4.103   2.791
 4108TIP3    H212331   0.298   4.118   2.872
 4109TIP3   OH212332   2.162   0.512   2.500
 4109TIP3    H112333   2.071   0.505   2.473
 4109TIP3    H212334   2.174   0.442   2.564
 4110TIP3   OH212335   0.741   0.881   3.667
 4110TIP3    H112336   0.699   0.952   3.618
 4110TIP3    H212337   0.823   0.918   3.698
 4111TIP3   OH212338   5.100   5.951   4.370
 4111TIP3    H112339   5.020   5.989   4.334
 4111TIP3    H212340   5.090   5.963   4.465
 4112TIP3   OH212341   1.638   1.042   1.886
 4112TIP3    H112342   1.600   1.002   1.808
 4112TIP3    H212343   1.564   1.086   1.929
 4113TIP3   OH212344   4.438   5.928   1.541
 4113TIP3    H112345   4.394   5.851   1.504
 4113TIP3    H212346   4.387   5.950   1.619
 4114TIP3   OH212347   5.353   4.997   2.005
 4114TIP3    H112348   5.329   4.929   1.942
 4114TIP3    H212349   5.432   4.964   2.047
 4115TIP3   OH212350   1.736   3.130   0.035
 4115TIP3    H112351   1.671   3.200   0.035
 4115TIP3    H212352   1.738   3.101   0.127
 4116TIP3   OH212353   3.506   4.337   1.651
 4116TIP3    H112354   3.487   4.255   1.696
 4116TIP3    H212355   3.424   4.361   1.608
 4117TIP3   OH212356   5.020   1.944   3.814
 4117TIP3    H112357   5.022   2.016   3.877
 4117TIP3    H212358   5.024   1.986   3.728
 4118TIP3   OH212359   1.892   0.449   2.440
 4118TIP3    H112360   1.902   0.507   2.364
 4118TIP3    H212361   1.799   0.427   2.441
 4119TIP3   OH212362   0.418   5.654   3.734
 4119TIP3    H112363   0.406   5.657   3.829
 4119TIP3    H212364   0.379   5.571   3.707
 4120TIP3   OH212365   4.898   0.574   1.906
 4120TIP3    H112366   4.910   0.619   1.822
 4120TIP3    H212367   4.908   0.643   1.972
 4121TIP3   OH212368   4.615   0.172   5.020
 4121TIP3    H112369   4.577   0.141   4.938
 4121TIP3    H212370   4.692   0.222   4.994
 4122TIP3   OH212371   3.857   0.530   4.265
 4122TIP3    H112372   3.934   0.472   4.267
 4122TIP3    H212373   3.789   0.480   4.312
 4123TIP3   OH212374   2.791   0.411   0.094
 4123TIP3    H112375   2.719   0.396   0.033
 4123TIP3    H212376   2.806   0.326   0.135
 4124TIP3   OH212377   2.211   0.896   4.337
 4124TIP3    H112378   2.126   0.902   4.380
 4124TIP3    H212379   2.196   0.931   4.249
 4125TIP3   OH212380   5.084   3.684   3.037
 4125TIP3    H112381   5.050   3.672   2.948
 4125TIP3    H212382   5.173   3.716   3.024
 4126TIP3   OH212383   0.153   3.190   1.170
 4126TIP3    H112384   0.178   3.266   1.223
 4126TIP3    H212385   0.057   3.190   1.172
 4127TIP3   OH212386   3.154   0.969   3.624
 4127TIP3    H112387   3.184   1.042   3.569
 4127TIP3    H212388   3.169   0.999   3.714
 4128TIP3   OH212389   3.969   3.108   2.075
 4128TIP3    H112390   3.967   3.158   2.156
 4128TIP3    H212391   3.978   3.017   2.102
 4129TIP3   OH212392   3.666   5.454   4.660
 4129TIP3    H112393   3.623   5.507   4.592
 4129TIP3    H212394   3.673   5.513   4.735
 4130TIP3   OH212395   1.559   3.851   3.118
 4130TIP3    H112396   1.604   3.781   3.165
 4130TIP3    H212397   1.629   3.902   3.078
 4131TIP3   OH212398   3.684   0.649   1.328
 4131TIP3    H112399   3.729   0.574   1.366
 4131TIP3    H212400   3.608   0.663   1.385
 4132TIP3   OH212401   2.731   4.764   4.712
 4132TIP3    H112402   2.822   4.790   4.727
 4132TIP3    H212403   2.698   4.830   4.651
 4133TIP3   OH212404   4.630   1.694   0.981
 4133TIP3    H112405   4.717   1.712   0.944
 4133TIP3    H212406   4.603   1.611   0.942
 4134TIP3   OH212407   5.105   5.584   2.028
 4134TIP3    H112408   5.085   5.649   1.961
 4134TIP3    H212409   5.194   5.605   2.056
 4135TIP3   OH212410   2.341   4.099   0.235
 4135TIP3    H112411   2.253   4.062   0.242
 4135TIP3    H212412   2.367   4.084   0.144
 4136TIP3   OH212413   1.480   2.932   3.687
 4136TIP3    H112414   1.567   2.904   3.716
 4136TIP3    H212415   1.491   2.951   3.594
 4137TIP3   OH212416   2.600   3.289   2.613
 4137TIP3    H112417   2.650   3.370   2.615
 4137TIP3    H212418   2.510   3.316   2.595
 4138TIP3   OH212419   4.592   3.273   5.244
 4138TIP3    H112420   4.619   3.233   5.161
 4138TIP3    H212421   4.570   3.363   5.222
 4139TIP3   OH212422   3.324   2.700   3.297
 4139TIP3    H112423   3.330   2.682   3.203
 4139TIP3    H212424   3.323   2.614   3.338
 4140TIP3   OH212425   4.930   3.421   1.893
 4140TIP3    H112426   4.951   3.377   1.810
 4140TIP3    H212427   4.851   3.376   1.924
 4141TIP3   OH212428   5.037   2.964   0.768
 4141TIP3    H112429   4.985   2.886   0.750
 4141TIP3    H212430   4.995   3.033   0.718
 4142TIP3   OH212431   4.742   3.278   1.655
 4142TIP3    H112432   4.832   3.310   1.652
 4142TIP3    H212433   4.744   3.197   1.604
 4143TIP3   OH212434   1.826   1.822   2.689
 4143TIP3    H112435   1.892   1.882   2.724
 4143TIP3    H212436   1.815   1.756   2.757
 4144TIP3   OH212437   3.195   3.663   2.215
 4144TIP3    H112438   3.264   3.611   2.257
 4144TIP3    H212439   3.157   3.603   2.151
 4145TIP3   OH212440   3.911   2.111   4.814
 4145TIP3    H112441   3.987   2.054   4.822
 4145TIP3    H212442   3.944   2.189   4.770
 4146TIP3   OH212443   1.333   3.729   0.920
 4146TIP3    H112444   1.336   3.725   0.824
 4146TIP3    H212445   1.262   3.670   0.945
 4147TIP3   OH212446   1.673   4.869   3.465
 4147TIP3    H112447   1.763   4.901   3.465
 4147TIP3    H212448   1.675   4.794   3.524
 4148TIP3   OH212449   5.063   1.514   2.443
 4148TIP3    H112450   5.007   1.553   2.510
 4148TIP3    H212451   5.060   1.420   2.460
 4149TIP3   OH212452   1.533   2.520   2.144
 4149TIP3    H112453   1.563   2.511   2.234
 4149TIP3    H212454   1.539   2.613   2.125
 4150TIP3   OH212455   1.582   1.681   1.322
 4150TIP3    H112456   1.487   1.682   1.308
 4150TIP3    H212457   1.616   1.620   1.257
 4151TIP3   OH212458   0.827   1.614   2.376
 4151TIP3    H112459   0.790   1.529   2.400
 4151TIP3    H212460   0.751   1.669   2.360
 4152TIP3   OH212461   5.283   4.016   3.975
 4152TIP3    H112462   5.325   4.099   3.955
 4152TIP3    H212463   5.192   4.028   3.947
 4153TIP3   OH212464   3.031   2.686   3.317
 4153TIP3    H112465   3.004   2.747   3.249
 4153TIP3    H212466   3.125   2.698   3.325
 4154TIP3   OH212467   3.510   3.838   3.387
 4154TIP3    H112468   3.533   3.802   3.302
 4154TIP3    H212469   3.572   3.910   3.401
 4155TIP3   OH212470   2.907   4.529   1.246
 4155TIP3    H112471   2.895   4.496   1.158
 4155TIP3    H212472   2.863   4.614   1.246
 4156TIP3   OH212473   2.715   2.558   2.802
 4156TIP3    H112474   2.780   2.595   2.743
 4156TIP3    H212475   2.634   2.604   2.780
 4157TIP3   OH212476   2.530   4.516   1.132
 4157TIP3    H112477   2.501   4.439   1.183
 4157TIP3    H212478   2.610   4.488   1.089
 4158TIP3   OH212479   1.317   5.917   1.332
 4158TIP3    H112480   1.232   5.874   1.323
 4158TIP3    H212481   1.355   5.879   1.411
 4159TIP3   OH212482   2.909   1.382   3.180
 4159TIP3    H112483   2.937   1.291   3.193
 4159TIP3    H212484   2.982   1.423   3.134
 4160TIP3   OH212485   6.094   4.932   3.972
 4160TIP3    H112486   6.140   4.958   4.052
 4160TIP3    H212487   6.164   4.925   3.907
 4161TIP3   OH212488   5.070   3.111   4.931
 4161TIP3    H112489   5.161   3.128   4.955
 4161TIP3    H212490   5.064   3.137   4.839
 4162TIP3   OH212491   1.022   0.215   3.211
 4162TIP3    H112492   1.058   0.269   3.281
 4162TIP3    H212493   0.938   0.184   3.245
 4163TIP3   OH212494   1.010   3.828   1.918
 4163TIP3    H112495   0.955   3.880   1.860
 4163TIP3    H212496   1.086   3.884   1.937
 4164TIP3   OH212497   4.590   4.586   2.277
 4164TIP3    H112498   4.658   4.617   2.337
 4164TIP3    H212499   4.516   4.643   2.293
 4165TIP3   OH212500   5.924   5.758   2.969
 4165TIP3    H112501   5.952   5.846   2.994
 4165TIP3    H212502   5.834   5.751   2.999
 4166TIP3   OH212503   1.024   5.479   4.816
 4166TIP3    H112504   0.950   5.536   4.837
 4166TIP3    H212505   1.101   5.528   4.845
 4167TIP3   OH212506   5.067   5.203   2.880
 4167TIP3    H112507   4.978   5.236   2.864
 4167TIP3    H212508   5.099   5.255   2.953
 4168TIP3   OH212509   6.018   2.829   3.698
 4168TIP3    H112510   6.055   2.873   3.774
 4168TIP3    H212511   6.093   2.803   3.646
 4169TIP3   OH212512   2.117   3.795   5.057
 4169TIP3    H112513   2.099   3.705   5.029
 4169TIP3    H212514   2.031   3.838   5.056
 4170TIP3   OH212515   6.191   2.450   3.127
 4170TIP3    H112516   6.158   2.362   3.108
 4170TIP3    H212517   6.249   2.439   3.202
 4171TIP3   OH212518   4.151   5.935   2.226
 4171TIP3    H112519   4.156   5.898   2.314
 4171TIP3    H212520   4.240   5.929   2.191
 4172TIP3   OH212521   2.936   3.350   4.035
 4172TIP3    H112522   3.002   3.382   4.097
 4172TIP3    H212523   2.965   3.263   4.011
 4173TIP3   OH212524   1.695   4.526   4.718
 4173TIP3    H112525   1.770   4.495   4.769
 4173TIP3    H212526   1.686   4.462   4.647
 4174TIP3   OH212527   4.297   1.865   2.827
 4174TIP3    H112528   4.330   1.936   2.882
 4174TIP3    H212529   4.357   1.862   2.753
 4175TIP3   OH212530   1.921   1.665   0.252
 4175TIP3    H112531   1.979   1.590   0.241
 4175TIP3    H212532   1.861   1.661   0.177
 4176TIP3   OH212533   0.462   2.908   4.591
 4176TIP3    H112534   0.506   2.988   4.621
 4176TIP3    H212535   0.487   2.842   4.656
 4177TIP3   OH212536   1.217   5.133   0.798
 4177TIP3    H112537   1.235   5.122   0.892
 4177TIP3    H212538   1.151   5.067   0.779
 4178TIP3   OH212539   4.391   2.124   2.906
 4178TIP3    H112540   4.316   2.146   2.850
 4178TIP3    H212541   4.463   2.177   2.873
 4179TIP3   OH212542   6.150   0.634   1.600
 4179TIP3    H112543   6.225   0.575   1.609
 4179TIP3    H212544   6.085   0.598   1.661
 4180TIP3   OH212545   5.085   2.727   4.032
 4180TIP3    H112546   4.994   2.733   4.061
 4180TIP3    H212547   5.089   2.786   3.956
 4181TIP3   OH212548   2.749   1.027   1.498
 4181TIP3    H112549   2.810   1.056   1.430
 4181TIP3    H212550   2.783   1.066   1.579
 4182TIP3   OH212551   4.979   1.443   1.726
 4182TIP3    H112552   5.021   1.422   1.643
 4182TIP3    H212553   4.897   1.487   1.701
 4183TIP3   OH212554   5.215   1.143   2.760
 4183TIP3    H112555   5.234   1.154   2.854
 4183TIP3    H212556   5.162   1.064   2.755
 4184TIP3   OH212557   0.560   0.477   3.522
 4184TIP3    H112558   0.613   0.555   3.503
 4184TIP3    H212559   0.584   0.452   3.611
 4185TIP3   OH212560   5.919   4.530   2.643
 4185TIP3    H112561   5.921   4.437   2.621
 4185TIP3    H212562   5.893   4.573   2.561
 4186TIP3   OH212563   4.593   2.948   1.272
 4186TIP3    H112564   4.544   2.888   1.327
 4186TIP3    H212565   4.641   2.892   1.211
 4187TIP3   OH212566   2.976   3.462   4.394
 4187TIP3    H112567   2.961   3.515   4.316
 4187TIP3    H212568   2.949   3.517   4.467
 4188TIP3   OH212569   1.513   3.519   4.234
 4188TIP3    H112570   1.539   3.600   4.191
 4188TIP3    H212571   1.577   3.507   4.303
 4189TIP3   OH212572   1.545   0.704   2.788
 4189TIP3    H112573   1.616   0.718   2.726
 4189TIP3    H212574   1.588   0.692   2.873
 4190TIP3   OH212575   5.024   1.966   4.247
 4190TIP3    H112576   4.988   1.889   4.203
 4190TIP3    H212577   4.981   2.040   4.205
 4191TIP3   OH212578   4.344   5.925   2.495
 4191TIP3    H112579   4.346   5.832   2.475
 4191TIP3    H212580   4.367   5.968   2.412
 4192TIP3   OH212581   2.188   2.491   4.237
 4192TIP3    H112582   2.222   2.562   4.292
 4192TIP3    H212583   2.251   2.420   4.247
 4193TIP3   OH212584   3.596   0.403   0.467
 4193TIP3    H112585   3.533   0.427   0.534
 4193TIP3    H212586   3.569   0.316   0.438
 4194TIP3   OH212587   4.583   0.973   2.758
 4194TIP3    H112588   4.590   0.881   2.734
 4194TIP3    H212589   4.500   1.002   2.721
 4195TIP3   OH212590   4.868   2.756   3.103
 4195TIP3    H112591   4.905   2.830   3.054
 4195TIP3    H212592   4.781   2.743   3.065
 4196TIP3   OH212593   1.609   2.957   0.749
 4196TIP3    H112594   1.607   3.038   0.699
 4196TIP3    H212595   1.543   2.970   0.817
 4197TIP3   OH212596   1.385   5.435   1.503
 4197TIP3    H112597   1.399   5.377   1.578
 4197TIP3    H212598   1.305   5.482   1.524
 4198TIP3   OH212599   0.229   5.935   2.674
 4198TIP3    H112600   0.147   5.958   2.631
 4198TIP3    H212601   0.223   5.841   2.689
 4199TIP3   OH212602   6.184   1.753   4.675
 4199TIP3    H112603   6.253   1.700   4.716
 4199TIP3    H212604   6.112   1.750   4.737
 4200TIP3   OH212605   5.598   0.736   3.002
 4200TIP3    H112606   5.586   0.641   3.010
 4200TIP3    H212607   5.558   0.772   3.081
 4201TIP3   OH212608   5.611   1.392   0.138
 4201TIP3    H112609   5.596   1.335   0.215
 4201TIP3    H212610   5.523   1.414   0.107
 4202TIP3   OH212611   0.327   3.679   1.123
 4202TIP3    H112612   0.308   3.614   1.056
 4202TIP3    H212613   0.402   3.728   1.089
 4203TIP3   OH212614   5.020   3.276   1.688
 4203TIP3    H112615   4.992   3.185   1.696
 4203TIP3    H212616   5.114   3.270   1.668
 4204TIP3   OH212617   3.764   5.177   1.285
 4204TIP3    H112618   3.787   5.270   1.279
 4204TIP3    H212619   3.790   5.152   1.373
 4205TIP3   OH212620   4.780   4.826   0.200
 4205TIP3    H112621   4.690   4.802   0.179
 4205TIP3    H212622   4.819   4.746   0.235
 4206TIP3   OH212623   3.153   0.844   3.019
 4206TIP3    H112624   3.102   0.775   3.061
 4206TIP3    H212625   3.089   0.892   2.967
 4207TIP3   OH212626   3.002   5.835   2.315
 4207TIP3    H112627   3.033   5.761   2.263
 4207TIP3    H212628   2.906   5.826   2.313
 4208TIP3   OH212629   3.999   3.600  -0.012
 4208TIP3    H112630   3.912   3.640  -0.007
 4208TIP3    H212631   4.052   3.651   0.049
 4209TIP3   OH212632   5.717   4.110   0.468
 4209TIP3    H112633   5.721   4.184   0.408
 4209TIP3    H212634   5.640   4.060   0.441
 4210TIP3   OH212635   2.507   0.980   4.948
 4210TIP3    H112636   2.519   0.948   5.037
 4210TIP3    H212637   2.413   0.996   4.940
 4211TIP3   OH212638   3.108   0.655   1.300
 4211TIP3    H112639   3.038   0.658   1.365
 4211TIP3    H212640   3.063   0.633   1.218
 4212TIP3   OH212641   3.738   4.660   4.928
 4212TIP3    H112642   3.741   4.565   4.918
 4212TIP3    H212643   3.702   4.691   4.844
 4213TIP3   OH212644   2.329   2.257   4.338
 4213TIP3    H112645   2.422   2.235   4.346
 4213TIP3    H212646   2.296   2.197   4.271
 4214TIP3   OH212647   1.973   5.947   2.651
 4214TIP3    H112648   1.911   5.878   2.627
 4214TIP3    H212649   2.041   5.942   2.584
 4215TIP3   OH212650   4.345   3.563   3.962
 4215TIP3    H112651   4.432   3.602   3.968
 4215TIP3    H212652   4.343   3.499   4.033
 4216TIP3   OH212653   3.649   2.955   5.082
 4216TIP3    H112654   3.640   2.861   5.069
 4216TIP3    H212655   3.743   2.969   5.096
 4217TIP3   OH212656   6.135   3.996   2.519
 4217TIP3    H112657   6.201   4.065   2.528
 4217TIP3    H212658   6.180   3.916   2.545
 4218TIP3   OH212659   1.454   1.179   2.677
 4218TIP3    H112660   1.381   1.118   2.677
 4218TIP3    H212661   1.425   1.251   2.734
 4219TIP3   OH212662   0.981   1.549   4.319
 4219TIP3    H112663   0.968   1.572   4.411
 4219TIP3    H212664   1.076   1.553   4.307
 4220TIP3   OH212665   0.470   3.920   2.748
 4220TIP3    H112666   0.399   3.983   2.765
 4220TIP3    H212667   0.536   3.940   2.814
 4221TIP3   OH212668   3.383   5.760   2.976
 4221TIP3    H112669   3.301   5.716   2.997
 4221TIP3    H212670   3.446   5.689   2.961
 4222TIP3   OH212671   5.986   3.271   2.632
 4222TIP3    H112672   6.022   3.246   2.548
 4222TIP3    H212673   5.918   3.335   2.611
 4223TIP3   OH212674   0.258   1.061   1.299
 4223TIP3    H112675   0.325   1.050   1.366
 4223TIP3    H212676   0.176   1.039   1.343
 4224TIP3   OH212677   3.421   5.866   1.909
 4224TIP3    H112678   3.514   5.888   1.903
 4224TIP3    H212679   3.380   5.914   1.837
 4225TIP3   OH212680   5.534   5.556   1.175
 4225TIP3    H112681   5.479   5.607   1.235
 4225TIP3    H212682   5.584   5.621   1.127
 4226TIP3   OH212683   2.056   3.347   2.356
 4226TIP3    H112684   2.037   3.344   2.450
 4226TIP3    H212685   2.065   3.255   2.331
 4227TIP3   OH212686   5.007   4.111   4.094
 4227TIP3    H112687   4.950   4.130   4.169
 4227TIP3    H212688   5.032   4.196   4.060
 4228TIP3   OH212689   5.118   5.000   0.852
 4228TIP3    H112690   5.128   5.087   0.890
 4228TIP3    H212691   5.205   4.976   0.821
 4229TIP3   OH212692   3.501   1.877   0.687
 4229TIP3    H112693   3.515   1.789   0.654
 4229TIP3    H212694   3.406   1.887   0.692
 4230TIP3   OH212695   6.295   5.122   0.728
 4230TIP3    H112696   6.214   5.072   0.725
 4230TIP3    H212697   6.361   5.060   0.760
 4231TIP3   OH212698   6.286   0.389   3.212
 4231TIP3    H112699   6.317   0.300   3.198
 4231TIP3    H212700   6.231   0.383   3.291
 4232TIP3   OH212701   6.064   3.453   3.218
 4232TIP3    H112702   6.040   3.422   3.131
 4232TIP3    H212703   5.992   3.423   3.274
 4233TIP3   OH212704   2.965   6.014   0.046
 4233TIP3    H112705   3.045   6.028   0.097
 4233TIP3    H212706   2.972   5.924   0.015
 4234TIP3   OH212707   2.455   0.988   2.022
 4234TIP3    H112708   2.403   0.911   1.998
 4234TIP3    H212709   2.458   0.985   2.118
 4235TIP3   OH212710   2.329   1.057   3.282
 4235TIP3    H112711   2.352   0.964   3.289
 4235TIP3    H212712   2.325   1.087   3.372
 4236TIP3   OH212713   5.337   0.807   1.730
 4236TIP3    H112714   5.305   0.891   1.763
 4236TIP3    H212715   5.261   0.750   1.732
 4237TIP3   OH212716   2.454   4.195   3.857
 4237TIP3    H112717   2.549   4.207   3.849
 4237TIP3    H212718   2.441   4.101   3.844
 4238TIP3   OH212719   1.857   1.078   3.762
 4238TIP3    H112720   1.771   1.101   3.795
 4238TIP3    H212721   1.870   1.137   3.687
 4239TIP3   OH212722   4.814   0.441   3.793
 4239TIP3    H112723   4.774   0.483   3.716
 4239TIP3    H212724   4.741   0.399   3.838
 4240TIP3   OH212725   1.541   1.326   3.077
 4240TIP3    H112726   1.598   1.396   3.110
 4240TIP3    H212727   1.599   1.270   3.026
 4241TIP3   OH212728   0.708   3.843   1.356
 4241TIP3    H112729   0.770   3.803   1.295
 4241TIP3    H212730   0.629   3.790   1.347
 4242TIP3   OH212731   5.857   2.310   2.511
 4242TIP3    H112732   5.895   2.225   2.531
 4242TIP3    H212733   5.849   2.354   2.596
 4243TIP3   OH212734   0.921   4.106   1.127
 4243TIP3    H112735   0.829   4.079   1.132
 4243TIP3    H212736   0.946   4.089   1.037
 4244TIP3   OH212737   3.772   3.521   2.571
 4244TIP3    H112738   3.819   3.567   2.501
 4244TIP3    H212739   3.833   3.453   2.600
 4245TIP3   OH212740   4.118   2.807   1.862
 4245TIP3    H112741   4.042   2.837   1.912
 4245TIP3    H212742   4.136   2.878   1.800
 4246TIP3   OH212743   0.248   5.808   3.562
 4246TIP3    H112744   0.263   5.900   3.583
 4246TIP3    H212745   0.330   5.764   3.586
 4247TIP3   OH212746   0.124   4.456   4.377
 4247TIP3    H112747   0.034   4.486   4.362
 4247TIP3    H212748   0.118   4.361   4.375
 4248TIP3   OH212749   5.848   5.000   0.368
 4248TIP3    H112750   5.839   4.945   0.291
 4248TIP3    H212751   5.780   5.066   0.359
 4249TIP3   OH212752   1.103   5.497   3.379
 4249TIP3    H112753   1.029   5.493   3.318
 4249TIP3    H212754   1.077   5.563   3.443
 4250TIP3   OH212755   2.009   3.789   0.910
 4250TIP3    H112756   2.064   3.862   0.939
 4250TIP3    H212757   2.018   3.789   0.815
 4251TIP3   OH212758   3.910   0.693   4.828
 4251TIP3    H112759   3.998   0.726   4.811
 4251TIP3    H212760   3.863   0.705   4.746
 4252TIP3   OH212761   5.317   5.619   2.899
 4252TIP3    H112762   5.299   5.586   2.811
 4252TIP3    H212763   5.273   5.557   2.957
 4253TIP3   OH212764   5.169   1.258   2.380
 4253TIP3    H112765   5.214   1.231   2.299
 4253TIP3    H212766   5.232   1.239   2.450
 4254TIP3   OH212767   2.466   2.856   0.415
 4254TIP3    H112768   2.482   2.822   0.327
 4254TIP3    H212769   2.501   2.945   0.413
 4255TIP3   OH212770   5.319   4.451   0.290
 4255TIP3    H112771   5.240   4.502   0.274
 4255TIP3    H212772   5.301   4.403   0.371
 4256TIP3   OH212773   5.764   0.888   0.717
 4256TIP3    H112774   5.790   0.899   0.625
 4256TIP3    H212775   5.780   0.795   0.735
 4257TIP3   OH212776   4.824   5.389   2.371
 4257TIP3    H112777   4.812   5.479   2.342
 4257TIP3    H212778   4.737   5.362   2.401
 4258TIP3   OH212779   1.020   2.581   2.407
 4258TIP3    H112780   1.029   2.528   2.486
 4258TIP3    H212781   1.028   2.671   2.438
 4259TIP3   OH212782   4.878   1.871   3.432
 4259TIP3    H112783   4.867   1.952   3.383
 4259TIP3    H212784   4.969   1.874   3.462
 4260TIP3   OH212785   5.586   1.218   1.868
 4260TIP3    H112786   5.635   1.151   1.915
 4260TIP3    H212787   5.648   1.290   1.857
 4261TIP3   OH212788   2.856   1.379   0.677
 4261TIP3    H112789   2.911   1.457   0.668
 4261TIP3    H212790   2.892   1.317   0.614
 4262TIP3   OH212791   5.538   0.751   0.212
 4262TIP3    H112792   5.610   0.777   0.154
 4262TIP3    H212793   5.474   0.712   0.153
 4263TIP3   OH212794   0.900   5.774   0.391
 4263TIP3    H112795   0.890   5.687   0.430
 4263TIP3    H212796   0.994   5.791   0.394
 4264TIP3   OH212797   4.697   2.510   1.421
 4264TIP3    H112798   4.622   2.504   1.363
 4264TIP3    H212799   4.769   2.470   1.373
 4265TIP3   OH212800   0.159   3.499   2.139
 4265TIP3    H112801   0.197   3.430   2.084
 4265TIP3    H212802   0.070   3.470   2.157
 4266TIP3   OH212803   2.277   2.159   4.599
 4266TIP3    H112804   2.260   2.183   4.507
 4266TIP3    H212805   2.232   2.226   4.650
 4267TIP3   OH212806   6.233   2.881   3.045
 4267TIP3    H112807   6.291   2.956   3.061
 4267TIP3    H212808   6.290   2.805   3.050
 4268TIP3   OH212809   4.276   3.062   4.848
 4268TIP3    H112810   4.338   3.023   4.909
 4268TIP3    H212811   4.307   3.037   4.762
 4269TIP3   OH212812   0.431   3.365   4.771
 4269TIP3    H112813   0.341   3.358   4.739
 4269TIP3    H212814   0.425   3.419   4.850
 4270TIP3   OH212815   4.799   2.416   2.446
 4270TIP3    H112816   4.862   2.391   2.379
 4270TIP3    H212817   4.847   2.407   2.529
 4271TIP3   OH212818   2.467   4.523   5.184
 4271TIP3    H112819   2.557   4.512   5.213
 4271TIP3    H212820   2.414   4.492   5.258
 4272TIP3   OH212821   1.603   2.902   4.118
 4272TIP3    H112822   1.629   2.992   4.099
 4272TIP3    H212823   1.508   2.900   4.102
 4273TIP3   OH212824   2.434   0.059   1.920
 4273TIP3    H112825   2.379   0.035   1.846
 4273TIP3    H212826   2.429   0.155   1.923
 4274TIP3   OH212827   4.059   5.411   3.522
 4274TIP3    H112828   4.085   5.497   3.555
 4274TIP3    H212829   4.039   5.360   3.601
 4275TIP3   OH212830   1.791   4.915   1.902
 4275TIP3    H112831   1.806   4.868   1.984
 4275TIP3    H212832   1.846   4.871   1.838
 4276TIP3   OH212833   3.902   0.754   1.855
 4276TIP3    H112834   3.879   0.706   1.934
 4276TIP3    H212835   3.986   0.718   1.829
 4277TIP3   OH212836   5.146   2.840   4.826
 4277TIP3    H112837   5.054   2.866   4.815
 4277TIP3    H212838   5.184   2.850   4.738
 4278TIP3   OH212839   4.725   2.084   1.222
 4278TIP3    H112840   4.754   2.117   1.307
 4278TIP3    H212841   4.804   2.082   1.168
 4279TIP3   OH212842   1.376   0.285   0.265
 4279TIP3    H112843   1.344   0.199   0.239
 4279TIP3    H212844   1.459   0.295   0.218
 4280TIP3   OH212845   5.115   0.552   0.404
 4280TIP3    H112846   5.117   0.469   0.453
 4280TIP3    H212847   5.206   0.577   0.395
 4281TIP3   OH212848   2.155   5.872   1.997
 4281TIP3    H112849   2.186   5.782   1.989
 4281TIP3    H212850   2.182   5.914   1.915
 4282TIP3   OH212851   0.983   2.867   4.246
 4282TIP3    H112852   0.973   2.959   4.269
 4282TIP3    H212853   1.020   2.868   4.158
 4283TIP3   OH212854   4.530   1.136   3.217
 4283TIP3    H112855   4.589   1.066   3.246
 4283TIP3    H212856   4.469   1.148   3.290
 4284TIP3   OH212857   2.487   0.285   3.003
 4284TIP3    H112858   2.497   0.351   3.071
 4284TIP3    H212859   2.572   0.240   3.000
 4285TIP3   OH212860   4.917   4.105   1.546
 4285TIP3    H112861   4.907   4.031   1.605
 4285TIP3    H212862   4.928   4.181   1.604
 4286TIP3   OH212863   1.892   0.839   3.616
 4286TIP3    H112864   1.940   0.889   3.550
 4286TIP3    H212865   1.878   0.901   3.688
 4287TIP3   OH212866   1.148   2.467   1.949
 4287TIP3    H112867   1.124   2.553   1.914
 4287TIP3    H212868   1.107   2.404   1.889
 4288TIP3   OH212869   2.773   1.248   0.919
 4288TIP3    H112870   2.770   1.313   0.989
 4288TIP3    H212871   2.814   1.294   0.845
 4289TIP3   OH212872   2.277   2.868   0.908
 4289TIP3    H112873   2.370   2.889   0.918
 4289TIP3    H212874   2.272   2.818   0.826
 4290TIP3   OH212875   2.926   3.050   3.948
 4290TIP3    H112876   2.909   2.956   3.940
 4290TIP3    H212877   2.870   3.079   4.020
 4291TIP3   OH212878   0.176   4.195   0.437
 4291TIP3    H112879   0.146   4.132   0.502
 4291TIP3    H212880   0.198   4.142   0.360
 4292TIP3   OH212881   1.602   2.465   4.215
 4292TIP3    H112882   1.567   2.408   4.283
 4292TIP3    H212883   1.613   2.550   4.258
 4293TIP3   OH212884   1.397   2.153   4.172
 4293TIP3    H112885   1.473   2.099   4.151
 4293TIP3    H212886   1.431   2.224   4.226
 4294TIP3   OH212887   4.316   1.413   2.871
 4294TIP3    H112888   4.232   1.407   2.917
 4294TIP3    H212889   4.357   1.328   2.886
 4295TIP3   OH212890   5.586   0.602   2.022
 4295TIP3    H112891   5.514   0.582   2.081
 4295TIP3    H212892   5.584   0.531   1.957
 4296TIP3   OH212893   3.837   4.264   0.337
 4296TIP3    H112894   3.925   4.278   0.372
 4296TIP3    H212895   3.780   4.320   0.390
 4297TIP3   OH212896   5.238   4.140   1.204
 4297TIP3    H112897   5.327   4.166   1.182
 4297TIP3    H212898   5.203   4.213   1.255
 4298TIP3   OH212899   0.607   1.628   4.890
 4298TIP3    H112900   0.653   1.561   4.940
 4298TIP3    H212901   0.583   1.584   4.808
 4299TIP3   OH212902   0.256   1.028   3.821
 4299TIP3    H112903   0.201   1.100   3.850
 4299TIP3    H212904   0.263   1.039   3.726
 4300TIP3   OH212905   4.493   2.629   4.491
 4300TIP3    H112906   4.486   2.594   4.579
 4300TIP3    H212907   4.411   2.676   4.477
 4301TIP3   OH212908   0.353   4.850   4.021
 4301TIP3    H112909   0.385   4.772   3.976
 4301TIP3    H212910   0.430   4.907   4.028
 4302TIP3   OH212911   0.175  -0.047   2.141
 4302TIP3    H112912   0.212   0.029   2.186
 4302TIP3    H212913   0.240  -0.069   2.074
 4303TIP3   OH212914   3.366   0.665   2.915
 4303TIP3    H112915   3.336   0.579   2.944
 4303TIP3    H212916   3.290   0.723   2.929
 4304TIP3   OH212917   1.836   3.595   3.553
 4304TIP3    H112918   1.772   3.655   3.592
 4304TIP3    H212919   1.898   3.652   3.508
 4305TIP3   OH212920   2.677   3.979   2.748
 4305TIP3    H112921   2.605   4.016   2.801
 4305TIP3    H212922   2.646   3.988   2.657
 4306TIP3   OH212923   4.040   0.267   2.548
 4306TIP3    H112924   4.043   0.172   2.564
 4306TIP3    H212925   4.023   0.275   2.454
 4307TIP3   OH212926   0.147   4.808   3.387
 4307TIP3    H112927   0.204   4.885   3.381
 4307TIP3    H212928   0.208   4.734   3.392
 4308TIP3   OH212929   4.320   3.631   2.890
 4308TIP3    H112930   4.411   3.602   2.883
 4308TIP3    H212931   4.303   3.676   2.807
 4309TIP3   OH212932   4.942   3.740   0.894
 4309TIP3    H112933   5.014   3.718   0.953
 4309TIP3    H212934   4.909   3.823   0.928
 4310TIP3   OH212935   6.118   2.927   3.944
 4310TIP3    H112936   6.099   2.990   4.012
 4310TIP3    H212937   6.193   2.963   3.897
 4311TIP3   OH212938   1.229   1.937   4.031
 4311TIP3    H112939   1.305   1.956   4.086
 4311TIP3    H212940   1.259   1.871   3.970
 4312TIP3   OH212941   3.746   0.816   0.813
 4312TIP3    H112942   3.678   0.831   0.880
 4312TIP3    H212943   3.816   0.877   0.837
 4313TIP3   OH212944   3.499   1.812   3.582
 4313TIP3    H112945   3.496   1.719   3.562
 4313TIP3    H212946   3.460   1.855   3.506
 4314TIP3   OH212947   0.701   4.659   3.190
 4314TIP3    H112948   0.720   4.751   3.207
 4314TIP3    H212949   0.650   4.660   3.109
 4315TIP3   OH212950   3.721   1.307   0.281
 4315TIP3    H112951   3.764   1.221   0.280
 4315TIP3    H212952   3.784   1.365   0.324
 4316TIP3   OH212953   5.868   1.035   2.768
 4316TIP3    H112954   5.922   1.076   2.835
 4316TIP3    H212955   5.879   0.941   2.781
 4317TIP3   OH212956   2.498   5.796   1.277
 4317TIP3    H112957   2.552   5.866   1.312
 4317TIP3    H212958   2.414   5.838   1.257
 4318TIP3   OH212959   4.535   4.100   1.174
 4318TIP3    H112960   4.487   4.162   1.229
 4318TIP3    H212961   4.607   4.069   1.230
 4319TIP3   OH212962   0.089   3.298   4.896
 4319TIP3    H112963  -0.003   3.322   4.904
 4319TIP3    H212964   0.089   3.224   4.836
 4320TIP3   OH212965   3.980   2.028   4.014
 4320TIP3    H112966   4.069   2.049   4.043
 4320TIP3    H212967   3.947   2.109   3.976
 4321TIP3   OH212968   2.358   0.094   2.204
 4321TIP3    H112969   2.358   0.032   2.277
 4321TIP3    H212970   2.391   0.043   2.130
 4322TIP3   OH212971   6.142   3.930   1.164
 4322TIP3    H112972   6.081   3.882   1.220
 4322TIP3    H212973   6.225   3.885   1.176
 4323TIP3   OH212974   1.679   3.813   2.349
 4323TIP3    H112975   1.614   3.795   2.281
 4323TIP3    H212976   1.762   3.786   2.311
 4324TIP3   OH212977   2.601   5.985   3.647
 4324TIP3    H112978   2.599   5.889   3.649
 4324TIP3    H212979   2.510   6.011   3.661
 4325TIP3   OH212980   1.997   4.805   3.483
 4325TIP3    H112981   2.040   4.806   3.568
 4325TIP3    H212982   2.017   4.891   3.445
 4326TIP3   OH212983   1.664   5.160   0.850
 4326TIP3    H112984   1.759   5.175   0.843
 4326TIP3    H212985   1.646   5.090   0.787
 4327TIP3   OH212986   2.279   2.161   1.765
 4327TIP3    H112987   2.260   2.145   1.858
 4327TIP3    H212988   2.374   2.154   1.758
 4328TIP3   OH212989   1.858   1.133   0.510
 4328TIP3    H112990   1.928   1.095   0.457
 4328TIP3    H212991   1.799   1.060   0.528
 4329TIP3   OH212992   5.012   2.125   2.669
 4329TIP3    H112993   5.050   2.107   2.583
 4329TIP3    H212994   5.067   2.195   2.705
 4330TIP3   OH212995   3.900   1.683   2.521
 4330TIP3    H112996   3.830   1.629   2.558
 4330TIP3    H212997   3.897   1.764   2.572
 4331TIP3   OH212998   0.493   1.428   1.098
 4331TIP3    H112999   0.549   1.363   1.141
 4331TIP3    H213000   0.405   1.409   1.130
 4332TIP3   OH213001   0.483   0.135   4.956
 4332TIP3    H113002   0.527   0.078   5.020
 4332TIP3    H213003   0.555   0.168   4.901
 4333TIP3   OH213004   5.089   1.889   2.123
 4333TIP3    H113005   4.993   1.883   2.128
 4333TIP3    H213006   5.105   1.955   2.056
 4334TIP3   OH213007   3.503   5.594   1.635
 4334TIP3    H113008   3.543   5.679   1.653
 4334TIP3    H213009   3.574   5.541   1.598
 4335TIP3   OH213010   5.121   2.009   2.439
 4335TIP3    H113011   5.200   1.955   2.442
 4335TIP3    H213012   5.065   1.965   2.375
 4336TIP3   OH213013   2.948   3.677   2.434
 4336TIP3    H113014   2.968   3.694   2.341
 4336TIP3    H213015   3.013   3.728   2.482
 4337TIP3   OH213016   5.335   5.137   2.418
 4337TIP3    H113017   5.351   5.176   2.503
 4337TIP3    H213018   5.261   5.185   2.382
 4338TIP3   OH213019   2.439   1.520   0.034
 4338TIP3    H113020   2.357   1.556  -0.002
 4338TIP3    H213021   2.460   1.578   0.107
 4339TIP3   OH213022   6.056   1.488   4.196
 4339TIP3    H113023   5.989   1.554   4.180
 4339TIP3    H213024   6.007   1.406   4.202
 4340TIP3   OH213025   3.214   0.797   0.652
 4340TIP3    H113026   3.206   0.720   0.597
 4340TIP3    H213027   3.141   0.853   0.625
 4341TIP3   OH213028   4.789   2.316   5.086
 4341TIP3    H113029   4.877   2.288   5.061
 4341TIP3    H213030   4.731   2.263   5.032
 4342TIP3   OH213031   2.290   2.050   2.657
 4342TIP3    H113032   2.379   2.027   2.631
 4342TIP3    H213033   2.285   2.145   2.642
 4343TIP3   OH213034   5.671   5.189   4.403
 4343TIP3    H113035   5.601   5.246   4.436
 4343TIP3    H213036   5.692   5.223   4.317
 4344TIP3   OH213037   5.074   4.842   4.298
 4344TIP3    H113038   5.153   4.814   4.345
 4344TIP3    H213039   5.106   4.883   4.218
 4345TIP3   OH213040   5.235   4.719   0.666
 4345TIP3    H113041   5.221   4.749   0.756
 4345TIP3    H213042   5.256   4.626   0.674
 4346TIP3   OH213043   2.422   0.337   1.249
 4346TIP3    H113044   2.464   0.422   1.263
 4346TIP3    H213045   2.484   0.289   1.193
 4347TIP3   OH213046   5.943   1.869   2.354
 4347TIP3    H113047   5.993   1.802   2.401
 4347TIP3    H213048   5.967   1.951   2.398
 4348TIP3   OH213049   5.763   0.682   3.648
 4348TIP3    H113050   5.750   0.587   3.654
 4348TIP3    H213051   5.676   0.718   3.662
 4349TIP3   OH213052   3.860   2.395   0.402
 4349TIP3    H113053   3.811   2.394   0.320
 4349TIP3    H213054   3.877   2.487   0.420
 4350TIP3   OH213055   1.070   0.079   1.645
 4350TIP3    H113056   1.019   0.040   1.574
 4350TIP3    H213057   1.149   0.025   1.651
 4351TIP3   OH213058   4.210   4.736   1.374
 4351TIP3    H113059   4.271   4.690   1.316
 4351TIP3    H213060   4.266   4.772   1.443
 4352TIP3   OH213061   2.643   3.243   0.709
 4352TIP3    H113062   2.585   3.274   0.639
 4352TIP3    H213063   2.594   3.261   0.789
 4353TIP3   OH213064   1.131   0.378   3.440
 4353TIP3    H113065   1.178   0.429   3.506
 4353TIP3    H213066   1.133   0.288   3.472
 4354TIP3   OH213067   3.417   1.148   3.040
 4354TIP3    H113068   3.351   1.207   3.075
 4354TIP3    H213069   3.493   1.203   3.024
 4355TIP3   OH213070   0.791   2.457   2.010
 4355TIP3    H113071   0.739   2.426   2.084
 4355TIP3    H213072   0.797   2.381   1.952
 4356TIP3   OH213073   6.128   0.201   0.690
 4356TIP3    H113074   6.201   0.156   0.733
 4356TIP3    H213075   6.082   0.245   0.762
 4357TIP3   OH213076   0.110   3.888   1.166
 4357TIP3    H113077   0.158   3.814   1.130
 4357TIP3    H213078   0.153   3.907   1.250
 4358TIP3   OH213079   0.485   4.252   4.920
 4358TIP3    H113080   0.393   4.240   4.945
 4358TIP3    H213081   0.482   4.311   4.845
 4359TIP3   OH213082   6.118   2.708   4.083
 4359TIP3    H113083   6.116   2.783   4.023
 4359TIP3    H213084   6.121   2.747   4.170
 4360TIP3   OH213085   5.740   4.093   3.780
 4360TIP3    H113086   5.804   4.165   3.785
 4360TIP3    H213087   5.783   4.021   3.826
 4361TIP3   OH213088   0.410   5.036   2.915
 4361TIP3    H113089   0.326   5.031   2.868
 4361TIP3    H213090   0.469   4.981   2.865
 4362TIP3   OH213091   1.171   0.896   2.423
 4362TIP3    H113092   1.262   0.897   2.450
 4362TIP3    H213093   1.160   0.811   2.379
 4363TIP3   OH213094   4.814   2.798   3.773
 4363TIP3    H113095   4.869   2.876   3.766
 4363TIP3    H213096   4.727   2.828   3.747
 4364TIP3   OH213097   2.619   0.746   2.451
 4364TIP3    H113098   2.528   0.718   2.453
 4364TIP3    H213099   2.616   0.838   2.426
 4365TIP3   OH213100   0.099   4.528   2.221
 4365TIP3    H113101   0.192   4.553   2.221
 4365TIP3    H213102   0.099   4.439   2.186
 4366TIP3   OH213103   2.197   3.159   4.078
 4366TIP3    H113104   2.184   3.156   4.173
 4366TIP3    H213105   2.212   3.067   4.054
 4367TIP3   OH213106   0.740   1.988   3.850
 4367TIP3    H113107   0.707   1.963   3.936
 4367TIP3    H213108   0.835   1.996   3.862
 4368TIP3   OH213109   6.037   5.611   4.065
 4368TIP3    H113110   6.046   5.690   4.117
 4368TIP3    H213111   6.127   5.586   4.044
 4369TIP3   OH213112   3.417   4.981   3.841
 4369TIP3    H113113   3.464   4.906   3.804
 4369TIP3    H213114   3.370   5.019   3.767
 4370TIP3   OH213115   1.464   5.620   3.731
 4370TIP3    H113116   1.472   5.681   3.658
 4370TIP3    H213117   1.432   5.675   3.803
 4371TIP3   OH213118   0.518   3.232   4.043
 4371TIP3    H113119   0.576   3.228   4.119
 4371TIP3    H213120   0.471   3.314   4.054
 4372TIP3   OH213121   6.233   4.704   0.301
 4372TIP3    H113122   6.272   4.697   0.388
 4372TIP3    H213123   6.271   4.784   0.263
 4373TIP3   OH213124   4.974   3.594   2.794
 4373TIP3    H113125   4.937   3.507   2.808
 4373TIP3    H213126   4.987   3.601   2.700
 4374TIP3   OH213127   4.394   3.137   3.836
 4374TIP3    H113128   4.408   3.187   3.756
 4374TIP3    H213129   4.396   3.045   3.808
 4375TIP3   OH213130   4.086   4.720   2.725
 4375TIP3    H113131   4.136   4.748   2.801
 4375TIP3    H213132   3.995   4.743   2.746
 4376TIP3   OH213133   0.642   0.251   2.358
 4376TIP3    H113134   0.691   0.330   2.338
 4376TIP3    H213135   0.623   0.257   2.452
 4377TIP3   OH213136   0.533   3.329   1.359
 4377TIP3    H113137   0.441   3.304   1.364
 4377TIP3    H213138   0.533   3.424   1.369
 4378TIP3   OH213139   5.116   3.665   2.173
 4378TIP3    H113140   5.072   3.699   2.251
 4378TIP3    H213141   5.182   3.731   2.152
 4379TIP3   OH213142   5.292   0.893   0.306
 4379TIP3    H113143   5.342   0.812   0.310
 4379TIP3    H213144   5.233   0.881   0.231
 4380TIP3   OH213145   4.873   4.871   3.952
 4380TIP3    H113146   4.915   4.931   4.014
 4380TIP3    H213147   4.788   4.851   3.991
 4381TIP3   OH213148   5.022   1.024   1.747
 4381TIP3    H113149   5.073   1.097   1.782
 4381TIP3    H213150   4.959   1.002   1.816
 4382TIP3   OH213151   4.795   3.271   3.073
 4382TIP3    H113152   4.745   3.349   3.097
 4382TIP3    H213153   4.867   3.269   3.136
 4383TIP3   OH213154   2.497   0.128   0.525
 4383TIP3    H113155   2.503   0.193   0.455
 4383TIP3    H213156   2.563   0.062   0.503
 4384TIP3   OH213157   4.905   0.244   1.783
 4384TIP3    H113158   4.894   0.152   1.809
 4384TIP3    H213159   4.897   0.293   1.864
 4385TIP3   OH213160   3.800   3.433   3.320
 4385TIP3    H113161   3.793   3.474   3.234
 4385TIP3    H213162   3.861   3.361   3.308
 4386TIP3   OH213163   0.332   5.621   3.975
 4386TIP3    H113164   0.258   5.673   4.005
 4386TIP3    H213165   0.316   5.533   4.010
 4387TIP3   OH213166   5.748   5.734   2.469
 4387TIP3    H113167   5.793   5.667   2.417
 4387TIP3    H213168   5.655   5.718   2.455
 4388TIP3   OH213169   2.077   2.294   4.773
 4388TIP3    H113170   2.086   2.371   4.828
 4388TIP3    H213171   2.049   2.224   4.832
 4389TIP3   OH213172   3.167   4.964   1.160
 4389TIP3    H113173   3.189   5.048   1.118
 4389TIP3    H213174   3.096   4.986   1.220
 4390TIP3   OH213175   3.623   4.186   1.248
 4390TIP3    H113176   3.583   4.107   1.211
 4390TIP3    H213177   3.562   4.215   1.315
 4391TIP3   OH213178   3.180   0.868   2.188
 4391TIP3    H113179   3.234   0.822   2.124
 4391TIP3    H213180   3.237   0.935   2.225
 4392TIP3   OH213181   1.611   0.177   3.708
 4392TIP3    H113182   1.600   0.136   3.622
 4392TIP3    H213183   1.536   0.145   3.759
 4393TIP3   OH213184   0.617   4.745   0.996
 4393TIP3    H113185   0.524   4.723   1.002
 4393TIP3    H213186   0.662   4.669   1.035
 4394TIP3   OH213187   2.723   1.378   1.441
 4394TIP3    H113188   2.669   1.330   1.503
 4394TIP3    H213189   2.793   1.416   1.494
 4395TIP3   OH213190   0.174   4.853   1.814
 4395TIP3    H113191   0.181   4.762   1.845
 4395TIP3    H213192   0.257   4.869   1.769
 4396TIP3   OH213193   0.380   4.343   1.753
 4396TIP3    H113194   0.355   4.312   1.840
 4396TIP3    H213195   0.330   4.288   1.692
 4397TIP3   OH213196   5.057   2.405   3.806
 4397TIP3    H113197   5.056   2.352   3.726
 4397TIP3    H213198   5.150   2.419   3.824
 4398TIP3   OH213199  -0.016   1.281   2.629
 4398TIP3    H113200   0.065   1.297   2.581
 4398TIP3    H213201  -0.042   1.192   2.605
 4399TIP3   OH213202   0.858   4.883   3.199
 4399TIP3    H113203   0.833   4.899   3.108
 4399TIP3    H213204   0.933   4.823   3.192
 4400TIP3   OH213205   6.184   3.429   1.515
 4400TIP3    H113206   6.233   3.353   1.545
 4400TIP3    H213207   6.231   3.504   1.551
 4401TIP3   OH213208   4.683   2.943   2.098
 4401TIP3    H113209   4.668   2.967   2.189
 4401TIP3    H213210   4.754   3.001   2.070
 4402TIP3   OH213211   3.406   5.407   1.321
 4402TIP3    H113212   3.476   5.468   1.343
 4402TIP3    H213213   3.437   5.361   1.243
 4403TIP3   OH213214   1.946   3.657   1.532
 4403TIP3    H113215   1.882   3.594   1.564
 4403TIP3    H213216   1.901   3.741   1.535
 4404TIP3   OH213217   2.608   3.084   0.397
 4404TIP3    H113218   2.686   3.130   0.425
 4404TIP3    H213219   2.539   3.151   0.394
 4405TIP3   OH213220   2.457   3.142   4.971
 4405TIP3    H113221   2.516   3.125   5.044
 4405TIP3    H213222   2.371   3.156   5.013
 4406TIP3   OH213223   0.997   2.423   2.857
 4406TIP3    H113224   0.954   2.400   2.939
 4406TIP3    H213225   1.052   2.497   2.878
 4407TIP3   OH213226   1.867   0.127   1.017
 4407TIP3    H113227   1.826   0.049   1.056
 4407TIP3    H213228   1.898   0.178   1.092
 4408TIP3   OH213229   4.564   0.407   0.658
 4408TIP3    H113230   4.519   0.348   0.718
 4408TIP3    H213231   4.552   0.494   0.697
 4409TIP3   OH213232   6.311   5.241   0.473
 4409TIP3    H113233   6.307   5.180   0.547
 4409TIP3    H213234   6.219   5.264   0.456
 4410TIP3   OH213235   1.940   5.711   2.830
 4410TIP3    H113236   1.935   5.779   2.897
 4410TIP3    H213237   1.995   5.748   2.761
 4411TIP3   OH213238   1.497   3.554   0.326
 4411TIP3    H113239   1.413   3.591   0.299
 4411TIP3    H213240   1.490   3.543   0.421
 4412TIP3   OH213241   4.047   0.112   4.631
 4412TIP3    H113242   4.007   0.088   4.547
 4412TIP3    H213243   4.061   0.206   4.625
 4413TIP3   OH213244   1.071   4.601   4.112
 4413TIP3    H113245   0.983   4.563   4.116
 4413TIP3    H213246   1.065   4.669   4.045
 4414TIP3   OH213247   2.014   2.366   0.313
 4414TIP3    H113248   2.080   2.299   0.294
 4414TIP3    H213249   2.058   2.449   0.298
 4415TIP3   OH213250   5.349   5.158   3.828
 4415TIP3    H113251   5.414   5.227   3.842
 4415TIP3    H213252   5.397   5.077   3.846
 4416TIP3   OH213253   3.928   3.079   5.052
 4416TIP3    H113254   3.990   3.147   5.079
 4416TIP3    H213255   3.974   2.997   5.068
 4417TIP3   OH213256   3.318   5.390   1.732
 4417TIP3    H113257   3.372   5.314   1.713
 4417TIP3    H213258   3.375   5.465   1.717
 4418TIP3   OH213259   1.584   1.488   0.325
 4418TIP3    H113260   1.675   1.461   0.341
 4418TIP3    H213261   1.576   1.485   0.229
 4419TIP3   OH213262   3.293   1.251   4.470
 4419TIP3    H113263   3.227   1.210   4.414
 4419TIP3    H213264   3.341   1.177   4.508
 4420TIP3   OH213265   0.212   5.354   2.664
 4420TIP3    H113266   0.214   5.371   2.758
 4420TIP3    H213267   0.270   5.278   2.652
 4421TIP3   OH213268   5.973   1.017   4.591
 4421TIP3    H113269   6.022   0.956   4.536
 4421TIP3    H213270   6.011   1.006   4.678
 4422TIP3   OH213271   5.699   1.381   3.396
 4422TIP3    H113272   5.730   1.324   3.325
 4422TIP3    H213273   5.614   1.412   3.366
 4423TIP3   OH213274   1.010   2.936   4.686
 4423TIP3    H113275   1.014   2.974   4.774
 4423TIP3    H213276   0.919   2.907   4.677
 4424TIP3   OH213277   1.858   5.735   2.539
 4424TIP3    H113278   1.859   5.646   2.573
 4424TIP3    H213279   1.778   5.741   2.488
 4425TIP3   OH213280   2.566   0.882   4.701
 4425TIP3    H113281   2.647   0.861   4.746
 4425TIP3    H213282   2.526   0.951   4.755
 4426TIP3   OH213283   6.028   2.103   2.474
 4426TIP3    H113284   6.056   2.070   2.560
 4426TIP3    H213285   6.109   2.124   2.429
 4427TIP3   OH213286   5.530   4.712   4.115
 4427TIP3    H113287   5.457   4.657   4.144
 4427TIP3    H213288   5.608   4.667   4.149
 4428TIP3   OH213289   0.663   3.695   4.812
 4428TIP3    H113290   0.650   3.622   4.873
 4428TIP3    H213291   0.588   3.752   4.827
 4429TIP3   OH213292   5.899   3.177   4.938
 4429TIP3    H113293   5.894   3.258   4.887
 4429TIP3    H213294   5.986   3.177   4.977
 4430TIP3   OH213295   1.483   4.644   4.050
 4430TIP3    H113296   1.485   4.733   4.085
 4430TIP3    H213297   1.437   4.593   4.117
 4431TIP3   OH213298   2.867   0.735   1.436
 4431TIP3    H113299   2.793   0.735   1.376
 4431TIP3    H213300   2.868   0.824   1.473
 4432TIP3   OH213301   3.394   1.737   2.454
 4432TIP3    H113302   3.435   1.653   2.472
 4432TIP3    H213303   3.395   1.744   2.358
 4433TIP3   OH213304   0.375   2.521   1.208
 4433TIP3    H113305   0.460   2.559   1.185
 4433TIP3    H213306   0.344   2.575   1.280
 4434TIP3   OH213307   4.742   2.496   4.878
 4434TIP3    H113308   4.801   2.465   4.809
 4434TIP3    H213309   4.784   2.468   4.959
 4435TIP3   OH213310   5.167   1.368   1.473
 4435TIP3    H113311   5.137   1.456   1.453
 4435TIP3    H213312   5.248   1.380   1.522
 4436TIP3   OH213313   4.434   1.217   5.014
 4436TIP3    H113314   4.388   1.159   4.953
 4436TIP3    H213315   4.364   1.266   5.058
 4437TIP3   OH213316   0.613   4.182   3.571
 4437TIP3    H113317   0.573   4.095   3.577
 4437TIP3    H213318   0.611   4.203   3.477
 4438TIP3   OH213319   0.658   5.409   2.178
 4438TIP3    H113320   0.607   5.487   2.157
 4438TIP3    H213321   0.723   5.404   2.109
 4439TIP3   OH213322   5.726   0.607   5.003
 4439TIP3    H113323   5.744   0.529   5.056
 4439TIP3    H213324   5.800   0.612   4.943
 4440TIP3   OH213325   2.964   0.171   3.698
 4440TIP3    H113326   3.045   0.122   3.685
 4440TIP3    H213327   2.983   0.229   3.772
 4441TIP3   OH213328   3.350   3.614   2.983
 4441TIP3    H113329   3.304   3.558   3.045
 4441TIP3    H213330   3.433   3.570   2.968
 4442TIP3   OH213331   3.291   0.966   3.207
 4442TIP3    H113332   3.238   0.922   3.141
 4442TIP3    H213333   3.360   1.010   3.157
 4443TIP3   OH213334   2.205   3.211   4.345
 4443TIP3    H113335   2.232   3.120   4.354
 4443TIP3    H213336   2.265   3.260   4.402
 4444TIP3   OH213337   3.688   3.503   4.078
 4444TIP3    H113338   3.750   3.575   4.069
 4444TIP3    H213339   3.602   3.545   4.072
 4445TIP3   OH213340   4.089   0.391   4.324
 4445TIP3    H113341   4.163   0.446   4.350
 4445TIP3    H213342   4.124   0.302   4.327
 4446TIP3   OH213343   5.702   4.887   2.435
 4446TIP3    H113344   5.739   4.802   2.410
 4446TIP3    H213345   5.608   4.877   2.422
 4447TIP3   OH213346   3.397   5.055   0.114
 4447TIP3    H113347   3.332   5.080   0.048
 4447TIP3    H213348   3.480   5.085   0.078
 4448TIP3   OH213349   1.598   2.366   2.759
 4448TIP3    H113350   1.639   2.414   2.831
 4448TIP3    H213351   1.505   2.365   2.781
 4449TIP3   OH213352   0.536   1.254   2.896
 4449TIP3    H113353   0.622   1.263   2.854
 4449TIP3    H213354   0.529   1.330   2.953
 4450TIP3   OH213355   2.262   4.933   2.430
 4450TIP3    H113356   2.353   4.952   2.452
 4450TIP3    H213357   2.222   4.909   2.514
 4451TIP3   OH213358   6.236   3.096   3.638
 4451TIP3    H113359   6.280   3.108   3.722
 4451TIP3    H213360   6.203   3.184   3.616
 4452TIP3   OH213361   0.104   4.660   3.764
 4452TIP3    H113362   0.048   4.662   3.842
 4452TIP3    H213363   0.090   4.574   3.726
 4453TIP3   OH213364   2.612   0.665   5.054
 4453TIP3    H113365   2.598   0.571   5.057
 4453TIP3    H213366   2.551   0.697   4.988
 4454TIP3   OH213367   4.311   3.579   0.994
 4454TIP3    H113368   4.336   3.611   1.081
 4454TIP3    H213369   4.369   3.504   0.978
 4455TIP3   OH213370   6.011   0.725   2.321
 4455TIP3    H113371   5.956   0.756   2.250
 4455TIP3    H213372   5.952   0.677   2.379
 4456TIP3   OH213373   5.253   5.560   2.395
 4456TIP3    H113374   5.326   5.563   2.333
 4456TIP3    H213375   5.204   5.482   2.370
 4457TIP3   OH213376   0.805   0.823   0.526
 4457TIP3    H113377   0.817   0.876   0.448
 4457TIP3    H213378   0.845   0.873   0.597
 4458TIP3   OH213379   3.674   0.196   1.764
 4458TIP3    H113380   3.642   0.119   1.812
 4458TIP3    H213381   3.737   0.160   1.702
 4459TIP3   OH213382   5.411   4.125   4.837
 4459TIP3    H113383   5.497   4.085   4.842
 4459TIP3    H213384   5.371   4.087   4.759
 4460TIP3   OH213385   2.664   5.110   2.376
 4460TIP3    H113386   2.678   5.016   2.366
 4460TIP3    H213387   2.701   5.130   2.462
 4461TIP3   OH213388   1.139   2.656   2.946
 4461TIP3    H113389   1.132   2.746   2.916
 4461TIP3    H213390   1.228   2.630   2.923
 4462TIP3   OH213391   5.946   2.762   0.280
 4462TIP3    H113392   5.923   2.795   0.194
 4462TIP3    H213393   5.926   2.668   0.276
 4463TIP3   OH213394   2.484   5.173   3.355
 4463TIP3    H113395   2.476   5.262   3.389
 4463TIP3    H213396   2.396   5.136   3.361
 4464TIP3   OH213397   1.008   0.133   0.149
 4464TIP3    H113398   1.066   0.099   0.081
 4464TIP3    H213399   1.066   0.174   0.213
 4465TIP3   OH213400   2.793   5.199   4.835
 4465TIP3    H113401   2.759   5.288   4.837
 4465TIP3    H213402   2.840   5.189   4.918
 4466TIP3   OH213403   6.027   3.519   0.221
 4466TIP3    H113404   6.044   3.555   0.134
 4466TIP3    H213405   5.955   3.573   0.255
 4467TIP3   OH213406   0.113   1.072   5.143
 4467TIP3    H113407   0.132   1.057   5.051
 4467TIP3    H213408   0.063   1.154   5.144
 4468TIP3   OH213409   2.329   0.290   4.471
 4468TIP3    H113410   2.350   0.199   4.447
 4468TIP3    H213411   2.270   0.320   4.403
 4469TIP3   OH213412   2.480   0.857   4.362
 4469TIP3    H113413   2.520   0.935   4.400
 4469TIP3    H213414   2.387   0.878   4.359
 4470TIP3   OH213415  -0.028   0.927   0.438
 4470TIP3    H113416   0.007   0.988   0.502
 4470TIP3    H213417   0.005   0.958   0.354
 4471TIP3   OH213418   2.430   3.809   3.605
 4471TIP3    H113419   2.359   3.763   3.561
 4471TIP3    H213420   2.508   3.791   3.552
 4472TIP3   OH213421   6.084   1.585   0.997
 4472TIP3    H113422   6.101   1.510   0.940
 4472TIP3    H213423   6.058   1.548   1.081
 4473TIP3   OH213424   1.712   3.745   0.230
 4473TIP3    H113425   1.727   3.748   0.135
 4473TIP3    H213426   1.649   3.674   0.242
 4474TIP3   OH213427   2.802   4.260   1.323
 4474TIP3    H113428   2.855   4.340   1.314
 4474TIP3    H213429   2.800   4.243   1.417
 4475TIP3   OH213430   4.839   2.477   3.977
 4475TIP3    H113431   4.914   2.471   3.918
 4475TIP3    H213432   4.871   2.526   4.052
 4476TIP3   OH213433   5.600   4.407   4.972
 4476TIP3    H113434   5.641   4.321   4.960
 4476TIP3    H213435   5.642   4.463   4.906
 4477TIP3   OH213436   2.823   4.506   0.045
 4477TIP3    H113437   2.906   4.458   0.042
 4477TIP3    H213438   2.761   4.443   0.081
 4478TIP3   OH213439   1.478   3.713   2.187
 4478TIP3    H113440   1.423   3.726   2.110
 4478TIP3    H213441   1.525   3.632   2.170
 4479TIP3   OH213442   3.265   1.639   0.671
 4479TIP3    H113443   3.183   1.615   0.628
 4479TIP3    H213444   3.332   1.591   0.622
 4480TIP3   OH213445   6.270   5.565   4.330
 4480TIP3    H113446   6.292   5.509   4.255
 4480TIP3    H213447   6.284   5.510   4.406
 4481TIP3   OH213448   3.522   2.110   4.545
 4481TIP3    H113449   3.535   2.168   4.470
 4481TIP3    H213450   3.447   2.147   4.592
 4482TIP3   OH213451   1.059   0.839   4.939
 4482TIP3    H113452   0.986   0.901   4.934
 4482TIP3    H213453   1.018   0.754   4.955
 4483TIP3   OH213454   4.507   3.002   0.921
 4483TIP3    H113455   4.451   2.958   0.985
 4483TIP3    H213456   4.446   3.052   0.866
 4484TIP3   OH213457   5.279   4.361   4.881
 4484TIP3    H113458   5.349   4.295   4.882
 4484TIP3    H213459   5.288   4.407   4.964
 4485TIP3   OH213460   6.161   5.664   2.765
 4485TIP3    H113461   6.200   5.597   2.709
 4485TIP3    H213462   6.164   5.744   2.713
 4486TIP3   OH213463   5.997   3.970   4.725
 4486TIP3    H113464   5.917   4.005   4.686
 4486TIP3    H213465   5.989   3.875   4.716
 4487TIP3   OH213466   3.753   3.198   1.943
 4487TIP3    H113467   3.702   3.212   2.023
 4487TIP3    H213468   3.840   3.172   1.974
 4488TIP3   OH213469   6.194   2.965   4.540
 4488TIP3    H113470   6.278   2.991   4.501
 4488TIP3    H213471   6.135   3.038   4.520
 4489TIP3   OH213472   3.513   3.026   4.106
 4489TIP3    H113473   3.606   3.011   4.089
 4489TIP3    H213474   3.482   2.943   4.143
 4490TIP3   OH213475   4.616   4.246   0.963
 4490TIP3    H113476   4.585   4.200   1.042
 4490TIP3    H213477   4.563   4.210   0.892
 4491TIP3   OH213478   1.367   3.816   1.355
 4491TIP3    H113479   1.305   3.744   1.344
 4491TIP3    H213480   1.417   3.818   1.274
 4492TIP3   OH213481   3.193   1.413   0.940
 4492TIP3    H113482   3.256   1.419   0.868
 4492TIP3    H213483   3.120   1.469   0.913
 4493TIP3   OH213484   4.656   0.464   3.132
 4493TIP3    H113485   4.582   0.482   3.191
 4493TIP3    H213486   4.676   0.549   3.093
 4494TIP3   OH213487   1.052   1.180   0.490
 4494TIP3    H113488   1.132   1.231   0.505
 4494TIP3    H213489   1.056   1.156   0.397
 4495TIP3   OH213490   1.398   0.157   1.458
 4495TIP3    H113491   1.324   0.216   1.472
 4495TIP3    H213492   1.358   0.071   1.446
 4496TIP3   OH213493   2.751   5.627   1.379
 4496TIP3    H113494   2.781   5.549   1.426
 4496TIP3    H213495   2.803   5.698   1.415
 4497TIP3   OH213496   4.853   0.216   3.439
 4497TIP3    H113497   4.829   0.127   3.467
 4497TIP3    H213498   4.775   0.268   3.456
 4498TIP3   OH213499   5.939   2.905   2.434
 4498TIP3    H113500   6.014   2.886   2.377
 4498TIP3    H213501   5.900   2.819   2.451
 4499TIP3   OH213502   5.965   0.270   0.490
 4499TIP3    H113503   5.910   0.199   0.523
 4499TIP3    H213504   6.042   0.269   0.548
 4500TIP3   OH213505   4.124   5.278   2.489
 4500TIP3    H113506   4.045   5.297   2.438
 4500TIP3    H213507   4.185   5.239   2.426
 4501TIP3   OH213508   2.615   2.540   1.178
 4501TIP3    H113509   2.654   2.459   1.212
 4501TIP3    H213510   2.537   2.554   1.233
 4502TIP3   OH213511   2.956   3.521   4.849
 4502TIP3    H113512   2.911   3.595   4.890
 4502TIP3    H213513   3.005   3.480   4.920
 4503TIP3   OH213514   0.134   0.688   0.396
 4503TIP3    H113515   0.074   0.757   0.426
 4503TIP3    H213516   0.217   0.733   0.381
 4504TIP3   OH213517   5.741   1.024   1.982
 4504TIP3    H113518   5.714   0.966   1.911
 4504TIP3    H213519   5.713   0.980   2.062
 4505TIP3   OH213520   1.028   5.593   1.963
 4505TIP3    H113521   0.939   5.560   1.950
 4505TIP3    H213522   1.084   5.518   1.944
 4506TIP3   OH213523   5.114   4.111   0.660
 4506TIP3    H113524   5.149   4.095   0.748
 4506TIP3    H213525   5.019   4.102   0.670
 4507TIP3   OH213526   1.079   3.137   3.159
 4507TIP3    H113527   1.132   3.157   3.236
 4507TIP3    H213528   1.116   3.193   3.090
 4508TIP3   OH213529   1.291   2.814   5.028
 4508TIP3    H113530   1.379   2.851   5.021
 4508TIP3    H213531   1.292   2.736   4.973
 4509TIP3   OH213532   1.801   1.699   2.926
 4509TIP3    H113533   1.795   1.766   2.995
 4509TIP3    H213534   1.876   1.645   2.952
 4510TIP3   OH213535   2.775   1.352   2.671
 4510TIP3    H113536   2.754   1.261   2.691
 4510TIP3    H213537   2.793   1.391   2.757
 4511TIP3   OH213538   5.726   0.919   3.845
 4511TIP3    H113539   5.738   0.971   3.765
 4511TIP3    H213540   5.808   0.931   3.893
 4512TIP3   OH213541   0.489   3.341   2.831
 4512TIP3    H113542   0.558   3.290   2.788
 4512TIP3    H213543   0.482   3.420   2.778
 4513TIP3   OH213544   0.215   2.187   0.897
 4513TIP3    H113545   0.293   2.138   0.872
 4513TIP3    H213546   0.224   2.200   0.992
 4514TIP3   OH213547   4.827   2.206   1.735
 4514TIP3    H113548   4.908   2.257   1.733
 4514TIP3    H213549   4.758   2.272   1.739
 4515TIP3   OH213550   2.536   2.715   2.209
 4515TIP3    H113551   2.534   2.754   2.296
 4515TIP3    H213552   2.611   2.656   2.211
 4516TIP3   OH213553   3.801   2.277   1.832
 4516TIP3    H113554   3.790   2.273   1.737
 4516TIP3    H213555   3.887   2.239   1.847
 4517TIP3   OH213556   5.376   3.151   2.824
 4517TIP3    H113557   5.388   3.244   2.845
 4517TIP3    H213558   5.297   3.149   2.771
 4518TIP3   OH213559   0.533   0.449   4.996
 4518TIP3    H113560   0.554   0.504   4.920
 4518TIP3    H213561   0.437   0.447   4.998
 4519TIP3   OH213562   4.703   2.976   3.286
 4519TIP3    H113563   4.778   2.960   3.229
 4519TIP3    H213564   4.735   3.034   3.354
 4520TIP3   OH213565   4.161   0.365   1.835
 4520TIP3    H113566   4.223   0.320   1.892
 4520TIP3    H213567   4.200   0.451   1.819
 4521TIP3   OH213568   2.393   3.888   4.639
 4521TIP3    H113569   2.341   3.961   4.673
 4521TIP3    H213570   2.371   3.884   4.546
 4522TIP3   OH213571   3.608   1.218   1.821
 4522TIP3    H113572   3.670   1.288   1.842
 4522TIP3    H213573   3.554   1.210   1.899
 4523TIP3   OH213574   5.649   2.810   2.034
 4523TIP3    H113575   5.612   2.748   2.097
 4523TIP3    H213576   5.682   2.882   2.088
 4524TIP3   OH213577   4.156   4.371   1.814
 4524TIP3    H113578   4.127   4.387   1.725
 4524TIP3    H213579   4.251   4.385   1.811
 4525TIP3   OH213580   2.035   0.669   0.346
 4525TIP3    H113581   2.008   0.611   0.274
 4525TIP3    H213582   1.976   0.647   0.417
 4526TIP3   OH213583   3.261   3.902   3.466
 4526TIP3    H113584   3.349   3.869   3.447
 4526TIP3    H213585   3.214   3.893   3.383
 4527TIP3   OH213586   2.819   0.592   4.707
 4527TIP3    H113587   2.731   0.557   4.718
 4527TIP3    H213588   2.824   0.617   4.614
 4528TIP3   OH213589   3.617   0.105   1.164
 4528TIP3    H113590   3.527   0.102   1.195
 4528TIP3    H213591   3.624   0.033   1.101
 4529TIP3   OH213592   6.091   5.518   2.128
 4529TIP3    H113593   6.099   5.536   2.034
 4529TIP3    H213594   6.171   5.470   2.150
 4530TIP3   OH213595   2.868   3.441   0.202
 4530TIP3    H113596   2.876   3.464   0.294
 4530TIP3    H213597   2.863   3.524   0.156
 4531TIP3   OH213598   2.926   2.748   3.961
 4531TIP3    H113599   2.906   2.683   4.028
 4531TIP3    H213600   2.993   2.708   3.907
 4532TIP3   OH213601   5.017   2.342   1.487
 4532TIP3    H113602   5.021   2.379   1.398
 4532TIP3    H213603   5.013   2.419   1.544
 4533TIP3   OH213604   2.304   4.804   0.547
 4533TIP3    H113605   2.292   4.715   0.515
 4533TIP3    H213606   2.292   4.859   0.470
 4534TIP3   OH213607   4.971   0.243   2.525
 4534TIP3    H113608   4.896   0.201   2.566
 4534TIP3    H213609   4.973   0.209   2.436
 4535TIP3   OH213610   2.262   3.648   3.457
 4535TIP3    H113611   2.258   3.581   3.389
 4535TIP3    H213612   2.193   3.623   3.519
 4536TIP3   OH213613   2.035   0.974   0.335
 4536TIP3    H113614   2.045   0.891   0.382
 4536TIP3    H213615   2.125   1.001   0.315
 4537TIP3   OH213616   6.266   1.632   3.837
 4537TIP3    H113617   6.203   1.589   3.778
 4537TIP3    H213618   6.328   1.675   3.779
 4538TIP3   OH213619   2.236   5.182   0.395
 4538TIP3    H113620   2.190   5.230   0.326
 4538TIP3    H213621   2.304   5.242   0.426
 4539TIP3   OH213622   5.448   2.329   1.726
 4539TIP3    H113623   5.386   2.307   1.656
 4539TIP3    H213624   5.396   2.323   1.806
 4540TIP3   OH213625   3.953   0.225   2.072
 4540TIP3    H113626   4.012   0.184   2.009
 4540TIP3    H213627   3.884   0.161   2.087
 4541TIP3   OH213628   3.186   3.851   1.238
 4541TIP3    H113629   3.108   3.804   1.211
 4541TIP3    H213630   3.169   3.877   1.328
 4542TIP3   OH213631   5.682   5.127   3.987
 4542TIP3    H113632   5.646   5.200   4.037
 4542TIP3    H213633   5.665   5.149   3.895
 4543TIP3   OH213634   4.864   4.587   2.092
 4543TIP3    H113635   4.798   4.521   2.113
 4543TIP3    H213636   4.932   4.575   2.159
 4544TIP3   OH213637   0.953   5.855   4.291
 4544TIP3    H113638   1.016   5.793   4.327
 4544TIP3    H213639   1.004   5.934   4.274
 4545TIP3   OH213640   5.393   3.994   1.396
 4545TIP3    H113641   5.426   3.906   1.378
 4545TIP3    H213642   5.314   4.002   1.344
 4546TIP3   OH213643   0.172   2.357   4.412
 4546TIP3    H113644   0.156   2.276   4.363
 4546TIP3    H213645   0.196   2.327   4.499
 4547TIP3   OH213646   0.478   2.206   2.557
 4547TIP3    H113647   0.552   2.145   2.554
 4547TIP3    H213648   0.486   2.250   2.641
 4548TIP3   OH213649   2.780   2.296   3.610
 4548TIP3    H113650   2.694   2.263   3.583
 4548TIP3    H213651   2.840   2.223   3.595
 4549TIP3   OH213652   3.992   2.955   1.632
 4549TIP3    H113653   3.963   3.045   1.648
 4549TIP3    H213654   3.912   2.910   1.605
 4550TIP3   OH213655   4.248   1.788   5.211
 4550TIP3    H113656   4.250   1.883   5.197
 4550TIP3    H213657   4.181   1.756   5.150
 4551TIP3   OH213658   4.855   5.169   1.036
 4551TIP3    H113659   4.825   5.145   1.124
 4551TIP3    H213660   4.776   5.199   0.991
 4552TIP3   OH213661   4.455   5.816   0.290
 4552TIP3    H113662   4.386   5.794   0.354
 4552TIP3    H213663   4.456   5.742   0.230
 4553TIP3   OH213664   4.711   1.561   1.876
 4553TIP3    H113665   4.692   1.563   1.782
 4553TIP3    H213666   4.626   1.577   1.917
 4554TIP3   OH213667   5.685   3.386   1.076
 4554TIP3    H113668   5.707   3.344   0.992
 4554TIP3    H213669   5.716   3.476   1.067
 4555TIP3   OH213670   0.023   3.259   0.249
 4555TIP3    H113671   0.111   3.284   0.220
 4555TIP3    H213672  -0.022   3.233   0.168
 4556TIP3   OH213673   2.973   0.637   0.082
 4556TIP3    H113674   3.064   0.629   0.108
 4556TIP3    H213675   2.945   0.547   0.064
 4557TIP3   OH213676   4.000   3.662   3.753
 4557TIP3    H113677   4.082   3.685   3.710
 4557TIP3    H213678   4.008   3.696   3.842
 4558TIP3   OH213679   4.867   1.494   0.885
 4558TIP3    H113680   4.961   1.501   0.903
 4558TIP3    H213681   4.839   1.417   0.936
 4559TIP3   OH213682   3.067   0.143   2.643
 4559TIP3    H113683   3.006   0.215   2.626
 4559TIP3    H213684   3.038   0.108   2.728
 4560TIP3   OH213685   5.390   5.881   3.918
 4560TIP3    H113686   5.330   5.858   3.847
 4560TIP3    H213687   5.339   5.867   3.998
 4561TIP3   OH213688   4.800   5.782   4.822
 4561TIP3    H113689   4.838   5.695   4.805
 4561TIP3    H213690   4.838   5.808   4.906
 4562TIP3   OH213691   2.948   1.897   2.695
 4562TIP3    H113692   2.879   1.904   2.629
 4562TIP3    H213693   3.001   1.822   2.666
 4563TIP3   OH213694   2.810   5.270   2.087
 4563TIP3    H113695   2.820   5.323   2.166
 4563TIP3    H213696   2.845   5.185   2.111
 4564TIP3   OH213697   1.875   4.043   3.074
 4564TIP3    H113698   1.822   3.988   3.016
 4564TIP3    H213699   1.942   4.080   3.017
 4565TIP3   OH213700   0.391   0.871   2.085
 4565TIP3    H113701   0.320   0.907   2.139
 4565TIP3    H213702   0.448   0.946   2.067
 4566TIP3   OH213703   4.060   5.633   2.544
 4566TIP3    H113704   4.032   5.719   2.573
 4566TIP3    H213705   4.128   5.650   2.478
 4567TIP3   OH213706   3.084   4.681   0.330
 4567TIP3    H113707   3.158   4.729   0.367
 4567TIP3    H213708   3.099   4.682   0.236
 4568TIP3   OH213709   3.113   0.889   1.556
 4568TIP3    H113710   3.206   0.900   1.572
 4568TIP3    H213711   3.104   0.891   1.461
 4569TIP3   OH213712   2.926   3.107   0.219
 4569TIP3    H113713   2.858   3.043   0.196
 4569TIP3    H213714   2.885   3.162   0.286
 4570TIP3   OH213715   1.690   1.489   4.741
 4570TIP3    H113716   1.600   1.508   4.766
 4570TIP3    H213717   1.683   1.451   4.653
 4571TIP3   OH213718   3.252   0.582   2.669
 4571TIP3    H113719   3.327   0.614   2.719
 4571TIP3    H213720   3.189   0.653   2.670
 4572TIP3   OH213721   0.518   0.252   2.602
 4572TIP3    H113722   0.440   0.196   2.604
 4572TIP3    H213723   0.522   0.291   2.689
 4573TIP3   OH213724   1.169   3.382   3.917
 4573TIP3    H113725   1.219   3.366   3.997
 4573TIP3    H213726   1.094   3.434   3.945
 4574TIP3   OH213727   4.420   1.652   2.400
 4574TIP3    H113728   4.336   1.678   2.438
 4574TIP3    H213729   4.409   1.559   2.378
 4575TIP3   OH213730   2.358   0.262   2.528
 4575TIP3    H113731   2.360   0.168   2.507
 4575TIP3    H213732   2.394   0.268   2.616
 4576TIP3   OH213733   1.728   3.307   4.690
 4576TIP3    H113734   1.768   3.331   4.606
 4576TIP3    H213735   1.794   3.331   4.755
 4577TIP3   OH213736   5.432   5.415   1.977
 4577TIP3    H113737   5.368   5.392   1.910
 4577TIP3    H213738   5.515   5.378   1.946
 4578TIP3   OH213739   3.414   4.502  -0.092
 4578TIP3    H113740   3.337   4.472  -0.043
 4578TIP3    H213741   3.421   4.595  -0.069
 4579TIP3   OH213742   3.264   5.169   3.641
 4579TIP3    H113743   3.183   5.202   3.680
 4579TIP3    H213744   3.276   5.223   3.563
 4580TIP3   OH213745   3.145   1.686   2.583
 4580TIP3    H113746   3.217   1.724   2.534
 4580TIP3    H213747   3.115   1.613   2.527
 4581TIP3   OH213748   0.239   1.900   4.166
 4581TIP3    H113749   0.310   1.850   4.125
 4581TIP3    H213750   0.209   1.959   4.097
 4582TIP3   OH213751   0.186   3.583   0.633
 4582TIP3    H113752   0.096   3.607   0.656
 4582TIP3    H213753   0.189   3.590   0.538
 4583TIP3   OH213754   2.564   4.799   4.457
 4583TIP3    H113755   2.532   4.798   4.367
 4583TIP3    H213756   2.485   4.810   4.510
 4584TIP3   OH213757   0.211   3.325   1.934
 4584TIP3    H113758   0.201   3.237   1.969
 4584TIP3    H213759   0.286   3.319   1.875
 4585TIP3   OH213760   3.951   4.700   1.566
 4585TIP3    H113761   4.022   4.683   1.505
 4585TIP3    H213762   3.877   4.725   1.511
 4586TIP3   OH213763   0.878   4.424   4.670
 4586TIP3    H113764   0.964   4.446   4.706
 4586TIP3    H213765   0.855   4.341   4.711
 4587TIP3   OH213766   5.708   3.284   0.820
 4587TIP3    H113767   5.750   3.199   0.805
 4587TIP3    H213768   5.722   3.333   0.739
 4588TIP3   OH213769   6.240   5.367   1.269
 4588TIP3    H113770   6.299   5.334   1.337
 4588TIP3    H213771   6.196   5.442   1.310
 4589TIP3   OH213772   2.851   1.673   3.788
 4589TIP3    H113773   2.812   1.746   3.837
 4589TIP3    H213774   2.940   1.667   3.822
 4590TIP3   OH213775   5.797   2.248   3.134
 4590TIP3    H113776   5.807   2.343   3.139
 4590TIP3    H213777   5.859   2.214   3.198
 4591TIP3   OH213778   1.080   1.805   5.027
 4591TIP3    H113779   1.103   1.832   4.938
 4591TIP3    H213780   1.070   1.887   5.075
 4592TIP3   OH213781   6.100   4.938   2.958
 4592TIP3    H113782   6.088   4.893   2.875
 4592TIP3    H213783   6.110   4.868   3.022
 4593TIP3   OH213784   0.627   5.649   4.011
 4593TIP3    H113785   0.661   5.560   4.010
 4593TIP3    H213786   0.539   5.642   4.049
 4594TIP3   OH213787   2.710   4.078   1.158
 4594TIP3    H113788   2.694   4.004   1.217
 4594TIP3    H213789   2.750   4.145   1.214
 4595TIP3   OH213790   2.626   0.589   2.703
 4595TIP3    H113791   2.590   0.672   2.734
 4595TIP3    H213792   2.644   0.603   2.610
 4596TIP3   OH213793   0.378   4.777   4.752
 4596TIP3    H113794   0.451   4.717   4.764
 4596TIP3    H213795   0.414   4.863   4.772
 4597TIP3   OH213796   2.989   0.918   2.426
 4597TIP3    H113797   2.946   0.990   2.380
 4597TIP3    H213798   3.049   0.881   2.361
 4598TIP3   OH213799   6.258   3.230   3.294
 4598TIP3    H113800   6.217   3.271   3.370
 4598TIP3    H213801   6.185   3.207   3.237
 4599TIP3   OH213802   2.003   5.366   1.090
 4599TIP3    H113803   1.911   5.381   1.066
 4599TIP3    H213804   2.044   5.452   1.082
 4600TIP3   OH213805   4.375   2.334   2.649
 4600TIP3    H113806   4.456   2.319   2.698
 4600TIP3    H213807   4.393   2.414   2.599
 4601TIP3   OH213808   6.256   4.431   0.999
 4601TIP3    H113809   6.174   4.393   0.967
 4601TIP3    H213810   6.272   4.385   1.082
 4602TIP3   OH213811   5.683   2.266   0.657
 4602TIP3    H113812   5.669   2.360   0.671
 4602TIP3    H213813   5.742   2.239   0.727
 4603TIP3   OH213814   2.351   4.240   2.764
 4603TIP3    H113815   2.409   4.288   2.706
 4603TIP3    H213816   2.263   4.272   2.744
 4604TIP3   OH213817   1.229   4.962   2.677
 4604TIP3    H113818   1.317   4.952   2.641
 4604TIP3    H213819   1.221   4.891   2.740
 4605TIP3   OH213820   3.700   4.851   3.532
 4605TIP3    H113821   3.699   4.946   3.518
 4605TIP3    H213822   3.793   4.829   3.534
 4606TIP3   OH213823   5.075   5.312   2.021
 4606TIP3    H113824   5.052   5.401   1.992
 4606TIP3    H213825   5.137   5.281   1.955
 4607TIP3   OH213826   1.258   2.736   2.224
 4607TIP3    H113827   1.246   2.693   2.308
 4607TIP3    H213828   1.346   2.774   2.229
 4608TIP3   OH213829   1.718   2.063   5.029
 4608TIP3    H113830   1.793   2.034   4.978
 4608TIP3    H213831   1.705   1.996   5.095
 4609TIP3   OH213832   5.050   1.464   0.476
 4609TIP3    H113833   5.126   1.522   0.470
 4609TIP3    H213834   5.031   1.440   0.385
 4610TIP3   OH213835   2.897   1.090   2.248
 4610TIP3    H113836   2.914   1.062   2.157
 4610TIP3    H213837   2.874   1.183   2.240
 4611TIP3   OH213838   1.394   2.504   2.928
 4611TIP3    H113839   1.456   2.524   2.998
 4611TIP3    H213840   1.371   2.412   2.942
 4612TIP3   OH213841   1.543   1.044   3.939
 4612TIP3    H113842   1.527   1.048   4.033
 4612TIP3    H213843   1.596   0.966   3.926
 4613TIP3   OH213844   5.634   2.924   0.038
 4613TIP3    H113845   5.591   2.879  -0.035
 4613TIP3    H213846   5.724   2.892   0.037
 4614TIP3   OH213847   0.352   1.769   0.793
 4614TIP3    H113848   0.281   1.734   0.740
 4614TIP3    H213849   0.386   1.694   0.842
 4615TIP3   OH213850   1.673   4.036   2.721
 4615TIP3    H113851   1.702   4.127   2.716
 4615TIP3    H213852   1.588   4.041   2.765
 4616TIP3   OH213853   1.147   0.219   0.396
 4616TIP3    H113854   1.178   0.155   0.459
 4616TIP3    H213855   1.227   0.254   0.356
 4617TIP3   OH213856   3.990   1.618   4.310
 4617TIP3    H113857   3.983   1.708   4.277
 4617TIP3    H213858   3.900   1.585   4.311
 4618TIP3   OH213859   1.603   1.033   0.667
 4618TIP3    H113860   1.568   1.091   0.734
 4618TIP3    H213861   1.531   0.973   0.647
 4619TIP3   OH213862   1.409   3.157   2.573
 4619TIP3    H113863   1.358   3.236   2.589
 4619TIP3    H213864   1.499   3.188   2.562
 4620TIP3   OH213865   6.043   2.354   1.874
 4620TIP3    H113866   5.968   2.324   1.822
 4620TIP3    H213867   6.003   2.403   1.946
 4621TIP3   OH213868   2.496   2.688   4.715
 4621TIP3    H113869   2.455   2.768   4.749
 4621TIP3    H213870   2.500   2.630   4.791
 4622TIP3   OH213871   1.533   1.781   4.962
 4622TIP3    H113872   1.494   1.796   5.048
 4622TIP3    H213873   1.624   1.757   4.980
 4623TIP3   OH213874   5.200   4.981   4.111
 4623TIP3    H113875   5.243   5.058   4.148
 4623TIP3    H213876   5.266   4.942   4.053
 4624TIP3   OH213877   6.087   3.820   1.777
 4624TIP3    H113878   6.141   3.883   1.824
 4624TIP3    H213879   6.150   3.759   1.738
 4625TIP3   OH213880   4.902   4.697   3.291
 4625TIP3    H113881   4.921   4.608   3.261
 4625TIP3    H213882   4.943   4.703   3.377
 4626TIP3   OH213883   2.755   5.218   0.779
 4626TIP3    H113884   2.736   5.126   0.764
 4626TIP3    H213885   2.673   5.264   0.758
 4627TIP3   OH213886   4.437   0.921   3.039
 4627TIP3    H113887   4.388   0.871   2.973
 4627TIP3    H213888   4.449   1.007   3.000
 4628TIP3   OH213889   2.536   5.755   0.883
 4628TIP3    H113890   2.456   5.736   0.932
 4628TIP3    H213891   2.521   5.714   0.797
 4629TIP3   OH213892   1.309   4.278   1.828
 4629TIP3    H113893   1.299   4.196   1.780
 4629TIP3    H213894   1.323   4.344   1.760
 4630TIP3   OH213895   3.988   3.042   2.360
 4630TIP3    H113896   4.044   3.071   2.432
 4630TIP3    H213897   3.900   3.038   2.398
 4631TIP3   OH213898   4.586   4.564   0.454
 4631TIP3    H113899   4.515   4.589   0.395
 4631TIP3    H213900   4.665   4.571   0.401
 4632TIP3   OH213901   1.862   4.319   2.934
 4632TIP3    H113902   1.852   4.268   3.014
 4632TIP3    H213903   1.811   4.399   2.950
 4633TIP3   OH213904   4.307   3.912   2.997
 4633TIP3    H113905   4.228   3.859   2.991
 4633TIP3    H213906   4.275   4.002   2.997
 4634TIP3   OH213907   2.564   4.689   1.427
 4634TIP3    H113908   2.531   4.600   1.417
 4634TIP3    H213909   2.659   4.681   1.416
 4635TIP3   OH213910   3.339   4.972   4.246
 4635TIP3    H113911   3.328   5.057   4.202
 4635TIP3    H213912   3.391   4.993   4.324
 4636TIP3   OH213913   1.549   0.271   3.215
 4636TIP3    H113914   1.633   0.311   3.189
 4636TIP3    H213915   1.484   0.338   3.195
 4637TIP3   OH213916   1.709   1.821   4.289
 4637TIP3    H113917   1.688   1.781   4.373
 4637TIP3    H213918   1.752   1.904   4.313
 4638TIP3   OH213919   1.281   5.770   3.478
 4638TIP3    H113920   1.356   5.807   3.524
 4638TIP3    H213921   1.315   5.748   3.391
 4639TIP3   OH213922   5.921   0.655   4.674
 4639TIP3    H113923   5.909   0.747   4.700
 4639TIP3    H213924   6.005   0.630   4.712
 4640TIP3   OH213925   0.510   1.994   1.255
 4640TIP3    H113926   0.554   2.030   1.178
 4640TIP3    H213927   0.427   1.960   1.221
 4641TIP3   OH213928   4.307   5.737   2.735
 4641TIP3    H113929   4.281   5.829   2.726
 4641TIP3    H213930   4.402   5.739   2.738
 4642TIP3   OH213931   0.481   2.213   3.971
 4642TIP3    H113932   0.462   2.281   4.035
 4642TIP3    H213933   0.545   2.157   4.015
 4643TIP3   OH213934   4.886   2.316   2.009
 4643TIP3    H113935   4.954   2.359   1.958
 4643TIP3    H213936   4.812   2.377   2.009
 4644TIP3   OH213937   6.242   2.158   0.428
 4644TIP3    H113938   6.199   2.230   0.383
 4644TIP3    H213939   6.220   2.171   0.520
 4645TIP3   OH213940   1.367   2.612   4.076
 4645TIP3    H113941   1.435   2.566   4.125
 4645TIP3    H213942   1.290   2.555   4.082
 4646TIP3   OH213943   1.976   1.471   0.955
 4646TIP3    H113944   1.936   1.524   0.886
 4646TIP3    H213945   1.980   1.383   0.918
 4647TIP3   OH213946   3.773   3.627   1.072
 4647TIP3    H113947   3.848   3.576   1.102
 4647TIP3    H213948   3.805   3.672   0.994
 4648TIP3   OH213949   0.381   3.762   4.686
 4648TIP3    H113950   0.380   3.704   4.610
 4648TIP3    H213951   0.288   3.774   4.708
 4649TIP3   OH213952   3.467   5.632   0.120
 4649TIP3    H113953   3.542   5.599   0.071
 4649TIP3    H213954   3.409   5.557   0.129
 4650TIP3   OH213955   4.629   2.119   4.943
 4650TIP3    H113956   4.695   2.056   4.972
 4650TIP3    H213957   4.580   2.073   4.875
 4651TIP3   OH213958   0.775   5.582   3.507
 4651TIP3    H113959   0.733   5.512   3.457
 4651TIP3    H213960   0.797   5.648   3.442
 4652TIP3   OH213961   4.507   2.258   1.147
 4652TIP3    H113962   4.534   2.255   1.055
 4652TIP3    H213963   4.566   2.196   1.191
 4653TIP3   OH213964   5.916   2.919   0.058
 4653TIP3    H113965   5.954   3.004   0.035
 4653TIP3    H213966   5.968   2.855   0.010
 4654TIP3   OH213967   3.907   2.937   4.769
 4654TIP3    H113968   3.867   2.880   4.834
 4654TIP3    H213969   3.972   2.883   4.725
 4655TIP3   OH213970   1.643   0.429   0.961
 4655TIP3    H113971   1.731   0.392   0.970
 4655TIP3    H213972   1.590   0.357   0.929
 4656TIP3   OH213973   2.125   0.683   2.760
 4656TIP3    H113974   2.197   0.622   2.775
 4656TIP3    H213975   2.145   0.723   2.676
 4657TIP3   OH213976   3.042   1.702   4.593
 4657TIP3    H113977   2.949   1.687   4.608
 4657TIP3    H213978   3.085   1.623   4.627
 4658TIP3   OH213979   5.330   2.516   2.032
 4658TIP3    H113980   5.326   2.538   1.939
 4658TIP3    H213981   5.298   2.594   2.077
 4659TIP3   OH213982   6.270   1.536   1.935
 4659TIP3    H113983   6.255   1.590   1.857
 4659TIP3    H213984   6.366   1.529   1.941
 4660TIP3   OH213985   2.021   1.941   4.002
 4660TIP3    H113986   2.094   2.001   4.021
 4660TIP3    H213987   1.942   1.993   4.018
 4661TIP3   OH213988   4.579   4.336   2.738
 4661TIP3    H113989   4.551   4.281   2.812
 4661TIP3    H213990   4.534   4.420   2.752
 4662TIP3   OH213991   5.795   5.272   2.599
 4662TIP3    H113992   5.786   5.289   2.505
 4662TIP3    H213993   5.736   5.200   2.616
 4663TIP3   OH213994   0.749   3.347   3.127
 4663TIP3    H113995   0.807   3.347   3.203
 4663TIP3    H213996   0.682   3.282   3.148
 4664TIP3   OH213997   5.193   5.306   4.006
 4664TIP3    H113998   5.264   5.261   3.960
 4664TIP3    H213999   5.199   5.275   4.096
 4665TIP3   OH214000   3.029   0.294   3.936
 4665TIP3    H114001   3.033   0.236   4.012
 4665TIP3    H214002   2.946   0.341   3.944
 4666TIP3   OH214003  -0.074   3.663   1.629
 4666TIP3    H114004  -0.077   3.711   1.547
 4666TIP3    H214005   0.019   3.657   1.650
 4667TIP3   OH214006   2.497   5.571   3.865
 4667TIP3    H114007   2.467   5.591   3.954
 4667TIP3    H214008   2.529   5.481   3.870
 4668TIP3   OH214009   2.266   3.595   0.523
 4668TIP3    H114010   2.350   3.562   0.553
 4668TIP3    H214011   2.251   3.552   0.439
 4669TIP3   OH214012   0.158   0.328   2.055
 4669TIP3    H114013   0.106   0.308   1.977
 4669TIP3    H214014   0.112   0.402   2.096
 4670TIP3   OH214015   3.984   4.454   4.393
 4670TIP3    H114016   3.972   4.457   4.488
 4670TIP3    H214017   3.896   4.466   4.357
 4671TIP3   OH214018   4.716   4.217   3.122
 4671TIP3    H114019   4.722   4.229   3.217
 4671TIP3    H214020   4.648   4.278   3.094
 4672TIP3   OH214021   3.341   3.005   0.913
 4672TIP3    H114022   3.337   3.056   0.832
 4672TIP3    H214023   3.425   3.030   0.952
 4673TIP3   OH214024   1.806   3.889   1.471
 4673TIP3    H114025   1.740   3.823   1.450
 4673TIP3    H214026   1.768   3.972   1.442
 4674TIP3   OH214027   0.012   0.047   2.721
 4674TIP3    H114028  -0.027   0.134   2.728
 4674TIP3    H214029   0.070   0.053   2.646
 4675TIP3   OH214030   0.163   2.547   2.898
 4675TIP3    H114031   0.177   2.474   2.958
 4675TIP3    H214032   0.160   2.624   2.955
 4676TIP3   OH214033   3.285   3.833   1.877
 4676TIP3    H114034   3.222   3.763   1.894
 4676TIP3    H214035   3.231   3.907   1.847
 4677TIP3   OH214036   5.372   0.632   0.381
 4677TIP3    H114037   5.451   0.682   0.360
 4677TIP3    H214038   5.404   0.558   0.434
 4678TIP3   OH214039   2.285   3.355   3.931
 4678TIP3    H114040   2.241   3.291   3.988
 4678TIP3    H214041   2.378   3.343   3.951
 4679TIP3   OH214042   3.286   3.083   4.358
 4679TIP3    H114043   3.365   3.058   4.404
 4679TIP3    H214044   3.288   3.032   4.277
 4680TIP3   OH214045   3.114   2.201   0.122
 4680TIP3    H114046   3.114   2.283   0.072
 4680TIP3    H214047   3.176   2.216   0.193
 4681TIP3   OH214048   0.493   2.648   0.519
 4681TIP3    H114049   0.430   2.715   0.492
 4681TIP3    H214050   0.459   2.616   0.603
 4682TIP3   OH214051   4.681   5.941   4.478
 4682TIP3    H114052   4.633   6.024   4.480
 4682TIP3    H214053   4.643   5.889   4.549
 4683TIP3   OH214054   1.783   3.664   1.951
 4683TIP3    H114055   1.722   3.668   1.877
 4683TIP3    H214056   1.867   3.642   1.911
 4684TIP3   OH214057   5.267   4.740   0.972
 4684TIP3    H114058   5.209   4.733   1.048
 4684TIP3    H214059   5.353   4.714   1.006
 4685TIP3   OH214060   3.056   5.691   1.238
 4685TIP3    H114061   3.088   5.678   1.149
 4685TIP3    H214062   3.068   5.606   1.281
 4686TIP3   OH214063   6.219   3.443   0.413
 4686TIP3    H114064   6.288   3.396   0.367
 4686TIP3    H214065   6.164   3.480   0.344
 4687TIP3   OH214066   0.737   2.519   4.002
 4687TIP3    H114067   0.796   2.475   3.940
 4687TIP3    H214068   0.716   2.451   4.066
 4688TIP3   OH214069   6.263   1.940   2.632
 4688TIP3    H114070   6.349   1.960   2.596
 4688TIP3    H214071   6.276   1.858   2.680
 4689TIP3   OH214072   6.233   2.191   1.701
 4689TIP3    H114073   6.184   2.132   1.643
 4689TIP3    H214074   6.172   2.210   1.773
 4690TIP3   OH214075   0.395   2.291   3.336
 4690TIP3    H114076   0.353   2.266   3.418
 4690TIP3    H214077   0.475   2.336   3.364
 4691TIP3   OH214078   0.425   3.252   1.781
 4691TIP3    H114079   0.454   3.183   1.721
 4691TIP3    H214080   0.505   3.301   1.802
 4692TIP3   OH214081   1.214   4.543   3.424
 4692TIP3    H114082   1.292   4.538   3.368
 4692TIP3    H214083   1.245   4.586   3.504
 4693TIP3   OH214084   6.242   5.068   4.974
 4693TIP3    H114085   6.283   5.027   5.051
 4693TIP3    H214086   6.210   5.152   5.006
 4694TIP3   OH214087   4.288   1.671   2.048
 4694TIP3    H114088   4.250   1.744   2.097
 4694TIP3    H214089   4.379   1.666   2.079
 4695TIP3   OH214090   2.865   2.431   3.277
 4695TIP3    H114091   2.911   2.410   3.196
 4695TIP3    H214092   2.915   2.503   3.315
 4696TIP3   OH214093   2.530   0.411   1.623
 4696TIP3    H114094   2.587   0.475   1.666
 4696TIP3    H214095   2.521   0.444   1.534
 4697TIP3   OH214096   6.239   5.207   4.352
 4697TIP3    H114097   6.241   5.210   4.447
 4697TIP3    H214098   6.147   5.195   4.330
 4698TIP3   OH214099   3.810   3.099   2.892
 4698TIP3    H114100   3.800   3.004   2.896
 4698TIP3    H214101   3.902   3.114   2.915
 4699TIP3   OH214102   3.999   0.786   2.127
 4699TIP3    H114103   4.093   0.799   2.136
 4699TIP3    H214104   3.980   0.713   2.186
 4700TIP3   OH214105   3.213   0.178   0.507
 4700TIP3    H114106   3.292   0.212   0.464
 4700TIP3    H214107   3.217   0.083   0.493
 4701TIP3   OH214108   2.850   4.316   5.034
 4701TIP3    H114109   2.775   4.344   4.982
 4701TIP3    H214110   2.908   4.275   4.970
 4702TIP3   OH214111   1.028   0.711   2.912
 4702TIP3    H114112   0.950   0.761   2.938
 4702TIP3    H214113   1.081   0.773   2.863
 4703TIP3   OH214114   0.465   0.361   0.553
 4703TIP3    H114115   0.471   0.404   0.468
 4703TIP3    H214116   0.449   0.433   0.614
 4704TIP3   OH214117   0.211   4.604   4.910
 4704TIP3    H114118   0.269   4.677   4.888
 4704TIP3    H214119   0.257   4.527   4.877
 4705TIP3   OH214120   3.641   0.986   2.965
 4705TIP3    H114121   3.668   0.973   3.056
 4705TIP3    H214122   3.649   1.080   2.951
 4706TIP3   OH214123   4.906   1.572   3.044
 4706TIP3    H114124   4.831   1.551   2.987
 4706TIP3    H214125   4.906   1.667   3.050
 4707TIP3   OH214126   4.856   3.977   3.418
 4707TIP3    H114127   4.948   3.988   3.438
 4707TIP3    H214128   4.855   3.921   3.340
 4708TIP3   OH214129   5.727   1.347   4.354
 4708TIP3    H114130   5.718   1.298   4.436
 4708TIP3    H214131   5.810   1.318   4.318
 4709TIP3   OH214132   1.517   0.918   3.007
 4709TIP3    H114133   1.539   0.913   2.914
 4709TIP3    H214134   1.601   0.931   3.051
 4710TIP3   OH214135   6.150   0.616   4.370
 4710TIP3    H114136   6.159   0.605   4.464
 4710TIP3    H214137   6.068   0.573   4.347
 4711TIP3   OH214138   3.344   1.257   3.832
 4711TIP3    H114139   3.292   1.177   3.824
 4711TIP3    H214140   3.433   1.231   3.809
 4712TIP3   OH214141   2.631   5.392   2.719
 4712TIP3    H114142   2.610   5.453   2.648
 4712TIP3    H214143   2.724   5.409   2.738
 4713TIP3   OH214144   1.544   2.048   3.009
 4713TIP3    H114145   1.563   2.027   2.918
 4713TIP3    H214146   1.604   1.993   3.060
 4714TIP3   OH214147   0.853   0.391   3.470
 4714TIP3    H114148   0.825   0.482   3.467
 4714TIP3    H214149   0.948   0.395   3.460
 4715TIP3   OH214150  -0.044   5.449   2.649
 4715TIP3    H114151  -0.070   5.420   2.562
 4715TIP3    H214152   0.051   5.436   2.652
 4716TIP3   OH214153   0.734   5.012   0.375
 4716TIP3    H114154   0.708   5.037   0.287
 4716TIP3    H214155   0.818   4.967   0.363
 4717TIP3   OH214156   5.678   2.408   3.417
 4717TIP3    H114157   5.586   2.398   3.441
 4717TIP3    H214158   5.726   2.366   3.489
 4718TIP3   OH214159   6.236   3.436   2.176
 4718TIP3    H114160   6.221   3.417   2.083
 4718TIP3    H214161   6.148   3.446   2.213
 4719TIP3   OH214162   1.324   1.094   4.478
 4719TIP3    H114163   1.238   1.115   4.440
 4719TIP3    H214164   1.315   1.004   4.509
 4720TIP3   OH214165   2.009   1.498   5.067
 4720TIP3    H114166   2.101   1.496   5.093
 4720TIP3    H214167   1.965   1.442   5.131
 4721TIP3   OH214168   5.293   1.922   4.221
 4721TIP3    H114169   5.210   1.959   4.250
 4721TIP3    H214170   5.270   1.837   4.185
 4722TIP3   OH214171   3.969   0.606   4.507
 4722TIP3    H114172   3.938   0.579   4.421
 4722TIP3    H214173   4.028   0.680   4.489
 4723TIP3   OH214174   5.399   5.289   2.666
 4723TIP3    H114175   5.433   5.310   2.752
 4723TIP3    H214176   5.338   5.360   2.645
 4724TIP3   OH214177   0.448   2.053   0.805
 4724TIP3    H114178   0.386   1.979   0.806
 4724TIP3    H214179   0.496   2.042   0.723
 4725TIP3   OH214180   0.526   4.780   2.418
 4725TIP3    H114181   0.573   4.859   2.392
 4725TIP3    H214182   0.456   4.811   2.476
 4726TIP3   OH214183   0.242   0.832   3.253
 4726TIP3    H114184   0.281   0.843   3.166
 4726TIP3    H214185   0.206   0.743   3.252
 4727TIP3   OH214186   0.480   3.900   3.545
 4727TIP3    H114187   0.385   3.907   3.547
 4727TIP3    H214188   0.498   3.845   3.469
 4728TIP3   OH214189   0.988   4.709   2.813
 4728TIP3    H114190   0.918   4.653   2.779
 4728TIP3    H214191   0.946   4.794   2.825
 4729TIP3   OH214192   1.086   1.854   0.488
 4729TIP3    H114193   1.150   1.784   0.481
 4729TIP3    H214194   1.079   1.890   0.400
 4730TIP3   OH214195   4.343   2.503   2.411
 4730TIP3    H114196   4.409   2.473   2.348
 4730TIP3    H214197   4.263   2.514   2.360
 4731TIP3   OH214198   3.730   1.339   1.352
 4731TIP3    H114199   3.673   1.312   1.280
 4731TIP3    H214200   3.783   1.262   1.372
 4732TIP3   OH214201   1.079   4.011   0.091
 4732TIP3    H114202   1.072   3.980   0.181
 4732TIP3    H214203   1.011   4.078   0.083
 4733TIP3   OH214204   1.622   3.556   3.807
 4733TIP3    H114205   1.692   3.502   3.771
 4733TIP3    H214206   1.560   3.494   3.844
 4734TIP3   OH214207   2.265   5.821   0.030
 4734TIP3    H114208   2.199   5.805   0.097
 4734TIP3    H214209   2.330   5.877   0.074
 4735TIP3   OH214210   1.862   5.443   2.880
 4735TIP3    H114211   1.768   5.438   2.900
 4735TIP3    H214212   1.878   5.536   2.867
 4736TIP3   OH214213   0.329   3.961   2.405
 4736TIP3    H114214   0.425   3.959   2.408
 4736TIP3    H214215   0.308   3.976   2.313
 4737TIP3   OH214216   4.020   5.623   1.523
 4737TIP3    H114217   4.076   5.636   1.600
 4737TIP3    H214218   4.023   5.707   1.477
 4738TIP3   OH214219   0.759   2.845   2.907
 4738TIP3    H114220   0.742   2.919   2.965
 4738TIP3    H214221   0.803   2.781   2.963
 4739TIP3   OH214222   0.920   2.369   1.205
 4739TIP3    H114223   0.991   2.400   1.262
 4739TIP3    H214224   0.913   2.436   1.137
 4740TIP3   OH214225   2.196   2.462   1.761
 4740TIP3    H114226   2.237   2.375   1.764
 4740TIP3    H214227   2.129   2.455   1.693
 4741TIP3   OH214228   6.112   3.126   1.773
 4741TIP3    H114229   6.196   3.080   1.779
 4741TIP3    H214230   6.111   3.186   1.847
 4742TIP3   OH214231   1.251   3.674   0.218
 4742TIP3    H114232   1.290   3.761   0.214
 4742TIP3    H214233   1.215   3.659   0.131
 4743TIP3   OH214234   4.749   4.469   0.985
 4743TIP3    H114235   4.694   4.514   0.921
 4743TIP3    H214236   4.706   4.385   0.999
 4744TIP3   OH214237   0.748   3.737   0.244
 4744TIP3    H114238   0.764   3.666   0.306
 4744TIP3    H214239   0.659   3.722   0.213
 4745TIP3   OH214240   0.324   5.165   0.634
 4745TIP3    H114241   0.282   5.087   0.670
 4745TIP3    H214242   0.402   5.132   0.589
 4746TIP3   OH214243   0.546   2.973   1.859
 4746TIP3    H114244   0.598   3.052   1.848
 4746TIP3    H214245   0.456   3.001   1.841
 4747TIP3   OH214246   4.548   0.769   4.596
 4747TIP3    H114247   4.565   0.863   4.602
 4747TIP3    H214248   4.456   0.763   4.569
 4748TIP3   OH214249   2.629   4.248   3.133
 4748TIP3    H114250   2.717   4.281   3.150
 4748TIP3    H214251   2.575   4.287   3.201
 4749TIP3   OH214252   5.758   1.025   3.593
 4749TIP3    H114253   5.809   0.944   3.584
 4749TIP3    H214254   5.680   1.010   3.539
 4750TIP3   OH214255   4.220   3.617   4.645
 4750TIP3    H114256   4.143   3.606   4.701
 4750TIP3    H214257   4.189   3.674   4.574
 4751TIP3   OH214258   2.924   2.359   4.350
 4751TIP3    H114259   3.014   2.360   4.381
 4751TIP3    H214260   2.871   2.344   4.428
 4752TIP3   OH214261   1.722   3.528   4.397
 4752TIP3    H114262   1.793   3.535   4.462
 4752TIP3    H214263   1.767   3.524   4.313
 4753TIP3   OH214264   0.971   3.165   1.567
 4753TIP3    H114265   1.039   3.113   1.526
 4753TIP3    H214266   0.900   3.168   1.502
 4754TIP3   OH214267   0.748   0.547   2.332
 4754TIP3    H114268   0.841   0.566   2.328
 4754TIP3    H214269   0.707   0.615   2.278
 4755TIP3   OH214270   2.639   5.678   2.897
 4755TIP3    H114271   2.657   5.730   2.819
 4755TIP3    H214272   2.545   5.659   2.892
 4756TIP3   OH214273   2.083   0.629   3.745
 4756TIP3    H114274   2.005   0.677   3.718
 4756TIP3    H214275   2.152   0.696   3.748
 4757TIP3   OH214276   2.931   2.434   1.644
 4757TIP3    H114277   2.846   2.405   1.611
 4757TIP3    H214278   2.914   2.520   1.683
 4758TIP3   OH214279   3.553   0.483   4.178
 4758TIP3    H114280   3.461   0.500   4.161
 4758TIP3    H214281   3.600   0.542   4.119
 4759TIP3   OH214282   3.257   0.490   0.738
 4759TIP3    H114283   3.263   0.465   0.646
 4759TIP3    H214284   3.168   0.524   0.748
 4760TIP3   OH214285   0.097   0.624   3.176
 4760TIP3    H114286   0.067   0.534   3.190
 4760TIP3    H214287   0.109   0.632   3.082
 4761TIP3   OH214288   3.945   5.337   1.694
 4761TIP3    H114289   3.980   5.343   1.605
 4761TIP3    H214290   4.022   5.344   1.750
 4762TIP3   OH214291   2.173   1.676   1.008
 4762TIP3    H114292   2.121   1.601   1.037
 4762TIP3    H214293   2.156   1.743   1.073
 4763TIP3   OH214294   3.651   1.648   4.568
 4763TIP3    H114295   3.687   1.679   4.651
 4763TIP3    H214296   3.647   1.726   4.513
 4764TIP3   OH214297   3.540   2.938   2.274
 4764TIP3    H114298   3.507   2.893   2.196
 4764TIP3    H214299   3.563   3.026   2.244
 4765TIP3   OH214300   2.615   4.394   1.583
 4765TIP3    H114301   2.637   4.304   1.560
 4765TIP3    H214302   2.698   4.431   1.614
 4766TIP3   OH214303   2.044   5.154   3.174
 4766TIP3    H114304   1.958   5.176   3.137
 4766TIP3    H214305   2.095   5.126   3.099
 4767TIP3   OH214306   3.808   4.838   0.052
 4767TIP3    H114307   3.803   4.748   0.021
 4767TIP3    H214308   3.799   4.831   0.147
 4768TIP3   OH214309   4.836   4.439   4.140
 4768TIP3    H114310   4.898   4.398   4.081
 4768TIP3    H214311   4.766   4.471   4.083
 4769TIP3   OH214312   3.362   5.553   0.684
 4769TIP3    H114313   3.375   5.647   0.688
 4769TIP3    H214314   3.402   5.519   0.764
 4770TIP3   OH214315   3.891   5.881   0.726
 4770TIP3    H114316   3.909   5.973   0.744
 4770TIP3    H214317   3.885   5.877   0.630
 4771TIP3   OH214318  -0.054   4.636   5.010
 4771TIP3    H114319   0.035   4.625   4.978
 4771TIP3    H214320  -0.058   4.728   5.037
 4772TIP3   OH214321   1.656   4.356   4.495
 4772TIP3    H114322   1.579   4.299   4.499
 4772TIP3    H214323   1.627   4.432   4.445
 4773TIP3   OH214324   5.296   2.225   1.968
 4773TIP3    H114325   5.343   2.156   2.013
 4773TIP3    H214326   5.300   2.300   2.028
 4774TIP3   OH214327   3.475   2.983   4.539
 4774TIP3    H114328   3.539   3.048   4.508
 4774TIP3    H214329   3.529   2.914   4.577
 4775TIP3   OH214330   1.576   4.744   4.563
 4775TIP3    H114331   1.523   4.688   4.507
 4775TIP3    H214332   1.647   4.688   4.594
 4776TIP3   OH214333   6.044   1.299   1.288
 4776TIP3    H114334   6.048   1.318   1.382
 4776TIP3    H214335   5.999   1.374   1.250
 4777TIP3   OH214336   4.650   3.828   1.625
 4777TIP3    H114337   4.660   3.734   1.639
 4777TIP3    H214338   4.558   3.839   1.599
 4778TIP3   OH214339   2.124   4.235   3.213
 4778TIP3    H114340   2.216   4.262   3.220
 4778TIP3    H214341   2.127   4.151   3.166
 4779TIP3   OH214342   3.682   4.210   2.359
 4779TIP3    H114343   3.653   4.143   2.421
 4779TIP3    H214344   3.768   4.237   2.391
 4780TIP3   OH214345   3.155   3.389   2.782
 4780TIP3    H114346   3.092   3.345   2.839
 4780TIP3    H214347   3.108   3.466   2.750
 4781TIP3   OH214348   2.862   5.766   0.850
 4781TIP3    H114349   2.882   5.672   0.850
 4781TIP3    H214350   2.945   5.808   0.828
 4782TIP3   OH214351   0.314   2.436   4.087
 4782TIP3    H114352   0.227   2.396   4.080
 4782TIP3    H214353   0.323   2.458   4.180
 4783TIP3   OH214354   1.949   3.412   2.044
 4783TIP3    H114355   1.997   3.478   1.993
 4783TIP3    H214356   2.013   3.379   2.107
 4784TIP3   OH214357   4.210   4.359   3.272
 4784TIP3    H114358   4.234   4.438   3.222
 4784TIP3    H214359   4.151   4.390   3.340
 4785TIP3   OH214360   3.358   3.260   1.912
 4785TIP3    H114361   3.336   3.245   1.820
 4785TIP3    H214362   3.353   3.174   1.952
 4786TIP3   OH214363   3.568   4.888   0.609
 4786TIP3    H114364   3.655   4.849   0.613
 4786TIP3    H214365   3.522   4.851   0.684
 4787TIP3   OH214366   6.262   4.181   1.183
 4787TIP3    H114367   6.279   4.213   1.272
 4787TIP3    H214368   6.192   4.117   1.194
 4788TIP3   OH214369   0.883   2.607   1.420
 4788TIP3    H114370   0.812   2.663   1.389
 4788TIP3    H214371   0.945   2.666   1.462
 4789TIP3   OH214372   3.774   0.583   2.751
 4789TIP3    H114373   3.757   0.564   2.659
 4789TIP3    H214374   3.705   0.645   2.776
 4790TIP3   OH214375   1.139   3.915   3.213
 4790TIP3    H114376   1.172   3.919   3.303
 4790TIP3    H214377   1.048   3.885   3.222
 4791TIP3   OH214378   5.966   0.166   3.365
 4791TIP3    H114379   6.033   0.234   3.372
 4791TIP3    H214380   6.002   0.092   3.413
 4792TIP3   OH214381   4.669   0.234   2.522
 4792TIP3    H114382   4.673   0.329   2.530
 4792TIP3    H214383   4.672   0.202   2.612
 4793TIP3   OH214384   4.802   2.600   0.413
 4793TIP3    H114385   4.803   2.692   0.439
 4793TIP3    H214386   4.771   2.601   0.322
 4794TIP3   OH214387   0.311   5.504   2.382
 4794TIP3    H114388   0.258   5.457   2.446
 4794TIP3    H214389   0.305   5.596   2.408
 4795TIP3   OH214390   5.355   1.544   2.645
 4795TIP3    H114391   5.389   1.620   2.599
 4795TIP3    H214392   5.432   1.503   2.685
 4796TIP3   OH214393   5.888   4.223   3.095
 4796TIP3    H114394   5.926   4.140   3.065
 4796TIP3    H214395   5.939   4.247   3.172
 4797TIP3   OH214396   0.047   5.762   3.370
 4797TIP3    H114397   0.099   5.815   3.309
 4797TIP3    H214398   0.101   5.757   3.449
 4798TIP3   OH214399   0.006   1.694   0.187
 4798TIP3    H114400   0.044   1.608   0.171
 4798TIP3    H214401   0.056   1.729   0.261
 4799TIP3   OH214402   0.589   4.855   0.134
 4799TIP3    H114403   0.667   4.897   0.099
 4799TIP3    H214404   0.620   4.774   0.174
 4800TIP3   OH214405   4.001   5.032   1.022
 4800TIP3    H114406   4.011   5.097   1.092
 4800TIP3    H214407   4.072   4.969   1.038
 4801TIP3   OH214408   0.678   2.468   0.394
 4801TIP3    H114409   0.633   2.541   0.437
 4801TIP3    H214410   0.694   2.406   0.465
 4802TIP3   OH214411   5.444   4.989   2.941
 4802TIP3    H114412   5.378   5.036   2.991
 4802TIP3    H214413   5.522   5.044   2.944
 4803TIP3   OH214414   5.112   4.976   2.200
 4803TIP3    H114415   5.103   5.030   2.121
 4803TIP3    H214416   5.197   4.932   2.189
 4804TIP3   OH214417   5.111   0.313   0.525
 4804TIP3    H114418   5.035   0.341   0.575
 4804TIP3    H214419   5.173   0.282   0.591
 4805TIP3   OH214420   3.037   2.388   3.060
 4805TIP3    H114421   3.122   2.426   3.080
 4805TIP3    H214422   3.042   2.363   2.968
 4806TIP3   OH214423   1.328   5.113   0.217
 4806TIP3    H114424   1.388   5.184   0.238
 4806TIP3    H214425   1.298   5.081   0.302
 4807TIP3   OH214426   5.496   4.672   1.579
 4807TIP3    H114427   5.471   4.679   1.487
 4807TIP3    H214428   5.482   4.579   1.600
 4808TIP3   OH214429   3.392   2.715   0.189
 4808TIP3    H114430   3.418   2.792   0.138
 4808TIP3    H214431   3.302   2.698   0.162
 4809TIP3   OH214432   4.108   0.522   3.320
 4809TIP3    H114433   4.146   0.605   3.351
 4809TIP3    H214434   4.130   0.519   3.227
 4810TIP3   OH214435   3.264   1.177   1.662
 4810TIP3    H114436   3.329   1.197   1.594
 4810TIP3    H214437   3.277   1.084   1.681
 4811TIP3   OH214438   1.005   1.880   2.478
 4811TIP3    H114439   0.948   1.805   2.458
 4811TIP3    H214440   0.945   1.954   2.489
 4812TIP3   OH214441   0.046   5.782   5.037
 4812TIP3    H114442   0.078   5.843   4.971
 4812TIP3    H214443  -0.028   5.827   5.078
 4813TIP3   OH214444   1.155   4.341   2.281
 4813TIP3    H114445   1.090   4.370   2.217
 4813TIP3    H214446   1.180   4.421   2.328
 4814TIP3   OH214447   4.298   3.137   0.804
 4814TIP3    H114448   4.270   3.101   0.720
 4814TIP3    H214449   4.299   3.232   0.790
 4815TIP3   OH214450   0.286   2.468   1.518
 4815TIP3    H114451   0.369   2.506   1.547
 4815TIP3    H214452   0.223   2.540   1.524
 4816TIP3   OH214453   6.029   3.013   0.360
 4816TIP3    H114454   6.118   3.002   0.395
 4816TIP3    H214455   5.996   2.923   0.350
 4817TIP3   OH214456   3.680   0.836   4.950
 4817TIP3    H114457   3.772   0.815   4.938
 4817TIP3    H214458   3.634   0.754   4.933
 4818TIP3   OH214459   0.349   1.491   0.758
 4818TIP3    H114460   0.339   1.405   0.800
 4818TIP3    H214461   0.268   1.537   0.778
 4819TIP3   OH214462   1.934   1.217   3.980
 4819TIP3    H114463   1.967   1.153   3.918
 4819TIP3    H214464   1.854   1.251   3.941
 4820TIP3   OH214465   1.877   0.517   4.169
 4820TIP3    H114466   1.813   0.510   4.240
 4820TIP3    H214467   1.910   0.428   4.157
 4821TIP3   OH214468   3.216   3.915   3.803
 4821TIP3    H114469   3.196   3.985   3.741
 4821TIP3    H214470   3.218   3.959   3.888
 4822TIP3   OH214471   3.367   4.692   1.967
 4822TIP3    H114472   3.308   4.748   1.916
 4822TIP3    H214473   3.427   4.655   1.902
 4823TIP3   OH214474   3.740   3.748  -0.023
 4823TIP3    H114475   3.793   3.800  -0.084
 4823TIP3    H214476   3.693   3.687  -0.079
 4824TIP3   OH214477   3.495   2.312   5.009
 4824TIP3    H114478   3.549   2.286   4.935
 4824TIP3    H214479   3.459   2.230   5.042
 4825TIP3   OH214480   5.147   3.525   0.739
 4825TIP3    H114481   5.062   3.561   0.714
 4825TIP3    H214482   5.126   3.438   0.775
 4826TIP3   OH214483   2.988   3.483   2.144
 4826TIP3    H114484   2.902   3.520   2.164
 4826TIP3    H214485   2.994   3.406   2.201
 4827TIP3   OH214486   1.556   1.139   3.407
 4827TIP3    H114487   1.547   1.048   3.433
 4827TIP3    H214488   1.468   1.167   3.384
 4828TIP3   OH214489   0.193   0.331   2.962
 4828TIP3    H114490   0.256   0.391   3.002
 4828TIP3    H214491   0.172   0.268   3.031
 4829TIP3   OH214492   1.384   1.301   2.303
 4829TIP3    H114493   1.307   1.245   2.319
 4829TIP3    H214494   1.349   1.378   2.258
 4830TIP3   OH214495   3.122   2.397   1.977
 4830TIP3    H114496   3.179   2.374   1.905
 4830TIP3    H214497   3.100   2.489   1.962
 4831TIP3   OH214498   2.172   2.892   3.457
 4831TIP3    H114499   2.238   2.931   3.401
 4831TIP3    H214500   2.220   2.865   3.536
 4832TIP3   OH214501   3.027   1.960   3.998
 4832TIP3    H114502   3.016   2.010   3.917
 4832TIP3    H214503   2.969   2.003   4.061
 4833TIP3   OH214504   2.993   1.246   0.369
 4833TIP3    H114505   3.078   1.235   0.327
 4833TIP3    H214506   2.997   1.193   0.448
 4834TIP3   OH214507   0.632   1.695   1.051
 4834TIP3    H114508   0.694   1.671   1.120
 4834TIP3    H214509   0.569   1.622   1.049
 4835TIP3   OH214510   4.385   2.694   3.913
 4835TIP3    H114511   4.472   2.658   3.899
 4835TIP3    H214512   4.387   2.729   4.002
 4836TIP3   OH214513   3.578   2.776   3.316
 4836TIP3    H114514   3.630   2.773   3.235
 4836TIP3    H214515   3.488   2.789   3.286
 4837TIP3   OH214516   4.036   1.983   4.290
 4837TIP3    H114517   4.085   1.981   4.208
 4837TIP3    H214518   3.971   1.914   4.282
 4838TIP3   OH214519   6.332   0.955   3.429
 4838TIP3    H114520   6.413   0.990   3.465
 4838TIP3    H214521   6.267   1.023   3.444
 4839TIP3   OH214522   3.882   1.819   1.114
 4839TIP3    H114523   3.881   1.783   1.203
 4839TIP3    H214524   3.812   1.772   1.069
 4840TIP3   OH214525   3.588   1.724   1.030
 4840TIP3    H114526   3.599   1.814   1.001
 4840TIP3    H214527   3.512   1.692   0.982
 4841TIP3   OH214528   1.244   3.869   2.949
 4841TIP3    H114529   1.223   3.908   3.034
 4841TIP3    H214530   1.176   3.803   2.935
 4842TIP3   OH214531   4.070   0.990   2.438
 4842TIP3    H114532   3.977   1.005   2.421
 4842TIP3    H214533   4.109   1.078   2.431
 4843TIP3   OH214534   5.317   4.442   3.414
 4843TIP3    H114535   5.316   4.410   3.323
 4843TIP3    H214536   5.404   4.481   3.424
 4844TIP3   OH214537   5.495   1.282   1.231
 4844TIP3    H114538   5.460   1.253   1.316
 4844TIP3    H214539   5.419   1.281   1.172
 4845TIP3   OH214540   5.777   4.463   2.875
 4845TIP3    H114541   5.722   4.389   2.848
 4845TIP3    H214542   5.811   4.499   2.793
 4846TIP3   OH214543   1.649   0.372   2.390
 4846TIP3    H114544   1.609   0.439   2.445
 4846TIP3    H214545   1.586   0.360   2.318
 4847TIP3   OH214546   0.676   1.221   4.756
 4847TIP3    H114547   0.682   1.126   4.753
 4847TIP3    H214548   0.745   1.248   4.817
 4848TIP3   OH214549   3.498   4.691   3.443
 4848TIP3    H114550   3.547   4.637   3.381
 4848TIP3    H214551   3.563   4.753   3.477
 4849TIP3   OH214552   0.739   3.771   2.764
 4849TIP3    H114553   0.761   3.695   2.819
 4849TIP3    H214554   0.816   3.783   2.708
 4850TIP3   OH214555   0.840   4.472   4.175
 4850TIP3    H114556   0.798   4.545   4.220
 4850TIP3    H214557   0.799   4.470   4.088
 4851TIP3   OH214558   2.557   2.219   2.033
 4851TIP3    H114559   2.633   2.178   2.075
 4851TIP3    H214560   2.562   2.190   1.942
 4852TIP3   OH214561   3.767   2.262   3.959
 4852TIP3    H114562   3.720   2.342   3.934
 4852TIP3    H214563   3.850   2.268   3.912
 4853TIP3   OH214564   4.321   4.400   2.918
 4853TIP3    H114565   4.263   4.469   2.950
 4853TIP3    H214566   4.397   4.404   2.976
 4854TIP3   OH214567   1.139   0.275   1.461
 4854TIP3    H114568   1.116   0.215   1.531
 4854TIP3    H214569   1.090   0.355   1.481
 4855TIP3   OH214570   3.474   3.802   3.750
 4855TIP3    H114571   3.464   3.750   3.670
 4855TIP3    H214572   3.389   3.844   3.762
 4856TIP3   OH214573   3.036   5.254   3.803
 4856TIP3    H114574   2.983   5.186   3.844
 4856TIP3    H214575   3.060   5.313   3.874
 4857TIP3   OH214576   0.859   5.523   3.233
 4857TIP3    H114577   0.785   5.574   3.201
 4857TIP3    H214578   0.896   5.482   3.155
 4858TIP3   OH214579   4.971   5.049   3.401
 4858TIP3    H114580   4.906   5.047   3.331
 4858TIP3    H214581   5.011   5.136   3.394
 4859TIP3   OH214582   5.513   1.448   3.826
 4859TIP3    H114583   5.458   1.441   3.904
 4859TIP3    H214584   5.600   1.420   3.856
 4860TIP3   OH214585   4.905   3.027   2.451
 4860TIP3    H114586   4.898   2.964   2.523
 4860TIP3    H214587   4.872   3.109   2.488
 4861TIP3   OH214588   4.079   5.074   3.792
 4861TIP3    H114589   4.003   5.021   3.817
 4861TIP3    H214590   4.154   5.027   3.830
 4862TIP3   OH214591   2.355   2.837   3.647
 4862TIP3    H114592   2.445   2.807   3.636
 4862TIP3    H214593   2.362   2.914   3.703
 4863TIP3   OH214594   2.049   0.334   2.145
 4863TIP3    H114595   2.138   0.340   2.112
 4863TIP3    H214596   2.049   0.258   2.202
 4864TIP3   OH214597   5.899   2.399   1.237
 4864TIP3    H114598   5.942   2.314   1.234
 4864TIP3    H214599   5.843   2.396   1.315
 4865TIP3   OH214600   3.051   0.238   2.362
 4865TIP3    H114601   3.037   0.304   2.430
 4865TIP3    H214602   3.075   0.288   2.284
 4866TIP3   OH214603   5.493   2.898   3.912
 4866TIP3    H114604   5.455   2.875   3.827
 4866TIP3    H214605   5.440   2.849   3.975
 4867TIP3   OH214606   6.034   2.047   5.089
 4867TIP3    H114607   6.016   2.121   5.031
 4867TIP3    H214608   6.098   1.994   5.041
 4868TIP3   OH214609   3.575   1.136   3.709
 4868TIP3    H114610   3.575   1.041   3.693
 4868TIP3    H214611   3.613   1.145   3.796
 4869TIP3   OH214612   3.922   3.392   1.457
 4869TIP3    H114613   4.012   3.419   1.471
 4869TIP3    H214614   3.928   3.321   1.394
 4870TIP3   OH214615   0.757   1.828   2.646
 4870TIP3    H114616   0.830   1.827   2.708
 4870TIP3    H214617   0.737   1.921   2.634
 4871TIP3   OH214618   1.334   5.145   3.777
 4871TIP3    H114619   1.355   5.113   3.690
 4871TIP3    H214620   1.246   5.182   3.769
 4872TIP3   OH214621   1.415   5.748   4.993
 4872TIP3    H114622   1.399   5.802   4.916
 4872TIP3    H214623   1.436   5.661   4.958
 4873TIP3   OH214624   1.865   5.196   0.516
 4873TIP3    H114625   1.848   5.235   0.430
 4873TIP3    H214626   1.782   5.154   0.540
 4874TIP3   OH214627   2.775   2.431   3.832
 4874TIP3    H114628   2.785   2.392   3.745
 4874TIP3    H214629   2.860   2.416   3.875
 4875TIP3   OH214630   0.299   2.190   0.554
 4875TIP3    H114631   0.367   2.172   0.490
 4875TIP3    H214632   0.303   2.117   0.615
 4876TIP3   OH214633   2.712   3.672   3.734
 4876TIP3    H114634   2.787   3.631   3.777
 4876TIP3    H214635   2.643   3.606   3.739
 4877TIP3   OH214636   0.544   2.173   5.149
 4877TIP3    H114637   0.461   2.204   5.111
 4877TIP3    H214638   0.535   2.188   5.243
 4878TIP3   OH214639   2.446   5.855   2.398
 4878TIP3    H114640   2.509   5.909   2.351
 4878TIP3    H214641   2.412   5.795   2.332
 4879TIP3   OH214642   6.208   5.995   2.031
 4879TIP3    H114643   6.167   5.966   2.112
 4879TIP3    H214644   6.256   5.918   1.999
 4880TIP3   OH214645   3.348   2.267   3.301
 4880TIP3    H114646   3.335   2.211   3.224
 4880TIP3    H214647   3.437   2.301   3.292
 4881TIP3   OH214648   6.195   1.455   3.614
 4881TIP3    H114649   6.288   1.431   3.613
 4881TIP3    H214650   6.170   1.457   3.522
 4882TIP3   OH214651   2.243   1.271   2.192
 4882TIP3    H114652   2.295   1.334   2.243
 4882TIP3    H214653   2.257   1.296   2.101
 4883TIP3   OH214654   2.668   2.892   2.727
 4883TIP3    H114655   2.703   2.977   2.702
 4883TIP3    H214656   2.745   2.839   2.749
 4884TIP3   OH214657   5.234   4.979   0.557
 4884TIP3    H114658   5.234   4.883   0.555
 4884TIP3    H214659   5.324   5.003   0.580
 4885TIP3   OH214660   1.647   3.717   4.102
 4885TIP3    H114661   1.734   3.724   4.063
 4885TIP3    H214662   1.587   3.751   4.036
 4886TIP3   OH214663   1.904   1.669   2.432
 4886TIP3    H114664   1.906   1.577   2.456
 4886TIP3    H214665   1.877   1.714   2.512
 4887TIP3   OH214666   5.579   2.635   1.557
 4887TIP3    H114667   5.594   2.598   1.644
 4887TIP3    H214668   5.607   2.726   1.563
 4888TIP3   OH214669   4.322   2.270   0.580
 4888TIP3    H114670   4.232   2.282   0.612
 4888TIP3    H214671   4.338   2.346   0.525
 4889TIP3   OH214672   0.573   0.400   3.248
 4889TIP3    H114673   0.579   0.431   3.338
 4889TIP3    H214674   0.661   0.412   3.213
 4890TIP3   OH214675   2.786   5.807   1.143
 4890TIP3    H114676   2.775   5.863   1.220
 4890TIP3    H214677   2.849   5.740   1.170
 4891TIP3   OH214678   2.391   3.039   3.313
 4891TIP3    H114679   2.451   3.052   3.386
 4891TIP3    H214680   2.447   3.030   3.237
 4892TIP3   OH214681   5.445   2.287   0.064
 4892TIP3    H114682   5.382   2.357   0.044
 4892TIP3    H214683   5.412   2.212   0.016
 4893TIP3   OH214684   4.913   4.045   1.000
 4893TIP3    H114685   5.003   4.045   0.969
 4893TIP3    H214686   4.885   4.136   0.996
 4894TIP3   OH214687   4.500   3.177   4.104
 4894TIP3    H114688   4.450   3.257   4.121
 4894TIP3    H214689   4.461   3.140   4.025
 4895TIP3   OH214690   2.677   3.772   2.532
 4895TIP3    H114691   2.728   3.700   2.569
 4895TIP3    H214692   2.722   3.793   2.450
 4896TIP3   OH214693   2.164   4.970   1.287
 4896TIP3    H114694   2.154   4.902   1.220
 4896TIP3    H214695   2.089   5.029   1.272
 4897TIP3   OH214696   3.953   5.313   3.823
 4897TIP3    H114697   4.027   5.252   3.827
 4897TIP3    H214698   3.915   5.310   3.910
 4898TIP3   OH214699   4.120   5.044   0.032
 4898TIP3    H114700   4.214   5.050   0.047
 4898TIP3    H214701   4.101   4.950   0.041
 4899TIP3   OH214702   6.167   5.253   4.606
 4899TIP3    H114703   6.142   5.283   4.694
 4899TIP3    H214704   6.104   5.296   4.548
 4900TIP3   OH214705   5.261   0.994   3.897
 4900TIP3    H114706   5.356   0.996   3.909
 4900TIP3    H214707   5.229   1.072   3.943
 4901TIP3   OH214708   5.353   2.475   4.959
 4901TIP3    H114709   5.335   2.549   5.018
 4901TIP3    H214710   5.419   2.423   5.007
 4902TIP3   OH214711   4.626   1.849   3.770
 4902TIP3    H114712   4.594   1.773   3.817
 4902TIP3    H214713   4.685   1.892   3.832
 4903TIP3   OH214714   4.205   4.682   1.811
 4903TIP3    H114715   4.223   4.651   1.900
 4903TIP3    H214716   4.220   4.606   1.756
 4904TIP3   OH214717   1.331   3.025   0.869
 4904TIP3    H114718   1.369   3.057   0.950
 4904TIP3    H214719   1.239   3.007   0.890
 4905TIP3   OH214720   3.913   3.732   0.235
 4905TIP3    H114721   3.923   3.786   0.314
 4905TIP3    H214722   3.844   3.776   0.186
 4906TIP3   OH214723   5.540   2.338   0.437
 4906TIP3    H114724   5.544   2.278   0.363
 4906TIP3    H214725   5.584   2.292   0.508
 4907TIP3   OH214726   5.789   2.964   4.781
 4907TIP3    H114727   5.733   3.014   4.722
 4907TIP3    H214728   5.831   3.029   4.837
 4908TIP3   OH214729   4.748   5.221   2.149
 4908TIP3    H114730   4.795   5.272   2.214
 4908TIP3    H214731   4.726   5.139   2.193
 4909TIP3   OH214732   5.503   0.819   1.011
 4909TIP3    H114733   5.449   0.869   0.950
 4909TIP3    H214734   5.543   0.750   0.957
 4910TIP3   OH214735   3.587   3.631   0.472
 4910TIP3    H114736   3.509   3.686   0.464
 4910TIP3    H214737   3.642   3.676   0.536
 4911TIP3   OH214738   1.882   4.351   3.965
 4911TIP3    H114739   1.827   4.415   3.921
 4911TIP3    H214740   1.932   4.402   4.029
 4912TIP3   OH214741   6.042   4.479   3.569
 4912TIP3    H114742   5.987   4.499   3.493
 4912TIP3    H214743   5.982   4.439   3.632
 4913TIP3   OH214744   4.144   0.306   0.018
 4913TIP3    H114745   4.159   0.396  -0.013
 4913TIP3    H214746   4.231   0.274   0.041
 4914TIP3   OH214747   4.136   2.916   1.364
 4914TIP3    H114748   4.117   2.826   1.339
 4914TIP3    H214749   4.090   2.928   1.447
 4915TIP3   OH214750   2.783   4.240   3.508
 4915TIP3    H114751   2.696   4.255   3.544
 4915TIP3    H214752   2.785   4.147   3.485
 4916TIP3   OH214753   4.726   5.127   4.340
 4916TIP3    H114754   4.788   5.141   4.411
 4916TIP3    H214755   4.766   5.169   4.264
 4917TIP3   OH214756   5.954   0.898   3.993
 4917TIP3    H114757   6.030   0.849   3.963
 4917TIP3    H214758   5.953   0.887   4.088
 4918TIP3   OH214759   5.630   2.648   4.270
 4918TIP3    H114760   5.573   2.723   4.285
 4918TIP3    H214761   5.702   2.659   4.331
 4919TIP3   OH214762   4.475   5.976   0.056
 4919TIP3    H114763   4.564   6.004   0.039
 4919TIP3    H214764   4.479   5.932   0.142
 4920TIP3   OH214765   2.549   5.701   4.666
 4920TIP3    H114766   2.524   5.707   4.758
 4920TIP3    H214767   2.589   5.786   4.647
 4921TIP3   OH214768   3.275   2.987   2.036
 4921TIP3    H114769   3.207   3.001   2.101
 4921TIP3    H214770   3.261   2.897   2.006
 4922TIP3   OH214771   1.253   0.610   4.360
 4922TIP3    H114772   1.188   0.626   4.428
 4922TIP3    H214773   1.298   0.530   4.388
 4923TIP3   OH214774   5.857   4.270   2.043
 4923TIP3    H114775   5.845   4.321   2.123
 4923TIP3    H214776   5.852   4.334   1.972
 4924TIP3   OH214777   2.243   1.252   2.676
 4924TIP3    H114778   2.324   1.290   2.709
 4924TIP3    H214779   2.268   1.211   2.593
 4925TIP3   OH214780   0.319   0.350   1.303
 4925TIP3    H114781   0.287   0.438   1.288
 4925TIP3    H214782   0.412   0.354   1.281
 4926TIP3   OH214783   0.725   4.984   2.467
 4926TIP3    H114784   0.719   5.056   2.405
 4926TIP3    H214785   0.813   4.990   2.504
 4927TIP3   OH214786   5.679   5.078   4.921
 4927TIP3    H114787   5.723   5.014   4.863
 4927TIP3    H214788   5.684   5.038   5.008
 4928TIP3   OH214789   3.817   0.639   2.478
 4928TIP3    H114790   3.793   0.713   2.534
 4928TIP3    H214791   3.734   0.611   2.439
 4929TIP3   OH214792   5.831   1.401   2.117
 4929TIP3    H114793   5.867   1.461   2.182
 4929TIP3    H214794   5.798   1.457   2.047
 4930TIP3   OH214795   3.485   0.544   3.833
 4930TIP3    H114796   3.451   0.577   3.750
 4930TIP3    H214797   3.413   0.492   3.870
 4931TIP3   OH214798   2.586   5.733   3.176
 4931TIP3    H114799   2.608   5.697   3.091
 4931TIP3    H214800   2.499   5.697   3.196
 4932TIP3   OH214801   2.934   5.688   3.000
 4932TIP3    H114802   2.910   5.732   3.082
 4932TIP3    H214803   2.850   5.674   2.956
 4933TIP3   OH214804   4.279   2.059   1.802
 4933TIP3    H114805   4.368   2.031   1.823
 4933TIP3    H214806   4.257   2.011   1.722
 4934TIP3   OH214807   1.704   1.286   4.927
 4934TIP3    H114808   1.736   1.290   5.017
 4934TIP3    H214809   1.731   1.369   4.888
 4935TIP3   OH214810   0.892   1.576   0.331
 4935TIP3    H114811   0.858   1.487   0.341
 4935TIP3    H214812   0.900   1.588   0.237
 4936TIP3   OH214813   4.057   4.946   0.570
 4936TIP3    H114814   4.152   4.957   0.566
 4936TIP3    H214815   4.023   5.035   0.558
 4937TIP3   OH214816   5.733   2.003   3.396
 4937TIP3    H114817   5.652   2.050   3.373
 4937TIP3    H214818   5.725   1.986   3.490
 4938TIP3   OH214819   1.320   2.995   3.917
 4938TIP3    H114820   1.386   2.974   3.850
 4938TIP3    H214821   1.333   3.088   3.935
 4939TIP3   OH214822   3.601   1.550   3.460
 4939TIP3    H114823   3.592   1.548   3.364
 4939TIP3    H214824   3.694   1.536   3.476
 4940TIP3   OH214825   0.230   4.016   2.143
 4940TIP3    H114826   0.192   4.099   2.172
 4940TIP3    H214827   0.203   4.008   2.051
 4941TIP3   OH214828   0.279   2.547   0.961
 4941TIP3    H114829   0.352   2.597   0.924
 4941TIP3    H214830   0.309   2.519   1.047
 4942TIP3   OH214831   5.886   5.557   2.703
 4942TIP3    H114832   5.873   5.462   2.702
 4942TIP3    H214833   5.929   5.576   2.620
 4943TIP3   OH214834   3.851   5.938   2.046
 4943TIP3    H114835   3.946   5.949   2.039
 4943TIP3    H214836   3.834   5.851   2.011
 4944TIP3   OH214837   4.798   1.530   2.280
 4944TIP3    H114838   4.800   1.468   2.208
 4944TIP3    H214839   4.843   1.485   2.352
 4945TIP3   OH214840   5.779   3.241   2.949
 4945TIP3    H114841   5.780   3.199   2.863
 4945TIP3    H214842   5.761   3.170   3.011
 4946TIP3   OH214843   3.880   2.346   4.648
 4946TIP3    H114844   3.867   2.267   4.596
 4946TIP3    H214845   3.947   2.395   4.601
 4947TIP3   OH214846   5.863   1.236   5.020
 4947TIP3    H114847   5.770   1.242   4.999
 4947TIP3    H214848   5.869   1.161   5.080
 4948TIP3   OH214849   2.787   3.122   3.422
 4948TIP3    H114850   2.773   3.077   3.339
 4948TIP3    H214851   2.702   3.119   3.465
 4949TIP3   OH214852   3.564   2.552   2.101
 4949TIP3    H114853   3.476   2.536   2.133
 4949TIP3    H214854   3.560   2.640   2.063
 4950TIP3   OH214855   1.599   4.694   3.659
 4950TIP3    H114856   1.574   4.615   3.706
 4950TIP3    H214857   1.617   4.758   3.728
 4951TIP3   OH214858   5.004   5.600   2.282
 4951TIP3    H114859   5.081   5.628   2.332
 4951TIP3    H214860   5.038   5.574   2.197
 4952TIP3   OH214861   2.849   5.909   0.403
 4952TIP3    H114862   2.917   5.974   0.384
 4952TIP3    H214863   2.810   5.938   0.485
 4953TIP3   OH214864   1.054   3.830   1.006
 4953TIP3    H114865   1.143   3.860   0.987
 4953TIP3    H214866   1.015   3.813   0.920
 4954TIP3   OH214867   1.801   0.294   3.472
 4954TIP3    H114868   1.837   0.378   3.447
 4954TIP3    H214869   1.818   0.288   3.567
 4955TIP3   OH214870   3.586   5.932   1.423
 4955TIP3    H114871   3.624   5.996   1.363
 4955TIP3    H214872   3.509   5.975   1.459
 4956TIP3   OH214873   3.611   3.798   1.873
 4956TIP3    H114874   3.567   3.728   1.825
 4956TIP3    H214875   3.647   3.754   1.951
 4957TIP3   OH214876   3.166   1.456   1.524
 4957TIP3    H114877   3.191   1.378   1.474
 4957TIP3    H214878   3.221   1.525   1.488
 4958TIP3   OH214879   4.570   5.316   2.508
 4958TIP3    H114880   4.493   5.339   2.560
 4958TIP3    H214881   4.632   5.279   2.571
 4959TIP3   OH214882   5.476   0.683   4.853
 4959TIP3    H114883   5.528   0.681   4.934
 4959TIP3    H214884   5.529   0.634   4.790
 4960TIP3   OH214885   5.333   2.277   3.545
 4960TIP3    H114886   5.326   2.237   3.632
 4960TIP3    H214887   5.369   2.208   3.489
 4961TIP3   OH214888   4.957   2.526   4.258
 4961TIP3    H114889   4.961   2.572   4.341
 4961TIP3    H214890   5.046   2.495   4.242
 4962TIP3   OH214891   1.952   3.601   2.990
 4962TIP3    H114892   1.934   3.649   3.071
 4962TIP3    H214893   1.974   3.513   3.019
 4963TIP3   OH214894   5.974   3.693   2.571
 4963TIP3    H114895   6.065   3.721   2.581
 4963TIP3    H214896   5.979   3.614   2.518
 4964TIP3   OH214897   6.272   2.676   2.779
 4964TIP3    H114898   6.328   2.751   2.757
 4964TIP3    H214899   6.331   2.613   2.821
 4965TIP3   OH214900   4.718   0.292   1.336
 4965TIP3    H114901   4.641   0.329   1.293
 4965TIP3    H214902   4.751   0.362   1.392
 4966TIP3   OH214903   6.133   5.926   4.790
 4966TIP3    H114904   6.057   5.881   4.828
 4966TIP3    H214905   6.125   6.016   4.821
 4967TIP3   OH214906   5.631   2.139   4.178
 4967TIP3    H114907   5.607   2.221   4.135
 4967TIP3    H214908   5.609   2.152   4.270
 4968TIP3   OH214909   4.528   1.038   0.181
 4968TIP3    H114910   4.493   0.972   0.121
 4968TIP3    H214911   4.537   1.116   0.126
 4969TIP3   OH214912   1.531   2.373   4.793
 4969TIP3    H114913   1.571   2.432   4.730
 4969TIP3    H214914   1.527   2.288   4.749
 4970TIP3   OH214915   2.212   3.479   4.585
 4970TIP3    H114916   2.247   3.526   4.661
 4970TIP3    H214917   2.286   3.473   4.525
 4971TIP3   OH214918   1.332   4.695   0.903
 4971TIP3    H114919   1.239   4.683   0.919
 4971TIP3    H214920   1.358   4.766   0.963
 4972TIP3   OH214921   0.152   1.265   3.298
 4972TIP3    H114922   0.123   1.268   3.389
 4972TIP3    H214923   0.092   1.324   3.252
 4973TIP3   OH214924   1.663   3.122   4.498
 4973TIP3    H114925   1.629   3.092   4.582
 4973TIP3    H214926   1.751   3.154   4.517
 4974TIP3   OH214927   0.828   1.056   4.088
 4974TIP3    H114928   0.810   1.134   4.036
 4974TIP3    H214929   0.766   1.060   4.161
 4975TIP3   OH214930   2.228   4.728   4.846
 4975TIP3    H114931   2.253   4.653   4.900
 4975TIP3    H214932   2.156   4.770   4.894
 4976TIP3   OH214933   3.015   4.134   1.452
 4976TIP3    H114934   3.079   4.163   1.388
 4976TIP3    H214935   3.038   4.043   1.470
 4977TIP3   OH214936   3.763   4.740   3.226
 4977TIP3    H114937   3.850   4.779   3.229
 4977TIP3    H214938   3.768   4.666   3.287
 4978TIP3   OH214939   4.181   4.628   3.363
 4978TIP3    H114940   4.104   4.667   3.321
 4978TIP3    H214941   4.154   4.614   3.454
 4979TIP3   OH214942   0.462   3.473   2.482
 4979TIP3    H114943   0.511   3.504   2.406
 4979TIP3    H214944   0.494   3.527   2.554
 4980TIP3   OH214945   0.062   0.529   4.898
 4980TIP3    H114946   0.092   0.477   4.824
 4980TIP3    H214947   0.102   0.488   4.974
 4981TIP3   OH214948   1.731   4.602   1.211
 4981TIP3    H114949   1.640   4.599   1.240
 4981TIP3    H214950   1.727   4.591   1.116
 4982TIP3   OH214951   4.798   4.623   2.469
 4982TIP3    H114952   4.856   4.636   2.394
 4982TIP3    H214953   4.853   4.580   2.535
 4983TIP3   OH214954   1.138   3.837   2.365
 4983TIP3    H114955   1.222   3.857   2.407
 4983TIP3    H214956   1.135   3.895   2.289
 4984TIP3   OH214957   5.620   2.815   3.045
 4984TIP3    H114958   5.671   2.784   2.970
 4984TIP3    H214959   5.583   2.735   3.083
 4985TIP3   OH214960   2.741   2.785   4.377
 4985TIP3    H114961   2.801   2.745   4.314
 4985TIP3    H214962   2.683   2.839   4.323
 4986TIP3   OH214963   2.662   3.081   1.093
 4986TIP3    H114964   2.647   2.986   1.093
 4986TIP3    H214965   2.669   3.104   1.186
 4987TIP3   OH214966   1.369   3.071   1.812
 4987TIP3    H114967   1.327   3.156   1.826
 4987TIP3    H214968   1.351   3.021   1.892
 4988TIP3   OH214969   0.375   1.880   2.482
 4988TIP3    H114970   0.362   1.864   2.388
 4988TIP3    H214971   0.295   1.924   2.510
 4989TIP3   OH214972   5.037   5.230   1.546
 4989TIP3    H114973   5.118   5.189   1.577
 4989TIP3    H214974   4.981   5.237   1.623
 4990TIP3   OH214975   4.603   1.842   2.484
 4990TIP3    H114976   4.650   1.821   2.565
 4990TIP3    H214977   4.569   1.757   2.454
 4991TIP3   OH214978   6.371   5.065  -0.013
 4991TIP3    H114979   6.441   5.080   0.050
 4991TIP3    H214980   6.291   5.093   0.031
 4992TIP3   OH214981   2.639   3.568   5.012
 4992TIP3    H114982   2.603   3.515   4.941
 4992TIP3    H214983   2.591   3.650   5.007
 4993TIP3   OH214984   1.476   3.277   3.804
 4993TIP3    H114985   1.526   3.269   3.722
 4993TIP3    H214986   1.385   3.276   3.777
 4994TIP3   OH214987   5.777   4.913   0.093
 4994TIP3    H114988   5.869   4.891   0.102
 4994TIP3    H214989   5.770   4.952   0.005
 4995TIP3   OH214990   1.794   2.177   2.341
 4995TIP3    H114991   1.784   2.178   2.436
 4995TIP3    H214992   1.875   2.130   2.325
 4996TIP3   OH214993   5.877   0.283   2.867
 4996TIP3    H114994   5.909   0.331   2.791
 4996TIP3    H214995   5.955   0.269   2.921
 4997TIP3   OH214996   0.799   4.172   4.871
 4997TIP3    H114997   0.715   4.135   4.897
 4997TIP3    H214998   0.832   4.111   4.804
 4998TIP3   OH214999   3.524   0.381   1.415
 4998TIP3    H115000   3.611   0.399   1.451
 4998TIP3    H215001   3.483   0.467   1.408
 4999TIP3   OH215002   2.948   5.336   2.923
 4999TIP3    H115003   2.903   5.389   2.988
 4999TIP3    H215004   3.024   5.300   2.969
 5000TIP3   OH215005   6.159   5.595   4.969
 5000TIP3    H115006   6.203   5.662   5.022
 5000TIP3    H215007   6.079   5.637   4.939
 5001TIP3   OH215008   3.163   4.360   0.442
 5001TIP3    H115009   3.212   4.279   0.456
 5001TIP3    H215010   3.184   4.385   0.352
 5002TIP3   OH215011   2.028   4.784   0.235
 5002TIP3    H115012   2.002   4.847   0.168
 5002TIP3    H215013   2.023   4.833   0.317
 5003TIP3   OH215014   4.655   5.450   4.361
 5003TIP3    H115015   4.750   5.445   4.369
 5003TIP3    H215016   4.639   5.534   4.318
 5004TIP3   OH215017   6.149   1.809   4.051
 5004TIP3    H115018   6.214   1.763   3.998
 5004TIP3    H215019   6.071   1.754   4.047
 5005TIP3   OH215020   0.733   4.106   4.021
 5005TIP3    H115021   0.665   4.102   3.954
 5005TIP3    H215022   0.711   4.183   4.073
 5006TIP3   OH215023   3.098   5.661   5.199
 5006TIP3    H115024   3.025   5.716   5.170
 5006TIP3    H215025   3.135   5.626   5.118
 5007TIP3   OH215026   5.507   1.232   0.385
 5007TIP3    H115027   5.428   1.203   0.339
 5007TIP3    H215028   5.519   1.168   0.455
 5008TIP3   OH215029   5.891   3.261   3.325
 5008TIP3    H115030   5.960   3.218   3.275
 5008TIP3    H215031   5.878   3.204   3.402
 5009TIP3   OH215032   4.374   1.311   1.048
 5009TIP3    H115033   4.317   1.380   1.081
 5009TIP3    H215034   4.363   1.239   1.111
 5010TIP3   OH215035   5.625   4.222   0.703
 5010TIP3    H115036   5.678   4.165   0.646
 5010TIP3    H215037   5.636   4.309   0.665
 5011TIP3   OH215038   2.559   2.600   4.462
 5011TIP3    H115039   2.632   2.647   4.420
 5011TIP3    H215040   2.528   2.659   4.530
 5012TIP3   OH215041   5.243   1.682   0.456
 5012TIP3    H115042   5.301   1.663   0.382
 5012TIP3    H215043   5.281   1.760   0.496
 5013TIP3   OH215044   3.980   0.653   1.172
 5013TIP3    H115045   3.901   0.649   1.118
 5013TIP3    H215046   3.968   0.584   1.237
 5014TIP3   OH215047   4.381   1.621   4.277
 5014TIP3    H115048   4.330   1.558   4.328
 5014TIP3    H215049   4.471   1.606   4.305
 5015TIP3   OH215050   2.597   2.745   5.013
 5015TIP3    H115051   2.563   2.835   5.015
 5015TIP3    H215052   2.533   2.694   5.063
 5016TIP3   OH215053   4.149   4.418   0.203
 5016TIP3    H115054   4.236   4.399   0.167
 5016TIP3    H215055   4.113   4.333   0.227
 5017TIP3   OH215056   0.474   2.412   1.858
 5017TIP3    H115057   0.565   2.415   1.888
 5017TIP3    H215058   0.473   2.344   1.790
 5018TIP3   OH215059   1.402   0.046   3.881
 5018TIP3    H115060   1.316   0.009   3.903
 5018TIP3    H215061   1.407   0.126   3.933
 5019TIP3   OH215062   5.329   2.352   3.836
 5019TIP3    H115063   5.367   2.434   3.869
 5019TIP3    H215064   5.350   2.287   3.904
 5020TIP3   OH215065   2.130   3.077   0.779
 5020TIP3    H115066   2.186   3.011   0.821
 5020TIP3    H215067   2.124   3.147   0.844
 5021TIP3   OH215068   0.840   5.662   1.008
 5021TIP3    H115069   0.754   5.622   0.993
 5021TIP3    H215070   0.880   5.667   0.921
 5022TIP3   OH215071   0.235   1.593   1.553
 5022TIP3    H115072   0.245   1.605   1.459
 5022TIP3    H215073   0.161   1.533   1.563
 5023TIP3   OH215074   3.887   2.751   3.676
 5023TIP3    H115075   3.836   2.679   3.713
 5023TIP3    H215076   3.908   2.807   3.751
 5024TIP3   OH215077   1.946   5.192   2.797
 5024TIP3    H115078   1.905   5.278   2.805
 5024TIP3    H215079   1.893   5.135   2.852
 5025TIP3   OH215080   2.887   5.075   2.849
 5025TIP3    H115081   2.930   5.160   2.861
 5025TIP3    H215082   2.871   5.043   2.938
 5026TIP3   OH215083   4.392   3.458   1.485
 5026TIP3    H115084   4.368   3.541   1.445
 5026TIP3    H215085   4.422   3.482   1.573
 5027TIP3   OH215086   1.699   0.724   4.758
 5027TIP3    H115087   1.762   0.653   4.749
 5027TIP3    H215088   1.616   0.681   4.778
 5028TIP3   OH215089   1.593   0.514   4.261
 5028TIP3    H115090   1.604   0.499   4.168
 5028TIP3    H215091   1.535   0.444   4.291
 5029TIP3   OH215092   5.121   0.455   1.165
 5029TIP3    H115093   5.055   0.519   1.193
 5029TIP3    H215094   5.073   0.373   1.156
 5030TIP3   OH215095   2.560   1.148   0.797
 5030TIP3    H115096   2.518   1.090   0.860
 5030TIP3    H215097   2.635   1.184   0.844
 5031TIP3   OH215098   5.622   2.169   1.527
 5031TIP3    H115099   5.541   2.121   1.508
 5031TIP3    H215100   5.653   2.134   1.610
 5032TIP3   OH215101   1.123   4.049   1.341
 5032TIP3    H115102   1.096   4.072   1.252
 5032TIP3    H215103   1.041   4.033   1.388
 5033TIP3   OH215104   2.275   5.071   0.887
 5033TIP3    H115105   2.367   5.049   0.871
 5033TIP3    H215106   2.236   4.989   0.918
 5034TIP3   OH215107   6.362   5.959   4.318
 5034TIP3    H115108   6.290   5.916   4.365
 5034TIP3    H215109   6.407   6.011   4.385
 5035TIP3   OH215110   0.016   5.696   0.400
 5035TIP3    H115111   0.063   5.728   0.323
 5035TIP3    H215112   0.021   5.768   0.463
 5036TIP3   OH215113   2.543   3.353   0.139
 5036TIP3    H115114   2.476   3.350   0.207
 5036TIP3    H215115   2.589   3.436   0.154
 5037TIP3   OH215116   0.618   0.133   1.148
 5037TIP3    H115117   0.597   0.070   1.218
 5037TIP3    H215118   0.584   0.216   1.180
 5038TIP3   OH215119   5.691   2.855   1.674
 5038TIP3    H115120   5.761   2.892   1.620
 5038TIP3    H215121   5.736   2.797   1.735
 5039TIP3   OH215122   2.815   2.301   5.026
 5039TIP3    H115123   2.814   2.374   5.087
 5039TIP3    H215124   2.842   2.339   4.943
 5040TIP3   OH215125   5.821   2.228   3.888
 5040TIP3    H115126   5.904   2.185   3.908
 5040TIP3    H215127   5.821   2.308   3.942
 5041TIP3   OH215128   0.046   4.789   1.339
 5041TIP3    H115129   0.113   4.857   1.334
 5041TIP3    H215130   0.046   4.750   1.252
 5042TIP3   OH215131   1.987   4.379   0.549
 5042TIP3    H115132   1.965   4.435   0.475
 5042TIP3    H215133   1.961   4.291   0.521
 5043TIP3   OH215134   6.170   5.530   0.255
 5043TIP3    H115135   6.160   5.476   0.333
 5043TIP3    H215136   6.202   5.614   0.288
 5044TIP3   OH215137   0.929   3.932   4.996
 5044TIP3    H115138   0.981   4.004   4.959
 5044TIP3    H215139   0.842   3.970   5.008
 5045TIP3   OH215140   4.352   3.507   2.047
 5045TIP3    H115141   4.313   3.428   2.086
 5045TIP3    H215142   4.429   3.525   2.101
 5046TIP3   OH215143   1.311   5.468   4.926
 5046TIP3    H115144   1.393   5.420   4.918
 5046TIP3    H215145   1.258   5.416   4.986
 5047TIP3   OH215146   5.372   0.042   4.681
 5047TIP3    H115147   5.444   0.017   4.623
 5047TIP3    H215148   5.315   0.096   4.626
 5048TIP3   OH215149   4.477   5.228   3.087
 5048TIP3    H115150   4.422   5.305   3.076
 5048TIP3    H215151   4.522   5.242   3.170
 5049TIP3   OH215152   2.031   5.741   0.559
 5049TIP3    H115153   2.066   5.703   0.479
 5049TIP3    H215154   1.948   5.695   0.573
 5050TIP3   OH215155   6.210   1.164   0.854
 5050TIP3    H115156   6.243   1.134   0.939
 5050TIP3    H215157   6.258   1.112   0.790
 5051TIP3   OH215158   6.089   2.364   5.190
 5051TIP3    H115159   6.113   2.344   5.099
 5051TIP3    H215160   6.150   2.433   5.216
 5052TIP3   OH215161   0.974   5.151   3.965
 5052TIP3    H115162   1.015   5.235   3.945
 5052TIP3    H215163   0.957   5.155   4.059
 5053TIP3   OH215164   4.399   4.771   1.579
 5053TIP3    H115165   4.432   4.778   1.669
 5053TIP3    H215166   4.477   4.766   1.525
 5054TIP3   OH215167   5.406   5.287   0.667
 5054TIP3    H115168   5.422   5.194   0.683
 5054TIP3    H215169   5.488   5.330   0.692
 5055TIP3   OH215170   1.583   4.309   4.894
 5055TIP3    H115171   1.647   4.250   4.854
 5055TIP3    H215172   1.568   4.377   4.828
 5056TIP3   OH215173   4.512   2.165  -0.021
 5056TIP3    H115174   4.606   2.164  -0.040
 5056TIP3    H215175   4.505   2.138   0.070
 5057TIP3   OH215176   6.122   0.391   4.713
 5057TIP3    H115177   6.165   0.306   4.704
 5057TIP3    H215178   6.074   0.385   4.796
 5058TIP3   OH215179   1.436   3.185   2.876
 5058TIP3    H115180   1.509   3.219   2.823
 5058TIP3    H215181   1.387   3.263   2.902
 5059TIP3   OH215182   4.498   3.829   2.261
 5059TIP3    H115183   4.436   3.865   2.198
 5059TIP3    H215184   4.582   3.827   2.214
 5060TIP3   OH215185   1.356   5.900   4.779
 5060TIP3    H115186   1.323   5.968   4.837
 5060TIP3    H215187   1.400   5.947   4.708
 5061TIP3   OH215188   1.818   2.789   1.493
 5061TIP3    H115189   1.745   2.835   1.454
 5061TIP3    H215190   1.895   2.823   1.448
 5062TIP3   OH215191   1.185   3.992   4.670
 5062TIP3    H115192   1.239   3.972   4.593
 5062TIP3    H215193   1.244   3.982   4.744
 5063TIP3   OH215194   2.648   5.183   3.687
 5063TIP3    H115195   2.670   5.101   3.643
 5063TIP3    H215196   2.701   5.249   3.643
 5064TIP3   OH215197   3.784   4.381   3.575
 5064TIP3    H115198   3.808   4.385   3.482
 5064TIP3    H215199   3.847   4.319   3.612
 5065TIP3   OH215200   3.422   2.218   2.369
 5065TIP3    H115201   3.483   2.225   2.295
 5065TIP3    H215202   3.337   2.241   2.332
 5066TIP3   OH215203   2.095   0.887   0.790
 5066TIP3    H115204   2.164   0.832   0.828
 5066TIP3    H215205   2.130   0.913   0.705
 5067TIP3   OH215206   2.230   4.799   0.837
 5067TIP3    H115207   2.297   4.775   0.901
 5067TIP3    H215208   2.266   4.770   0.753
 5068TIP3   OH215209   1.127   4.851   1.127
 5068TIP3    H115210   1.082   4.771   1.097
 5068TIP3    H215211   1.213   4.821   1.155
 5069TIP3   OH215212   4.729   1.851   4.302
 5069TIP3    H115213   4.753   1.922   4.362
 5069TIP3    H215214   4.787   1.779   4.326
 5070TIP3   OH215215   1.769   0.913   4.968
 5070TIP3    H115216   1.772   0.860   4.888
 5070TIP3    H215217   1.773   1.004   4.937
 5071TIP3   OH215218   5.201   2.783   4.290
 5071TIP3    H115219   5.141   2.736   4.232
 5071TIP3    H215220   5.237   2.853   4.235
 5072TIP3   OH215221   1.290   3.314   1.482
 5072TIP3    H115222   1.201   3.341   1.460
 5072TIP3    H215223   1.340   3.327   1.401
 5073TIP3   OH215224   6.364   0.279   1.789
 5073TIP3    H115225   6.276   0.242   1.782
 5073TIP3    H215226   6.373   0.333   1.710
 5074TIP3   OH215227   6.136   5.278   0.088
 5074TIP3    H115228   6.168   5.351   0.142
 5074TIP3    H215229   6.057   5.312   0.046
 5075TIP3   OH215230   1.815   5.903   0.690
 5075TIP3    H115231   1.767   5.826   0.720
 5075TIP3    H215232   1.779   5.923   0.604
 5076TIP3   OH215233   0.479   1.211   4.531
 5076TIP3    H115234   0.545   1.151   4.566
 5076TIP3    H215235   0.514   1.239   4.447
 5077TIP3   OH215236   3.696   2.090   1.591
 5077TIP3    H115237   3.788   2.066   1.597
 5077TIP3    H215238   3.696   2.179   1.555
 5078TIP3   OH215239   0.910   0.302   2.855
 5078TIP3    H115240   1.000   0.299   2.888
 5078TIP3    H215241   0.916   0.355   2.776
 5079TIP3   OH215242   5.558   0.197   3.498
 5079TIP3    H115243   5.624   0.128   3.496
 5079TIP3    H215244   5.492   0.169   3.435
 5080TIP3   OH215245   3.020   3.862   1.494
 5080TIP3    H115246   2.948   3.825   1.443
 5080TIP3    H215247   3.030   3.802   1.568
 5081TIP3   OH215248   6.111   0.203   1.742
 5081TIP3    H115249   6.043   0.212   1.808
 5081TIP3    H215250   6.065   0.214   1.659
 5082TIP3   OH215251   4.691   4.563   0.722
 5082TIP3    H115252   4.767   4.621   0.726
 5082TIP3    H215253   4.661   4.570   0.631
 5083TIP3   OH215254   6.157   5.884   3.805
 5083TIP3    H115255   6.145   5.811   3.744
 5083TIP3    H215256   6.252   5.896   3.810
 5084TIP3   OH215257   3.668   5.507   3.851
 5084TIP3    H115258   3.725   5.524   3.777
 5084TIP3    H215259   3.721   5.452   3.910
 5085TIP3   OH215260   2.499   2.950   1.810
 5085TIP3    H115261   2.451   2.966   1.891
 5085TIP3    H215262   2.450   2.880   1.766
 5086TIP3   OH215263   0.899   2.049   4.315
 5086TIP3    H115264   0.928   2.141   4.317
 5086TIP3    H215265   0.835   2.043   4.386
 5087TIP3   OH215266   4.641   3.376   0.281
 5087TIP3    H115267   4.640   3.468   0.307
 5087TIP3    H215268   4.562   3.364   0.229
 5088TIP3   OH215269   5.043   2.889   3.328
 5088TIP3    H115270   5.132   2.871   3.298
 5088TIP3    H215271   4.992   2.813   3.299
 5089TIP3   OH215272   6.210   1.642   4.989
 5089TIP3    H115273   6.274   1.630   5.059
 5089TIP3    H215274   6.182   1.554   4.966
 5090TIP3   OH215275   3.206   0.817   4.311
 5090TIP3    H115276   3.239   0.892   4.262
 5090TIP3    H215277   3.113   0.811   4.285
 5091TIP3   OH215278   2.756   3.629   1.041
 5091TIP3    H115279   2.752   3.560   1.108
 5091TIP3    H215280   2.803   3.588   0.968
 5092TIP3   OH215281   0.729   4.615   2.445
 5092TIP3    H115282   0.807   4.671   2.439
 5092TIP3    H215283   0.657   4.673   2.421
 5093TIP3   OH215284   4.215   0.660   1.897
 5093TIP3    H115285   4.235   0.751   1.877
 5093TIP3    H215286   4.252   0.645   1.984
 5094TIP3   OH215287   2.582   0.364   4.282
 5094TIP3    H115288   2.610   0.299   4.347
 5094TIP3    H215289   2.522   0.422   4.330
 5095TIP3   OH215290   2.572   3.462   2.338
 5095TIP3    H115291   2.493   3.515   2.352
 5095TIP3    H215292   2.541   3.385   2.290
 5096TIP3   OH215293   2.153   2.625   3.921
 5096TIP3    H115294   2.095   2.549   3.929
 5096TIP3    H215295   2.233   2.589   3.884
 5097TIP3   OH215296   4.273   5.401   2.992
 5097TIP3    H115297   4.237   5.428   3.077
 5097TIP3    H215298   4.200   5.411   2.931
 5098TIP3   OH215299   5.561   3.334   2.690
 5098TIP3    H115300   5.593   3.257   2.737
 5098TIP3    H215301   5.507   3.298   2.619
 5099TIP3   OH215302   4.897   5.365   0.194
 5099TIP3    H115303   4.856   5.427   0.255
 5099TIP3    H215304   4.897   5.412   0.110
 5100TIP3   OH215305   3.131   5.108   2.684
 5100TIP3    H115306   3.153   5.053   2.760
 5100TIP3    H215307   3.189   5.184   2.692
 5101TIP3   OH215308   4.627   0.777   2.534
 5101TIP3    H115309   4.606   0.796   2.442
 5101TIP3    H215310   4.548   0.736   2.568
 5102TIP3   OH215311   0.800   3.220   5.042
 5102TIP3    H115312   0.746   3.150   5.004
 5102TIP3    H215313   0.826   3.185   5.127
 5103TIP3   OH215314   0.349   3.500   3.337
 5103TIP3    H115315   0.393   3.415   3.333
 5103TIP3    H215316   0.335   3.524   3.245
 5104TIP3   OH215317   1.322   1.400   1.902
 5104TIP3    H115318   1.272   1.472   1.862
 5104TIP3    H215319   1.354   1.437   1.985
 5105TIP3   OH215320   4.526   2.117   0.527
 5105TIP3    H115321   4.598   2.177   0.548
 5105TIP3    H215322   4.449   2.158   0.566
 5106TIP3   OH215323   2.532   1.082   3.701
 5106TIP3    H115324   2.480   1.103   3.623
 5106TIP3    H215325   2.577   1.001   3.680
 5107TIP3   OH215326   5.961   3.896   0.200
 5107TIP3    H115327   5.966   3.894   0.295
 5107TIP3    H215328   5.905   3.971   0.180
 5108TIP3   OH215329   3.452   1.229   2.048
 5108TIP3    H115330   3.362   1.200   2.039
 5108TIP3    H215331   3.496   1.158   2.095
 5109TIP3   OH215332   3.556   4.154   2.942
 5109TIP3    H115333   3.645   4.145   2.974
 5109TIP3    H215334   3.561   4.225   2.877
 5110TIP3   OH215335   2.335   1.910   4.254
 5110TIP3    H115336   2.306   1.984   4.201
 5110TIP3    H215337   2.268   1.901   4.322
 5111TIP3   OH215338   2.908   1.193   4.945
 5111TIP3    H115339   2.938   1.126   5.006
 5111TIP3    H215340   2.921   1.275   4.991
 5112TIP3   OH215341   2.553   5.678   2.030
 5112TIP3    H115342   2.618   5.608   2.022
 5112TIP3    H215343   2.488   5.660   1.962
 5113TIP3   OH215344   2.315   0.278   4.749
 5113TIP3    H115345   2.395   0.227   4.739
 5113TIP3    H215346   2.304   0.322   4.665
 5114TIP3   OH215347   4.640   1.863   0.258
 5114TIP3    H115348   4.717   1.909   0.291
 5114TIP3    H215349   4.668   1.771   0.254
 5115TIP3   OH215350   1.671   1.372   4.495
 5115TIP3    H115351   1.709   1.421   4.422
 5115TIP3    H215352   1.730   1.299   4.509
 5116TIP3   OH215353   4.292   4.587   5.169
 5116TIP3    H115354   4.270   4.645   5.096
 5116TIP3    H215355   4.216   4.529   5.177
 5117TIP3   OH215356   3.082   4.370   1.587
 5117TIP3    H115357   3.038   4.295   1.547
 5117TIP3    H215358   3.108   4.340   1.674
 5118TIP3   OH215359   1.556   2.567   3.159
 5118TIP3    H115360   1.539   2.661   3.153
 5118TIP3    H215361   1.530   2.543   3.248
 5119TIP3   OH215362   3.161   5.842   0.340
 5119TIP3    H115363   3.115   5.925   0.338
 5119TIP3    H215364   3.251   5.862   0.313
 5120TIP3   OH215365   2.652   2.442   0.213
 5120TIP3    H115366   2.679   2.417   0.302
 5120TIP3    H215367   2.717   2.506   0.185
 5121TIP3   OH215368   1.855   0.112   3.279
 5121TIP3    H115369   1.852   0.176   3.350
 5121TIP3    H215370   1.935   0.134   3.231
 5122TIP3   OH215371   5.919   4.157   1.050
 5122TIP3    H115372   5.842   4.204   1.081
 5122TIP3    H215373   5.926   4.082   1.109
 5123TIP3   OH215374   5.384   3.578   0.562
 5123TIP3    H115375   5.427   3.495   0.543
 5123TIP3    H215376   5.302   3.554   0.604
 5124TIP3   OH215377   3.454   2.140   1.085
 5124TIP3    H115378   3.394   2.207   1.118
 5124TIP3    H215379   3.493   2.102   1.163
 5125TIP3   OH215380   4.074   0.876   0.644
 5125TIP3    H115381   4.077   0.933   0.567
 5125TIP3    H215382   4.044   0.933   0.715
 5126TIP3   OH215383   2.410   3.687   2.268
 5126TIP3    H115384   2.391   3.623   2.200
 5126TIP3    H215385   2.353   3.761   2.250
 5127TIP3   OH215386   4.566   4.111   4.686
 5127TIP3    H115387   4.478   4.102   4.722
 5127TIP3    H215388   4.608   4.177   4.741
 5128TIP3   OH215389   3.712   1.163   0.791
 5128TIP3    H115390   3.649   1.124   0.852
 5128TIP3    H215391   3.794   1.117   0.809
 5129TIP3   OH215392   1.852   3.540   2.401
 5129TIP3    H115393   1.867   3.558   2.494
 5129TIP3    H215394   1.925   3.484   2.375
 5130TIP3   OH215395   0.706   1.423   1.692
 5130TIP3    H115396   0.617   1.459   1.693
 5130TIP3    H215397   0.761   1.492   1.729
 5131TIP3   OH215398   2.186   1.740   0.517
 5131TIP3    H115399   2.192   1.646   0.502
 5131TIP3    H215400   2.222   1.752   0.605
 5132TIP3   OH215401   3.749   5.466   0.281
 5132TIP3    H115402   3.753   5.545   0.227
 5132TIP3    H215403   3.656   5.444   0.286
 5133TIP3   OH215404   4.682   1.278   5.072
 5133TIP3    H115405   4.670   1.293   5.165
 5133TIP3    H215406   4.595   1.250   5.041
 5134TIP3   OH215407   1.677   1.740   3.537
 5134TIP3    H115408   1.643   1.769   3.452
 5134TIP3    H215409   1.660   1.646   3.539
 5135TIP3   OH215410   4.943   2.933   1.294
 5135TIP3    H115411   4.905   2.884   1.367
 5135TIP3    H215412   5.037   2.932   1.310
 5136TIP3   OH215413   4.270   3.003   2.013
 5136TIP3    H115414   4.221   2.921   2.005
 5136TIP3    H215415   4.284   3.031   1.923
 5137TIP3   OH215416   2.492   1.126   3.968
 5137TIP3    H115417   2.567   1.106   4.023
 5137TIP3    H215418   2.524   1.118   3.879
 5138TIP3   OH215419   2.522   5.074   4.275
 5138TIP3    H115420   2.579   5.053   4.201
 5138TIP3    H215421   2.434   5.070   4.238
 5139TIP3   OH215422   6.133   2.745   4.346
 5139TIP3    H115423   6.144   2.808   4.418
 5139TIP3    H215424   6.216   2.697   4.344
 5140TIP3   OH215425   3.589   0.993   1.018
 5140TIP3    H115426   3.624   0.987   1.107
 5140TIP3    H215427   3.515   0.931   1.017
 5141TIP3   OH215428   1.908   4.535   0.326
 5141TIP3    H115429   1.869   4.502   0.246
 5141TIP3    H215430   1.948   4.619   0.300
 5142TIP3   OH215431   2.397   1.706   1.330
 5142TIP3    H115432   2.389   1.780   1.269
 5142TIP3    H215433   2.491   1.702   1.350
 5143TIP3   OH215434   1.219   0.599   2.512
 5143TIP3    H115435   1.169   0.606   2.431
 5143TIP3    H215436   1.156   0.566   2.576
 5144TIP3   OH215437   4.568   0.032   0.117
 5144TIP3    H115438   4.653   0.063   0.085
 5144TIP3    H215439   4.514   0.110   0.123
 5145TIP3   OH215440   3.975   4.750   4.062
 5145TIP3    H115441   3.959   4.690   4.135
 5145TIP3    H215442   4.032   4.817   4.098
 5146TIP3   OH215443   4.690   5.008   2.295
 5146TIP3    H115444   4.616   4.998   2.354
 5146TIP3    H215445   4.767   5.009   2.352
 5147TIP3   OH215446   4.375   0.263   4.856
 5147TIP3    H115447   4.350   0.253   4.764
 5147TIP3    H215448   4.326   0.195   4.902
 5148TIP3   OH215449   4.179   4.916   3.533
 5148TIP3    H115450   4.256   4.863   3.515
 5148TIP3    H215451   4.199   4.960   3.616
 5149TIP3   OH215452   5.652   3.109   1.846
 5149TIP3    H115453   5.698   3.030   1.876
 5149TIP3    H215454   5.602   3.080   1.770
 5150TIP3   OH215455   5.425   3.718   1.294
 5150TIP3    H115456   5.345   3.733   1.344
 5150TIP3    H215457   5.417   3.628   1.263
 5151TIP3   OH215458   2.981   0.596   0.707
 5151TIP3    H115459   3.015   0.673   0.753
 5151TIP3    H215460   2.941   0.630   0.628
 5152TIP3   OH215461   0.666   3.505   3.861
 5152TIP3    H115462   0.709   3.442   3.803
 5152TIP3    H215463   0.579   3.469   3.876
 5153TIP3   OH215464   5.565   2.756   1.211
 5153TIP3    H115465   5.491   2.816   1.225
 5153TIP3    H215466   5.578   2.756   1.116
 5154TIP3   OH215467   2.166   3.540   1.096
 5154TIP3    H115468   2.167   3.460   1.044
 5154TIP3    H215469   2.089   3.531   1.152
 5155TIP3   OH215470   6.249   5.742   4.600
 5155TIP3    H115471   6.281   5.692   4.675
 5155TIP3    H215472   6.193   5.810   4.638
 5156TIP3   OH215473   3.547   5.190   1.678
 5156TIP3    H115474   3.617   5.159   1.621
 5156TIP3    H215475   3.592   5.213   1.760
 5157TIP3   OH215476   0.876   1.444   1.474
 5157TIP3    H115477   0.801   1.408   1.522
 5157TIP3    H215478   0.918   1.367   1.435
 5158TIP3   OH215479   4.639   0.452   0.360
 5158TIP3    H115480   4.569   0.482   0.303
 5158TIP3    H215481   4.595   0.427   0.442
 5159TIP3   OH215482   4.755   1.460   0.285
 5159TIP3    H115483   4.781   1.368   0.278
 5159TIP3    H215484   4.760   1.493   0.196
 5160TIP3   OH215485   5.932   1.508   2.377
 5160TIP3    H115486   5.940   1.580   2.439
 5160TIP3    H215487   6.018   1.467   2.376
 5161TIP3   OH215488   1.515   4.738   0.666
 5161TIP3    H115489   1.466   4.820   0.667
 5161TIP3    H215490   1.489   4.694   0.748
 5162TIP3   OH215491   6.099   0.225   3.830
 5162TIP3    H115492   6.186   0.186   3.830
 5162TIP3    H215493   6.039   0.152   3.818
 5163TIP3   OH215494   4.531   3.842   1.952
 5163TIP3    H115495   4.435   3.838   1.951
 5163TIP3    H215496   4.552   3.924   1.908
 5164TIP3   OH215497   4.459   3.990   2.673
 5164TIP3    H115498   4.503   3.991   2.588
 5164TIP3    H215499   4.521   4.031   2.733
 5165TIP3   OH215500   3.874   3.701   4.043
 5165TIP3    H115501   3.876   3.724   4.136
 5165TIP3    H215502   3.960   3.728   4.010
 5166TIP3   OH215503   4.633   0.861   2.266
 5166TIP3    H115504   4.684   0.939   2.244
 5166TIP3    H215505   4.558   0.864   2.206
 5167TIP3   OH215506   1.246   3.000   1.195
 5167TIP3    H115507   1.158   2.964   1.189
 5167TIP3    H215508   1.302   2.932   1.157
 5168TIP3   OH215509   0.924   2.315   3.963
 5168TIP3    H115510   1.000   2.257   3.976
 5168TIP3    H215511   0.915   2.321   3.867
 5169TIP3   OH215512   5.298   4.290   4.213
 5169TIP3    H115513   5.387   4.311   4.242
 5169TIP3    H215514   5.246   4.367   4.236
 5170TIP3   OH215515   4.070   4.139   4.876
 5170TIP3    H115516   4.021   4.110   4.799
 5170TIP3    H215517   4.016   4.207   4.915
 5171TIP3   OH215518   5.407   1.444   3.546
 5171TIP3    H115519   5.315   1.426   3.566
 5171TIP3    H215520   5.446   1.466   3.630
 5172TIP3   OH215521   3.820   4.355   3.968
 5172TIP3    H115522   3.779   4.268   3.964
 5172TIP3    H215523   3.802   4.387   4.056
 5173TIP3   OH215524   3.295   0.391   4.354
 5173TIP3    H115525   3.291   0.454   4.282
 5173TIP3    H215526   3.379   0.347   4.342
 5174TIP3   OH215527   2.106   3.538   0.774
 5174TIP3    H115528   2.142   3.610   0.826
 5174TIP3    H215529   2.140   3.554   0.686
 5175TIP3   OH215530   1.305   1.781   4.551
 5175TIP3    H115531   1.246   1.711   4.579
 5175TIP3    H215532   1.249   1.843   4.505
 5176TIP3   OH215533   4.926   5.218   4.516
 5176TIP3    H115534   5.013   5.180   4.526
 5176TIP3    H215535   4.941   5.312   4.504
 5177TIP3   OH215536   5.092   0.925   3.643
 5177TIP3    H115537   5.138   0.970   3.572
 5177TIP3    H215538   5.154   0.926   3.716
 5178TIP3   OH215539   2.106   2.231   3.687
 5178TIP3    H115540   2.116   2.136   3.696
 5178TIP3    H215541   2.190   2.261   3.653
 5179TIP3   OH215542   3.512   3.979   4.491
 5179TIP3    H115543   3.480   3.893   4.462
 5179TIP3    H215544   3.434   4.034   4.492
 5180TIP3   OH215545   5.398   3.592   2.740
 5180TIP3    H115546   5.419   3.659   2.805
 5180TIP3    H215547   5.467   3.526   2.751
 5181TIP3   OH215548   6.011   1.174   3.609
 5181TIP3    H115549   5.942   1.134   3.556
 5181TIP3    H215550   6.061   1.228   3.548
 5182TIP3   OH215551   1.957   5.625   4.299
 5182TIP3    H115552   2.004   5.597   4.220
 5182TIP3    H215553   2.003   5.582   4.371
 5183TIP3   OH215554   3.079   4.850   5.119
 5183TIP3    H115555   2.991   4.830   5.152
 5183TIP3    H215556   3.069   4.849   5.024
 5184TIP3   OH215557   5.901   4.526   0.425
 5184TIP3    H115558   5.891   4.431   0.413
 5184TIP3    H215559   5.879   4.563   0.339
 5185TIP3   OH215560   1.826   0.841   0.779
 5185TIP3    H115561   1.920   0.852   0.771
 5185TIP3    H215562   1.789   0.890   0.706
 5186TIP3   OH215563   1.025   5.424   3.905
 5186TIP3    H115564   1.082   5.471   3.965
 5186TIP3    H215565   1.032   5.473   3.822
 5187TIP3   OH215566   5.424   1.121   2.973
 5187TIP3    H115567   5.507   1.150   2.936
 5187TIP3    H215568   5.391   1.197   3.020
 5188TIP3   OH215569   3.468   3.392   0.656
 5188TIP3    H115570   3.400   3.344   0.610
 5188TIP3    H215571   3.511   3.445   0.588
 5189TIP3   OH215572   0.265   2.075   3.224
 5189TIP3    H115573   0.312   2.147   3.265
 5189TIP3    H215574   0.274   2.091   3.130
 5190TIP3   OH215575   5.757   5.406   3.451
 5190TIP3    H115576   5.776   5.495   3.483
 5190TIP3    H215577   5.663   5.396   3.466
 5191TIP3   OH215578   4.275   5.218   3.628
 5191TIP3    H115579   4.190   5.206   3.669
 5191TIP3    H215580   4.337   5.221   3.701
 5192TIP3   OH215581   4.813   2.150   0.022
 5192TIP3    H115582   4.890   2.150  -0.035
 5192TIP3    H215583   4.843   2.189   0.104
 5193TIP3   OH215584   4.999   3.565   2.463
 5193TIP3    H115585   4.980   3.487   2.411
 5193TIP3    H215586   5.092   3.558   2.485
 5194TIP3   OH215587   2.627   4.833   3.942
 5194TIP3    H115588   2.673   4.884   4.009
 5194TIP3    H215589   2.551   4.886   3.919
 5195TIP3   OH215590   3.767   5.569   2.500
 5195TIP3    H115591   3.745   5.495   2.444
 5195TIP3    H215592   3.861   5.559   2.516
 5196TIP3   OH215593   5.385   3.644   0.873
 5196TIP3    H115594   5.360   3.583   0.942
 5196TIP3    H215595   5.318   3.632   0.805
 5197TIP3   OH215596   1.220   5.030   3.028
 5197TIP3    H115597   1.281   4.969   2.986
 5197TIP3    H215598   1.208   4.996   3.116
 5198TIP3   OH215599   5.158   4.606   4.761
 5198TIP3    H115600   5.210   4.530   4.789
 5198TIP3    H215601   5.123   4.581   4.676
 5199TIP3   OH215602   0.812   0.273   0.443
 5199TIP3    H115603   0.737   0.238   0.394
 5199TIP3    H215604   0.884   0.214   0.423
 5200TIP3   OH215605   2.051   2.102   2.293
 5200TIP3    H115606   2.081   2.055   2.215
 5200TIP3    H215607   2.104   2.182   2.295
 5201TIP3   OH215608   3.161   4.728   2.986
 5201TIP3    H115609   3.216   4.778   2.927
 5201TIP3    H215610   3.135   4.651   2.936
 5202TIP3   OH215611   0.249   0.449   2.706
 5202TIP3    H115612   0.227   0.389   2.777
 5202TIP3    H215613   0.338   0.479   2.726
 5203TIP3   OH215614   2.924   4.436   3.626
 5203TIP3    H115615   2.974   4.394   3.696
 5203TIP3    H215616   2.875   4.364   3.586
 5204TIP3   OH215617   1.595   2.025   0.832
 5204TIP3    H115618   1.677   1.977   0.842
 5204TIP3    H215619   1.534   1.961   0.795
 5205TIP3   OH215620   4.799   1.418   0.637
 5205TIP3    H115621   4.877   1.428   0.582
 5205TIP3    H215622   4.831   1.426   0.727
 5206TIP3   OH215623   2.423   1.612   3.154
 5206TIP3    H115624   2.428   1.654   3.240
 5206TIP3    H215625   2.501   1.556   3.151
 5207TIP3   OH215626   2.504   4.691   3.718
 5207TIP3    H115627   2.410   4.708   3.729
 5207TIP3    H215628   2.525   4.728   3.632
 5208TIP3   OH215629   5.384   1.881   2.676
 5208TIP3    H115630   5.364   1.871   2.583
 5208TIP3    H215631   5.314   1.832   2.720
 5209TIP3   OH215632   4.617   0.588   5.067
 5209TIP3    H115633   4.557   0.662   5.073
 5209TIP3    H215634   4.622   0.570   4.973
 5210TIP3   OH215635   5.639   5.550   4.969
 5210TIP3    H115636   5.649   5.601   4.889
 5210TIP3    H215637   5.718   5.496   4.973
 5211TIP3   OH215638   5.454   1.913   1.112
 5211TIP3    H115639   5.441   2.003   1.081
 5211TIP3    H215640   5.519   1.876   1.053
 5212TIP3   OH215641   1.345   3.934   3.699
 5212TIP3    H115642   1.370   3.969   3.614
 5212TIP3    H215643   1.274   3.992   3.729
 5213TIP3   OH215644   0.636   3.662   4.359
 5213TIP3    H115645   0.659   3.729   4.294
 5213TIP3    H215646   0.688   3.685   4.436
 5214TIP3   OH215647   5.216   0.479   1.514
 5214TIP3    H115648   5.297   0.496   1.563
 5214TIP3    H215649   5.202   0.558   1.462
 5215TIP3   OH215650   0.554   5.479   1.341
 5215TIP3    H115651   0.485   5.423   1.306
 5215TIP3    H215652   0.534   5.566   1.307
 5216TIP3   OH215653   3.552   3.615   0.206
 5216TIP3    H115654   3.582   3.601   0.296
 5216TIP3    H215655   3.526   3.707   0.204
 5217TIP3   OH215656   0.299   4.492   0.553
 5217TIP3    H115657   0.228   4.473   0.615
 5217TIP3    H215658   0.340   4.406   0.537
 5218TIP3   OH215659   5.313   4.698   3.743
 5218TIP3    H115660   5.378   4.752   3.698
 5218TIP3    H215661   5.233   4.751   3.741
 5219TIP3   OH215662   4.034   5.294   2.753
 5219TIP3    H115663   4.073   5.281   2.666
 5219TIP3    H215664   4.051   5.385   2.774
 5220TIP3   OH215665   5.098   3.478   3.207
 5220TIP3    H115666   5.157   3.425   3.154
 5220TIP3    H215667   5.096   3.563   3.163
 5221TIP3   OH215668   2.852   1.061   0.076
 5221TIP3    H115669   2.902   0.997   0.025
 5221TIP3    H215670   2.872   1.145   0.035
 5222TIP3   OH215671   6.185   5.316   3.957
 5222TIP3    H115672   6.188   5.320   3.862
 5222TIP3    H215673   6.099   5.279   3.977
 5223TIP3   OH215674   2.824   5.720   4.301
 5223TIP3    H115675   2.795   5.732   4.210
 5223TIP3    H215676   2.886   5.791   4.316
 5224TIP3   OH215677   0.791   1.919   4.911
 5224TIP3    H115678   0.777   1.845   4.971
 5224TIP3    H215679   0.799   1.995   4.969
 5225TIP3   OH215680   4.791   1.662   0.450
 5225TIP3    H115681   4.724   1.637   0.513
 5225TIP3    H215682   4.786   1.595   0.382
 5226TIP3   OH215683   1.636   2.594   3.874
 5226TIP3    H115684   1.642   2.685   3.846
 5226TIP3    H215685   1.543   2.581   3.894
 5227TIP3   OH215686   3.543   4.017   2.515
 5227TIP3    H115687   3.456   4.057   2.522
 5227TIP3    H215688   3.525   3.927   2.488
 5228TIP3   OH215689   2.347   3.433   3.291
 5228TIP3    H115690   2.321   3.341   3.296
 5228TIP3    H215691   2.434   3.436   3.330
 5229TIP3   OH215692   3.601   1.876   4.404
 5229TIP3    H115693   3.607   1.942   4.473
 5229TIP3    H215694   3.543   1.915   4.339
 5230TIP3   OH215695   3.294   4.695   5.196
 5230TIP3    H115696   3.319   4.612   5.156
 5230TIP3    H215697   3.206   4.713   5.161
 5231TIP3   OH215698   2.428   0.324   1.894
 5231TIP3    H115699   2.459   0.357   1.810
 5231TIP3    H215700   2.354   0.380   1.916
 5232TIP3   OH215701   3.952   3.305   2.645
 5232TIP3    H115702   4.031   3.353   2.619
 5232TIP3    H215703   3.983   3.215   2.661
 5233TIP3   OH215704   0.120   1.612   3.577
 5233TIP3    H115705   0.072   1.631   3.496
 5233TIP3    H215706   0.210   1.598   3.549
 5234TIP3   OH215707   5.609   2.594   0.104
 5234TIP3    H115708   5.577   2.660   0.043
 5234TIP3    H215709   5.557   2.606   0.183
 5235TIP3   OH215710   0.467   0.003   0.387
 5235TIP3    H115711   0.463   0.069   0.318
 5235TIP3    H215712   0.375  -0.016   0.406
 5236TIP3   OH215713   3.946   3.376   1.089
 5236TIP3    H115714   3.956   3.321   1.012
 5236TIP3    H215715   3.935   3.314   1.161
 5237TIP3   OH215716   2.567   3.427   3.437
 5237TIP3    H115717   2.663   3.431   3.441
 5237TIP3    H215718   2.540   3.418   3.528
 5238TIP3   OH215719   5.153   4.981   2.575
 5238TIP3    H115720   5.119   4.939   2.654
 5238TIP3    H215721   5.248   4.980   2.587
 5239TIP3   OH215722   1.083   5.805   2.684
 5239TIP3    H115723   0.994   5.781   2.661
 5239TIP3    H215724   1.090   5.787   2.778
 5240TIP3   OH215725   1.479   5.317   1.734
 5240TIP3    H115726   1.544   5.276   1.790
 5240TIP3    H215727   1.397   5.312   1.785
 5241TIP3   OH215728   5.794   0.926   1.408
 5241TIP3    H115729   5.859   0.965   1.349
 5241TIP3    H215730   5.734   0.998   1.428
 5242TIP3   OH215731   2.484   0.470   3.198
 5242TIP3    H115732   2.492   0.538   3.265
 5242TIP3    H215733   2.393   0.441   3.205
 5243TIP3   OH215734   4.651   4.985   3.333
 5243TIP3    H115735   4.627   4.979   3.426
 5243TIP3    H215736   4.680   5.076   3.323
 5244TIP3   OH215737   1.789   0.657   4.470
 5244TIP3    H115738   1.710   0.686   4.424
 5244TIP3    H215739   1.833   0.737   4.496
 5245TIP3   OH215740   1.904   2.687   2.063
 5245TIP3    H115741   1.908   2.717   2.154
 5245TIP3    H215742   1.950   2.603   2.063
 5246TIP3   OH215743   3.013   5.282   4.393
 5246TIP3    H115744   3.014   5.187   4.391
 5246TIP3    H215745   2.989   5.304   4.483
 5247TIP3   OH215746   4.672   3.253   4.647
 5247TIP3    H115747   4.757   3.296   4.639
 5247TIP3    H215748   4.618   3.316   4.695
 5248TIP3   OH215749   1.684   3.579   5.066
 5248TIP3    H115750   1.661   3.548   4.978
 5248TIP3    H215751   1.723   3.504   5.109
 5249TIP3   OH215752   2.319   3.999   5.005
 5249TIP3    H115753   2.242   3.954   5.040
 5249TIP3    H215754   2.286   4.086   4.981
 5250TIP3   OH215755   6.148   4.296   2.093
 5250TIP3    H115756   6.102   4.212   2.091
 5250TIP3    H215757   6.180   4.309   2.004
 5251TIP3   OH215758   5.740   5.698   3.501
 5251TIP3    H115759   5.700   5.742   3.576
 5251TIP3    H215760   5.690   5.729   3.425
 5252TIP3   OH215761   5.463   2.093   0.289
 5252TIP3    H115762   5.542   2.049   0.258
 5252TIP3    H215763   5.416   2.119   0.210
 5253TIP3   OH215764   3.233   3.340   4.497
 5253TIP3    H115765   3.149   3.359   4.455
 5253TIP3    H215766   3.287   3.302   4.427
 5254TIP3   OH215767   2.909   1.867   0.690
 5254TIP3    H115768   2.874   1.888   0.603
 5254TIP3    H215769   2.941   1.951   0.724
 5255TIP3   OH215770   0.863   4.687   0.177
 5255TIP3    H115771   0.953   4.719   0.178
 5255TIP3    H215772   0.824   4.726   0.099
 5256TIP3   OH215773   1.073   2.948   0.924
 5256TIP3    H115774   1.086   2.854   0.939
 5256TIP3    H215775   0.999   2.971   0.980
 5257TIP3   OH215776   6.200   3.687   4.339
 5257TIP3    H115777   6.194   3.657   4.430
 5257TIP3    H215778   6.143   3.763   4.335
 5258TIP3   OH215779   2.764   4.284   1.944
 5258TIP3    H115780   2.745   4.373   1.916
 5258TIP3    H215781   2.694   4.263   2.006
 5259TIP3   OH215782   5.386   3.431   2.235
 5259TIP3    H115783   5.316   3.411   2.172
 5259TIP3    H215784   5.457   3.467   2.182
 5260TIP3   OH215785   2.943   4.148   0.649
 5260TIP3    H115786   2.988   4.150   0.734
 5260TIP3    H215787   2.878   4.219   0.654
 5261TIP3   OH215788   5.141   2.185   3.319
 5261TIP3    H115789   5.210   2.251   3.323
 5261TIP3    H215790   5.176   2.116   3.264
 5262TIP3   OH215791   3.368   0.606   1.250
 5262TIP3    H115792   3.355   0.527   1.198
 5262TIP3    H215793   3.279   0.637   1.267
 5263TIP3   OH215794   0.178   5.733   4.183
 5263TIP3    H115795   0.088   5.760   4.164
 5263TIP3    H215796   0.173   5.690   4.268
 5264TIP3   OH215797   5.833   2.701   4.456
 5264TIP3    H115798   5.890   2.643   4.405
 5264TIP3    H215799   5.875   2.704   4.543
 5265TIP3   OH215800   1.200   2.833   4.087
 5265TIP3    H115801   1.221   2.872   4.003
 5265TIP3    H215802   1.251   2.752   4.090
 5266TIP3   OH215803   0.314   3.251   0.908
 5266TIP3    H115804   0.245   3.233   0.972
 5266TIP3    H215805   0.285   3.208   0.828
 5267TIP3   OH215806   1.033   2.376   2.204
 5267TIP3    H115807   1.063   2.399   2.116
 5267TIP3    H215808   1.047   2.455   2.256
 5268TIP3   OH215809   1.411   0.348   2.744
 5268TIP3    H115810   1.406   0.390   2.658
 5268TIP3    H215811   1.424   0.255   2.724
 5269TIP3   OH215812   4.239   2.374   4.700
 5269TIP3    H115813   4.254   2.329   4.783
 5269TIP3    H215814   4.324   2.414   4.679
 5270TIP3   OH215815   2.678   0.299   1.129
 5270TIP3    H115816   2.700   0.207   1.144
 5270TIP3    H215817   2.721   0.345   1.201
 5271TIP3   OH215818   5.703   1.658   0.181
 5271TIP3    H115819   5.673   1.567   0.174
 5271TIP3    H215820   5.719   1.686   0.091
 5272TIP3   OH215821   1.507   2.218   5.145
 5272TIP3    H115822   1.539   2.308   5.153
 5272TIP3    H215823   1.573   2.174   5.092
 5273TIP3   OH215824   2.899   4.990   1.628
 5273TIP3    H115825   2.901   4.897   1.652
 5273TIP3    H215826   2.820   5.000   1.575
 5274TIP3   OH215827   3.608   5.665   2.713
 5274TIP3    H115828   3.599   5.623   2.798
 5274TIP3    H215829   3.657   5.602   2.660
 5275TIP3   OH215830   2.567   4.300   4.473
 5275TIP3    H115831   2.551   4.381   4.522
 5275TIP3    H215832   2.645   4.320   4.420
 5276TIP3   OH215833   1.000   2.818   2.779
 5276TIP3    H115834   0.930   2.781   2.833
 5276TIP3    H215835   0.975   2.910   2.767
 5277TIP3   OH215836   2.594   3.787   4.030
 5277TIP3    H115837   2.629   3.701   4.009
 5277TIP3    H215838   2.621   3.804   4.120
 5278TIP3   OH215839   0.361   0.246   0.214
 5278TIP3    H115840   0.379   0.310   0.283
 5278TIP3    H215841   0.413   0.276   0.139
 5279TIP3   OH215842   2.912   0.099   0.723
 5279TIP3    H115843   2.882   0.113   0.813
 5279TIP3    H215844   2.978   0.168   0.710
 5280TIP3   OH215845   1.390   3.629   3.191
 5280TIP3    H115846   1.421   3.622   3.281
 5280TIP3    H215847   1.450   3.691   3.149
 5281TIP3   OH215848   2.171   1.714   4.949
 5281TIP3    H115849   2.266   1.703   4.952
 5281TIP3    H215850   2.146   1.732   5.039
 5282TIP3   OH215851   1.253   1.056   3.114
 5282TIP3    H115852   1.276   0.964   3.102
 5282TIP3    H215853   1.329   1.104   3.081
 5283TIP3   OH215854   3.740   4.797   0.334
 5283TIP3    H115855   3.656   4.758   0.358
 5283TIP3    H215856   3.805   4.729   0.353
 5284TIP3   OH215857   0.748   0.081   3.934
 5284TIP3    H115858   0.820   0.022   3.953
 5284TIP3    H215859   0.784   0.142   3.870
 5285TIP3   OH215860   3.431   0.838   2.544
 5285TIP3    H115861   3.380   0.854   2.623
 5285TIP3    H215862   3.415   0.915   2.489
 5286TIP3   OH215863   4.982   4.867   3.090
 5286TIP3    H115864   4.926   4.943   3.108
 5286TIP3    H215865   4.961   4.804   3.158
 5287TIP3   OH215866   6.200   3.424   1.909
 5287TIP3    H115867   6.257   3.488   1.868
 5287TIP3    H215868   6.115   3.435   1.866
 5288TIP3   OH215869   3.140   5.199   3.037
 5288TIP3    H115870   3.095   5.135   3.093
 5288TIP3    H215871   3.230   5.166   3.033
 5289TIP3   OH215872   6.315   5.320   1.599
 5289TIP3    H115873   6.344   5.410   1.585
 5289TIP3    H215874   6.306   5.312   1.694
 5290TIP3   OH215875   4.838   4.111   4.816
 5290TIP3    H115876   4.849   4.169   4.741
 5290TIP3    H215877   4.925   4.105   4.855
 5291TIP3   OH215878   1.786   1.225   4.221
 5291TIP3    H115879   1.699   1.194   4.195
 5291TIP3    H215880   1.841   1.206   4.145
 5292TIP3   OH215881   3.292   5.136   4.581
 5292TIP3    H115882   3.257   5.221   4.608
 5292TIP3    H215883   3.380   5.133   4.619
 5293TIP3   OH215884   4.880   4.149   0.111
 5293TIP3    H115885   4.975   4.146   0.121
 5293TIP3    H215886   4.859   4.072   0.059
 5294TIP3   OH215887   4.265   1.539   0.742
 5294TIP3    H115888   4.201   1.611   0.740
 5294TIP3    H215889   4.222   1.467   0.696
 5295TIP3   OH215890   3.744   5.362   2.718
 5295TIP3    H115891   3.803   5.350   2.644
 5295TIP3    H215892   3.656   5.354   2.681
 5296TIP3   OH215893   4.848   1.416   1.265
 5296TIP3    H115894   4.760   1.451   1.280
 5296TIP3    H215895   4.840   1.367   1.184
 5297TIP3   OH215896   1.274   3.086   0.607
 5297TIP3    H115897   1.315   3.015   0.557
 5297TIP3    H215898   1.283   3.060   0.698
 5298TIP3   OH215899   0.018   3.127   3.015
 5298TIP3    H115900   0.012   3.149   3.108
 5298TIP3    H215901   0.057   3.205   2.975
 5299TIP3   OH215902   3.489   3.412   2.548
 5299TIP3    H115903   3.523   3.430   2.636
 5299TIP3    H215904   3.563   3.428   2.490
 5300TIP3   OH215905   0.674   5.282   3.770
 5300TIP3    H115906   0.608   5.311   3.707
 5300TIP3    H215907   0.754   5.271   3.719
 5301TIP3   OH215908   4.724   5.980   4.038
 5301TIP3    H115909   4.806   5.987   3.990
 5301TIP3    H215910   4.676   5.910   3.993
 5302TIP3   OH215911   2.875   3.603   4.602
 5302TIP3    H115912   2.901   3.570   4.688
 5302TIP3    H215913   2.779   3.609   4.607
 5303TIP3   OH215914   2.817   0.061   2.119
 5303TIP3    H115915   2.738   0.010   2.100
 5303TIP3    H215916   2.799   0.146   2.079
 5304TIP3   OH215917   5.849   4.939   2.020
 5304TIP3    H115918   5.815   4.993   2.091
 5304TIP3    H215919   5.894   5.000   1.962
 5305TIP3   OH215920   2.873   1.472   5.026
 5305TIP3    H115921   2.907   1.555   4.993
 5305TIP3    H215922   2.795   1.496   5.076
 5306TIP3   OH215923   3.148   2.704   2.895
 5306TIP3    H115924   3.213   2.649   2.939
 5306TIP3    H215925   3.185   2.792   2.897
 5307TIP3   OH215926   3.044   4.606   3.379
 5307TIP3    H115927   3.003   4.691   3.395
 5307TIP3    H215928   3.018   4.553   3.454
 5308TIP3   OH215929   4.805   4.313   0.335
 5308TIP3    H115930   4.773   4.229   0.368
 5308TIP3    H215931   4.845   4.292   0.251
 5309TIP3   OH215932   5.564   4.220   1.363
 5309TIP3    H115933   5.533   4.130   1.352
 5309TIP3    H215934   5.589   4.226   1.455
 5310TIP3   OH215935   5.637   3.339   4.245
 5310TIP3    H115936   5.600   3.356   4.158
 5310TIP3    H215937   5.716   3.393   4.249
 5311TIP3   OH215938   0.211   5.407   2.949
 5311TIP3    H115939   0.295   5.371   2.977
 5311TIP3    H215940   0.226   5.501   2.942
 5312TIP3   OH215941   0.027   3.039   4.779
 5312TIP3    H115942   0.072   3.028   4.696
 5312TIP3    H215943   0.030   2.952   4.819
 5313TIP3   OH215944   3.177   5.913   2.561
 5313TIP3    H115945   3.101   5.904   2.505
 5313TIP3    H215946   3.156   5.861   2.639
 5314TIP3   OH215947   5.478   4.639   0.435
 5314TIP3    H115948   5.445   4.725   0.406
 5314TIP3    H215949   5.427   4.576   0.383
 5315TIP3   OH215950   2.973   1.251   3.867
 5315TIP3    H115951   2.900   1.267   3.808
 5315TIP3    H215952   2.982   1.332   3.917
 5316TIP3   OH215953   0.931   3.719   0.795
 5316TIP3    H115954   0.952   3.627   0.811
 5316TIP3    H215955   0.838   3.727   0.817
 5317TIP3   OH215956   0.453   4.742   1.974
 5317TIP3    H115957   0.452   4.707   1.885
 5317TIP3    H215958   0.396   4.683   2.024
 5318TIP3   OH215959   3.984   5.025   4.650
 5318TIP3    H115960   4.043   5.100   4.660
 5318TIP3    H215961   3.901   5.065   4.624
 5319TIP3   OH215962   4.717   5.695   0.978
 5319TIP3    H115963   4.730   5.790   0.967
 5319TIP3    H215964   4.677   5.667   0.895
 5320TIP3   OH215965   3.807   4.521   1.339
 5320TIP3    H115966   3.902   4.530   1.344
 5320TIP3    H215967   3.788   4.440   1.385
 5321TIP3   OH215968   0.262   5.871   1.162
 5321TIP3    H115969   0.231   5.905   1.078
 5321TIP3    H215970   0.212   5.919   1.228
 5322TIP3   OH215971   3.629   3.214   1.395
 5322TIP3    H115972   3.720   3.191   1.377
 5322TIP3    H215973   3.598   3.146   1.454
 5323TIP3   OH215974   2.154   5.146   4.961
 5323TIP3    H115975   2.237   5.116   4.998
 5323TIP3    H215976   2.091   5.140   5.033
 5324TIP3   OH215977   2.516   4.187   5.007
 5324TIP3    H115978   2.531   4.203   4.914
 5324TIP3    H215979   2.461   4.108   5.008
 5325TIP3   OH215980   4.230   3.411   3.031
 5325TIP3    H115981   4.267   3.499   3.020
 5325TIP3    H215982   4.271   3.378   3.111
 5326TIP3   OH215983   0.651   3.434   1.855
 5326TIP3    H115984   0.714   3.484   1.908
 5326TIP3    H215985   0.702   3.361   1.821
 5327TIP3   OH215986   4.565   2.626   3.529
 5327TIP3    H115987   4.537   2.689   3.462
 5327TIP3    H215988   4.505   2.553   3.520
 5328TIP3   OH215989   1.550   5.407   3.448
 5328TIP3    H115990   1.457   5.386   3.444
 5328TIP3    H215991   1.554   5.501   3.429
 5329TIP3   OH215992   5.347   2.348   0.650
 5329TIP3    H115993   5.404   2.359   0.574
 5329TIP3    H215994   5.259   2.337   0.614
 5330TIP3   OH215995   2.788   1.236   4.206
 5330TIP3    H115996   2.760   1.155   4.249
 5330TIP3    H215997   2.867   1.262   4.252
 5331TIP3   OH215998   1.507   2.838   2.268
 5331TIP3    H115999   1.546   2.792   2.342
 5331TIP3    H216000   1.554   2.804   2.192
 5332TIP3   OH216001   2.976   3.968   2.991
 5332TIP3    H116002   2.882   3.951   2.994
 5332TIP3    H216003   2.993   4.024   3.067
 5333TIP3   OH216004   1.782   3.045   2.346
 5333TIP3    H116005   1.761   3.067   2.255
 5333TIP3    H216006   1.737   3.112   2.397
 5334TIP3   OH216007   3.092   3.854   0.519
 5334TIP3    H116008   3.019   3.900   0.561
 5334TIP3    H216009   3.138   3.811   0.591
 5335TIP3   OH216010   5.321   0.879   0.585
 5335TIP3    H116011   5.310   0.868   0.491
 5335TIP3    H216012   5.415   0.894   0.597
 5336TIP3   OH216013   4.246   5.262   4.099
 5336TIP3    H116014   4.321   5.207   4.077
 5336TIP3    H216015   4.207   5.220   4.176
 5337TIP3   OH216016   2.669   1.371   1.961
 5337TIP3    H116017   2.621   1.438   2.008
 5337TIP3    H216018   2.658   1.393   1.869
 5338TIP3   OH216019   2.523   2.992   3.071
 5338TIP3    H116020   2.548   3.049   2.998
 5338TIP3    H216021   2.606   2.966   3.111
 5339TIP3   OH216022   5.056   4.680   2.350
 5339TIP3    H116023   5.066   4.763   2.397
 5339TIP3    H216024   5.130   4.626   2.379
 5340TIP3   OH216025   3.921   3.137   1.316
 5340TIP3    H116026   4.012   3.109   1.325
 5340TIP3    H216027   3.874   3.057   1.293
 5341TIP3   OH216028   1.863   5.262   3.670
 5341TIP3    H116029   1.824   5.297   3.750
 5341TIP3    H216030   1.790   5.226   3.621
 5342TIP3   OH216031   6.225   5.753   2.263
 5342TIP3    H116032   6.152   5.796   2.218
 5342TIP3    H216033   6.272   5.707   2.193
 5343TIP3   OH216034   0.465   3.675   0.427
 5343TIP3    H116035   0.389   3.634   0.386
 5343TIP3    H216036   0.503   3.607   0.482
 5344TIP3   OH216037   6.153   4.888   1.459
 5344TIP3    H116038   6.161   4.888   1.555
 5344TIP3    H216039   6.239   4.858   1.429
 5345TIP3   OH216040   4.152   2.956   4.496
 5345TIP3    H116041   4.148   2.888   4.564
 5345TIP3    H216042   4.204   2.916   4.426
 5346TIP3   OH216043   2.205   3.534   1.537
 5346TIP3    H116044   2.246   3.617   1.513
 5346TIP3    H216045   2.111   3.553   1.536
 5347TIP3   OH216046   1.606   3.160   0.530
 5347TIP3    H116047   1.599   3.204   0.614
 5347TIP3    H216048   1.668   3.214   0.480
 5348TIP3   OH216049   5.376   5.793   3.455
 5348TIP3    H116050   5.463   5.798   3.417
 5348TIP3    H216051   5.330   5.869   3.419
 5349TIP3   OH216052   0.424   3.550   4.481
 5349TIP3    H116053   0.444   3.467   4.525
 5349TIP3    H216054   0.499   3.565   4.423
 5350TIP3   OH216055   5.761   4.806   4.695
 5350TIP3    H116056   5.768   4.848   4.609
 5350TIP3    H216057   5.835   4.841   4.744
 5351TIP3   OH216058   1.608   2.694   4.350
 5351TIP3    H116059   1.672   2.747   4.399
 5351TIP3    H216060   1.574   2.754   4.283
 5352TIP3   OH216061   3.120   1.711   3.652
 5352TIP3    H116062   3.131   1.616   3.651
 5352TIP3    H216063   3.097   1.733   3.562
 5353TIP3   OH216064   6.235   4.855   1.744
 5353TIP3    H116065   6.224   4.760   1.750
 5353TIP3    H216066   6.317   4.873   1.789
 5354TIP3   OH216067   4.522   3.930   3.156
 5354TIP3    H116068   4.438   3.900   3.121
 5354TIP3    H216069   4.498   3.984   3.231
 5355TIP3   OH216070   2.885   0.624   3.933
 5355TIP3    H116071   2.803   0.673   3.937
 5355TIP3    H216072   2.859   0.536   3.904
 5356TIP3   OH216073   5.535   5.127   3.275
 5356TIP3    H116074   5.557   5.034   3.267
 5356TIP3    H216075   5.448   5.134   3.236
 5357TIP3   OH216076   3.642   3.486   1.439
 5357TIP3    H116077   3.552   3.519   1.443
 5357TIP3    H216078   3.632   3.394   1.415
 5358TIP3   OH216079   1.246   1.503   4.303
 5358TIP3    H116080   1.307   1.454   4.359
 5358TIP3    H216081   1.222   1.441   4.235
 5359TIP3   OH216082   4.601   4.006   2.445
 5359TIP3    H116083   4.551   3.943   2.393
 5359TIP3    H216084   4.690   4.001   2.410
 5360TIP3   OH216085   0.891   3.955   3.682
 5360TIP3    H116086   0.844   4.032   3.715
 5360TIP3    H216087   0.849   3.881   3.726
 5361TIP3   OH216088   3.020   1.479   4.001
 5361TIP3    H116089   3.094   1.537   3.981
 5361TIP3    H216090   2.970   1.525   4.068
 5362TIP3   OH216091   0.979   4.903   0.379
 5362TIP3    H116092   0.978   4.843   0.454
 5362TIP3    H216093   1.067   4.941   0.381
 5363TIP3   OH216094   2.254   4.456   2.461
 5363TIP3    H116095   2.317   4.457   2.534
 5363TIP3    H216096   2.185   4.397   2.490
 5364TIP3   OH216097   2.333   5.573   0.279
 5364TIP3    H116098   2.273   5.557   0.206
 5364TIP3    H216099   2.296   5.650   0.323
 5365TIP3   OH216100   3.704   5.742   3.391
 5365TIP3    H116101   3.706   5.711   3.482
 5365TIP3    H216102   3.767   5.814   3.389
 5366TIP3   OH216103   2.640   1.105   1.849
 5366TIP3    H116104   2.635   1.199   1.831
 5366TIP3    H216105   2.568   1.089   1.910
 5367TIP3   OH216106   5.139   5.640   3.207
 5367TIP3    H116107   5.185   5.721   3.189
 5367TIP3    H216108   5.070   5.665   3.269
 5368TIP3   OH216109   1.240   5.062   1.824
 5368TIP3    H116110   1.194   5.068   1.740
 5368TIP3    H216111   1.231   5.150   1.862
 5369TIP3   OH216112   3.895   1.815   4.648
 5369TIP3    H116113   3.827   1.857   4.699
 5369TIP3    H216114   3.891   1.723   4.673
 5370TIP3   OH216115   6.077   3.767   1.393
 5370TIP3    H116116   6.061   3.692   1.335
 5370TIP3    H216117   6.043   3.740   1.478
 5371TIP3   OH216118   3.393   0.734   3.656
 5371TIP3    H116119   3.379   0.797   3.726
 5371TIP3    H216120   3.479   0.757   3.620
 5372TIP3   OH216121   6.092   2.642   2.556
 5372TIP3    H116122   6.003   2.658   2.587
 5372TIP3    H216123   6.147   2.650   2.634
 5373TIP3   OH216124   4.096   5.568   2.823
 5373TIP3    H116125   4.030   5.627   2.787
 5373TIP3    H216126   4.177   5.618   2.821
 5374TIP3   OH216127   4.305   3.969   3.875
 5374TIP3    H116128   4.270   4.045   3.830
 5374TIP3    H216129   4.400   3.975   3.862
 5375TIP3   OH216130   0.196   5.545   1.850
 5375TIP3    H116131   0.283   5.548   1.810
 5375TIP3    H216132   0.213   5.524   1.942
 5376TIP3   OH216133   3.568   4.936   4.432
 5376TIP3    H116134   3.527   4.851   4.444
 5376TIP3    H216135   3.636   4.921   4.366
 5377TIP3   OH216136   3.444   1.347   0.817
 5377TIP3    H116137   3.482   1.305   0.741
 5377TIP3    H216138   3.518   1.392   0.859
 5378TIP3   OH216139   0.823   1.653   0.844
 5378TIP3    H116140   0.803   1.695   0.928
 5378TIP3    H216141   0.852   1.725   0.788
 5379TIP3   OH216142   5.613   1.503   2.787
 5379TIP3    H116143   5.625   1.598   2.788
 5379TIP3    H216144   5.587   1.481   2.876
 5380TIP3   OH216145   5.172   3.997   1.782
 5380TIP3    H116146   5.077   4.005   1.782
 5380TIP3    H216147   5.188   3.905   1.803
 5381TIP3   OH216148   1.785   5.842   4.745
 5381TIP3    H116149   1.833   5.922   4.727
 5381TIP3    H216150   1.771   5.802   4.659
 5382TIP3   OH216151   1.562   1.784   3.277
 5382TIP3    H116152   1.479   1.832   3.271
 5382TIP3    H216153   1.555   1.715   3.211
 5383TIP3   OH216154   3.137   0.284   1.690
 5383TIP3    H116155   3.227   0.251   1.684
 5383TIP3    H216156   3.085   0.208   1.716
 5384TIP3   OH216157   0.412   0.181   3.274
 5384TIP3    H116158   0.476   0.250   3.256
 5384TIP3    H216159   0.451   0.102   3.237
 5385TIP3   OH216160   2.016   0.973   3.396
 5385TIP3    H116161   2.041   1.065   3.401
 5385TIP3    H216162   2.075   0.935   3.331
 5386TIP3   OH216163   5.173   3.230   3.632
 5386TIP3    H116164   5.244   3.205   3.691
 5386TIP3    H216165   5.131   3.148   3.609
 5387TIP3   OH216166   6.021   5.188   2.854
 5387TIP3    H116167   6.050   5.107   2.896
 5387TIP3    H216168   6.034   5.172   2.761
 5388TIP3   OH216169   5.992   5.919   2.183
 5388TIP3    H116170   5.962   5.993   2.131
 5388TIP3    H216171   5.925   5.852   2.170
 5389TIP3   OH216172   2.488   4.358   0.597
 5389TIP3    H116173   2.553   4.428   0.606
 5389TIP3    H216174   2.405   4.400   0.620
 5390TIP3   OH216175   5.767   0.822   0.038
 5390TIP3    H116176   5.828   0.773  -0.018
 5390TIP3    H216177   5.756   0.906  -0.006
 5391TIP3   OH216178   4.382   5.447   1.895
 5391TIP3    H116179   4.407   5.539   1.881
 5391TIP3    H216180   4.384   5.436   1.990
 5392TIP3   OH216181   4.174   2.357   3.062
 5392TIP3    H116182   4.104   2.363   2.997
 5392TIP3    H216183   4.149   2.282   3.117
 5393TIP3   OH216184   5.885   4.569   3.348
 5393TIP3    H116185   5.816   4.511   3.317
 5393TIP3    H216186   5.934   4.593   3.270
 5394TIP3   OH216187   5.252   1.555   2.917
 5394TIP3    H116188   5.270   1.558   2.823
 5394TIP3    H216189   5.168   1.601   2.927
 5395TIP3   OH216190   2.738   5.324   0.412
 5395TIP3    H116191   2.707   5.240   0.377
 5395TIP3    H216192   2.832   5.311   0.426
 5396TIP3   OH216193   1.604   3.789   4.491
 5396TIP3    H116194   1.530   3.795   4.430
 5396TIP3    H216195   1.635   3.699   4.481
 5397TIP3   OH216196   2.851   4.285   2.808
 5397TIP3    H116197   2.862   4.203   2.760
 5397TIP3    H216198   2.841   4.351   2.740
 5398TIP3   OH216199   2.748   0.642   3.209
 5398TIP3    H116200   2.734   0.569   3.270
 5398TIP3    H216201   2.683   0.627   3.140
 5399TIP3   OH216202   6.067   5.083   1.095
 5399TIP3    H116203   6.141   5.028   1.067
 5399TIP3    H216204   6.026   5.033   1.165
 5400TIP3   OH216205   2.226   0.499   1.878
 5400TIP3    H116206   2.195   0.494   1.788
 5400TIP3    H216207   2.151   0.533   1.927
 5401TIP3   OH216208   4.034   3.346   4.237
 5401TIP3    H116209   4.055   3.297   4.316
 5401TIP3    H216210   4.054   3.437   4.258
 5402TIP3   OH216211   4.096   4.463   1.338
 5402TIP3    H116212   4.065   4.383   1.295
 5402TIP3    H216213   4.191   4.456   1.337
 5403TIP3   OH216214   2.767   4.997   0.406
 5403TIP3    H116215   2.779   4.967   0.496
 5403TIP3    H216216   2.693   4.946   0.373
 5404TIP3   OH216217   0.178   1.599   4.148
 5404TIP3    H116218   0.088   1.587   4.116
 5404TIP3    H216219   0.195   1.520   4.199
 5405TIP3   OH216220   6.249   3.619   1.073
 5405TIP3    H116221   6.221   3.530   1.052
 5405TIP3    H216222   6.215   3.672   1.001
 5406TIP3   OH216223   3.336   4.444   1.464
 5406TIP3    H116224   3.395   4.494   1.407
 5406TIP3    H216225   3.249   4.467   1.434
 5407TIP3   OH216226   6.069   0.713   1.935
 5407TIP3    H116227   5.988   0.707   1.987
 5407TIP3    H216228   6.094   0.805   1.940
 5408TIP3   OH216229   4.427   2.392   3.532
 5408TIP3    H116230   4.428   2.319   3.594
 5408TIP3    H216231   4.342   2.387   3.489
 5409TIP3   OH216232   4.291   1.025   0.915
 5409TIP3    H116233   4.329   1.051   0.998
 5409TIP3    H216234   4.212   0.976   0.938
 5410TIP3   OH216235   2.305   3.710   1.260
 5410TIP3    H116236   2.367   3.646   1.295
 5410TIP3    H216237   2.238   3.657   1.217
 5411TIP3   OH216238   3.733   5.472   1.562
 5411TIP3    H116239   3.788   5.417   1.618
 5411TIP3    H216240   3.775   5.468   1.476
 5412TIP3   OH216241   4.524   2.390   4.062
 5412TIP3    H116242   4.531   2.459   4.129
 5412TIP3    H216243   4.441   2.347   4.080
 5413TIP3   OH216244   1.109   5.661   0.789
 5413TIP3    H116245   1.066   5.616   0.717
 5413TIP3    H216246   1.116   5.595   0.858
 5414TIP3   OH216247   4.644   0.341   4.604
 5414TIP3    H116248   4.592   0.374   4.531
 5414TIP3    H216249   4.734   0.338   4.571
 5415TIP3   OH216250   4.424   3.415   4.454
 5415TIP3    H116251   4.366   3.397   4.528
 5415TIP3    H216252   4.452   3.505   4.467
 5416TIP3   OH216253   4.675   3.571   3.835
 5416TIP3    H116254   4.713   3.484   3.829
 5416TIP3    H216255   4.656   3.583   3.928
 5417TIP3   OH216256   1.106   0.742   3.600
 5417TIP3    H116257   1.089   0.835   3.619
 5417TIP3    H216258   1.119   0.739   3.505
 5418TIP3   OH216259   4.665  -0.041   4.027
 5418TIP3    H116260   4.604  -0.006   3.962
 5418TIP3    H216261   4.721   0.034   4.049
 5419TIP3   OH216262   2.662   4.969   3.450
 5419TIP3    H116263   2.612   5.021   3.387
 5419TIP3    H216264   2.634   4.879   3.434
 5420TIP3   OH216265   0.240   3.542   0.325
 5420TIP3    H116266   0.189   3.563   0.246
 5420TIP3    H216267   0.271   3.453   0.310
 5421TIP3   OH216268   5.867   2.176   0.836
 5421TIP3    H116269   5.904   2.251   0.882
 5421TIP3    H216270   5.926   2.104   0.856
 5422TIP3   OH216271   1.052   0.145   2.159
 5422TIP3    H116272   1.122   0.190   2.205
 5422TIP3    H216273   1.044   0.192   2.075
 5423TIP3   OH216274   2.473   1.942   2.962
 5423TIP3    H116275   2.392   1.975   3.003
 5423TIP3    H216276   2.472   1.848   2.979
 5424TIP3   OH216277   1.313   5.012   5.087
 5424TIP3    H116278   1.368   4.973   5.155
 5424TIP3    H216279   1.227   4.974   5.101
 5425TIP3   OH216280   5.542   5.400   3.606
 5425TIP3    H116281   5.452   5.417   3.577
 5425TIP3    H216282   5.561   5.470   3.668
 5426TIP3   OH216283   1.607   2.213   0.399
 5426TIP3    H116284   1.522   2.184   0.366
 5426TIP3    H216285   1.668   2.144   0.373
 5427TIP3   OH216286   1.491   1.501   3.993
 5427TIP3    H116287   1.487   1.563   4.066
 5427TIP3    H216288   1.510   1.417   4.033
 5428TIP3   OH216289   2.381   4.870   2.936
 5428TIP3    H116290   2.466   4.856   2.977
 5428TIP3    H216291   2.367   4.793   2.881
 5429TIP3   OH216292   5.427   3.265   0.868
 5429TIP3    H116293   5.376   3.238   0.792
 5429TIP3    H216294   5.515   3.280   0.834
 5430TIP3   OH216295   3.166   2.977   2.842
 5430TIP3    H116296   3.134   2.969   2.752
 5430TIP3    H216297   3.216   3.058   2.843
 5431TIP3   OH216298   0.618   2.384   3.513
 5431TIP3    H116299   0.569   2.446   3.568
 5431TIP3    H216300   0.622   2.304   3.564
 5432TIP3   OH216301   0.511   1.718   3.142
 5432TIP3    H116302   0.602   1.701   3.165
 5432TIP3    H216303   0.515   1.789   3.078
 5433TIP3   OH216304   4.388   3.093   1.500
 5433TIP3    H116305   4.315   3.080   1.439
 5433TIP3    H216306   4.395   3.188   1.509
 5434TIP3   OH216307   1.852   3.873   1.126
 5434TIP3    H116308   1.821   3.827   1.204
 5434TIP3    H216309   1.874   3.804   1.064
 5435TIP3   OH216310   4.505   3.444   4.901
 5435TIP3    H116311   4.434   3.502   4.932
 5435TIP3    H216312   4.461   3.380   4.846
 5436TIP3   OH216313   0.560   0.383   2.104
 5436TIP3    H116314   0.559   0.355   2.195
 5436TIP3    H216315   0.493   0.451   2.099
 5437TIP3   OH216316   2.283   5.070   1.687
 5437TIP3    H116317   2.369   5.028   1.692
 5437TIP3    H216318   2.222   4.999   1.670
 5438TIP3   OH216319   2.037   0.232   3.124
 5438TIP3    H116320   2.100   0.190   3.066
 5438TIP3    H216321   1.987   0.291   3.067
 5439TIP3   OH216322   1.714   1.932   0.099
 5439TIP3    H116323   1.750   1.844   0.089
 5439TIP3    H216324   1.630   1.929   0.054
 5440TIP3   OH216325   5.954   3.665   2.201
 5440TIP3    H116326   5.952   3.758   2.224
 5440TIP3    H216327   5.939   3.664   2.106
 5441TIP3   OH216328   1.982   3.959   1.912
 5441TIP3    H116329   1.948   4.021   1.976
 5441TIP3    H216330   1.977   4.005   1.828
 5442TIP3   OH216331   5.253   0.829   2.627
 5442TIP3    H116332   5.316   0.829   2.700
 5442TIP3    H216333   5.167   0.830   2.669
 5443TIP3   OH216334   1.270   0.577   0.353
 5443TIP3    H116335   1.295   0.487   0.331
 5443TIP3    H216336   1.193   0.567   0.409
 5444TIP3   OH216337   0.903   3.012   3.330
 5444TIP3    H116338   0.905   2.919   3.309
 5444TIP3    H216339   0.970   3.051   3.274
 5445TIP3   OH216340   2.294   0.669   0.472
 5445TIP3    H116341   2.218   0.669   0.413
 5445TIP3    H216342   2.365   0.635   0.418
 5446TIP3   OH216343   3.749   2.665   0.719
 5446TIP3    H116344   3.669   2.687   0.767
 5446TIP3    H216345   3.723   2.666   0.627
 5447TIP3   OH216346   1.096   3.747   3.728
 5447TIP3    H116347   1.178   3.709   3.758
 5447TIP3    H216348   1.074   3.812   3.795
 5448TIP3   OH216349   2.117   0.809   3.213
 5448TIP3    H116350   2.125   0.830   3.120
 5448TIP3    H216351   2.203   0.776   3.238
 5449TIP3   OH216352   4.354   2.834   0.206
 5449TIP3    H116353   4.262   2.814   0.224
 5449TIP3    H216354   4.396   2.748   0.201
 5450TIP3   OH216355   5.412   3.961   0.021
 5450TIP3    H116356   5.486   4.020   0.028
 5450TIP3    H216357   5.451   3.876  -0.003
 5451TIP3   OH216358   3.851   1.455   3.421
 5451TIP3    H116359   3.892   1.445   3.507
 5451TIP3    H216360   3.891   1.533   3.384
 5452TIP3   OH216361   1.418   4.185   2.084
 5452TIP3    H116362   1.399   4.257   2.025
 5452TIP3    H216363   1.485   4.219   2.144
 5453TIP3   OH216364   4.904   1.155   4.537
 5453TIP3    H116365   4.873   1.122   4.622
 5453TIP3    H216366   4.828   1.151   4.480
 5454TIP3   OH216367   3.195   1.486   4.676
 5454TIP3    H116368   3.155   1.403   4.650
 5454TIP3    H216369   3.257   1.461   4.745
 5455TIP3   OH216370   5.531   0.591   2.407
 5455TIP3    H116371   5.592   0.561   2.339
 5455TIP3    H216372   5.452   0.615   2.359
 5456TIP3   OH216373   4.329   3.114   2.837
 5456TIP3    H116374   4.369   3.027   2.827
 5456TIP3    H216375   4.403   3.173   2.848
 5457TIP3   OH216376   2.088   1.456   4.529
 5457TIP3    H116377   2.026   1.518   4.490
 5457TIP3    H216378   2.035   1.404   4.589
 5458TIP3   OH216379   1.021   5.298   1.153
 5458TIP3    H116380   0.976   5.221   1.121
 5458TIP3    H216381   1.052   5.274   1.240
 5459TIP3   OH216382   4.509   0.808   3.311
 5459TIP3    H116383   4.550   0.872   3.369
 5459TIP3    H216384   4.509   0.850   3.225
 5460TIP3   OH216385   0.015   0.472   3.956
 5460TIP3    H116386   0.033   0.446   3.865
 5460TIP3    H216387   0.094   0.446   4.004
 5461TIP3   OH216388   2.140   3.284   0.986
 5461TIP3    H116389   2.171   3.241   1.066
 5461TIP3    H216390   2.046   3.299   1.002
 5462TIP3   OH216391   5.701   4.179   3.457
 5462TIP3    H116392   5.685   4.237   3.531
 5462TIP3    H216393   5.783   4.135   3.478
 5463TIP3   OH216394   3.613   5.798   0.815
 5463TIP3    H116395   3.706   5.819   0.820
 5463TIP3    H216396   3.583   5.801   0.906
 5464TIP3   OH216397   5.488   3.164   4.666
 5464TIP3    H116398   5.539   3.168   4.747
 5464TIP3    H216399   5.551   3.140   4.598
 5465TIP3   OH216400   0.544   5.763   4.254
 5465TIP3    H116401   0.475   5.817   4.217
 5465TIP3    H216402   0.622   5.785   4.203
 5466TIP3   OH216403   5.319   0.180   0.623
 5466TIP3    H116404   5.403   0.140   0.600
 5466TIP3    H216405   5.312   0.168   0.718
 5467TIP3   OH216406   4.069   2.742   0.870
 5467TIP3    H116407   4.006   2.813   0.883
 5467TIP3    H216408   4.062   2.718   0.778
 5468TIP3   OH216409   0.781   1.796   5.164
 5468TIP3    H116410   0.763   1.701   5.167
 5468TIP3    H216411   0.850   1.809   5.229
 5469TIP3   OH216412   4.032   1.624   0.332
 5469TIP3    H116413   3.956   1.621   0.273
 5469TIP3    H216414   4.103   1.658   0.277
 5470TIP3   OH216415   5.751   1.685   2.086
 5470TIP3    H116416   5.715   1.734   2.160
 5470TIP3    H216417   5.792   1.752   2.031
 5471TIP3   OH216418   0.950   1.886   0.708
 5471TIP3    H116419   0.914   1.972   0.683
 5471TIP3    H216420   0.999   1.857   0.632
 5472TIP3   OH216421   3.056   4.949   1.916
 5472TIP3    H116422   3.065   4.982   1.826
 5472TIP3    H216423   2.991   4.879   1.909
 5473TIP3   OH216424   5.042   3.438   4.271
 5473TIP3    H116425   5.122   3.409   4.315
 5473TIP3    H216426   5.009   3.509   4.326
 5474TIP3   OH216427   3.770   5.305   4.018
 5474TIP3    H116428   3.689   5.255   4.027
 5474TIP3    H216429   3.808   5.306   4.106
 5475TIP3   OH216430   0.035   1.283   2.921
 5475TIP3    H116431   0.055   1.307   2.831
 5475TIP3    H216432   0.111   1.233   2.951
 5476TIP3   OH216433   2.531   1.812   0.021
 5476TIP3    H116434   2.602   1.784   0.078
 5476TIP3    H216435   2.533   1.908   0.025
 5477TIP3   OH216436   2.832   3.396   3.446
 5477TIP3    H116437   2.824   3.309   3.407
 5477TIP3    H216438   2.887   3.445   3.385
 5478TIP3   OH216439   3.498   2.001   4.164
 5478TIP3    H116440   3.407   2.015   4.191
 5478TIP3    H216441   3.494   1.996   4.068
 5479TIP3   OH216442   1.458   4.355   4.084
 5479TIP3    H116443   1.470   4.261   4.081
 5479TIP3    H216444   1.363   4.367   4.087
 5480TIP3   OH216445   5.311   2.610   1.403
 5480TIP3    H116446   5.401   2.613   1.437
 5480TIP3    H216447   5.282   2.701   1.403
 5481TIP3   OH216448   3.973   1.274   2.775
 5481TIP3    H116449   3.988   1.181   2.759
 5481TIP3    H216450   4.038   1.298   2.841
 5482TIP3   OH216451   1.917   1.211   4.453
 5482TIP3    H116452   2.000   1.233   4.409
 5482TIP3    H216453   1.850   1.225   4.386
 5483TIP3   OH216454   2.361   1.193   1.577
 5483TIP3    H116455   2.380   1.115   1.524
 5483TIP3    H216456   2.318   1.253   1.515
 5484TIP3   OH216457   2.434   4.702   4.212
 5484TIP3    H116458   2.394   4.632   4.161
 5484TIP3    H216459   2.362   4.736   4.266
 5485TIP3   OH216460   4.680   1.582   1.578
 5485TIP3    H116461   4.738   1.655   1.600
 5485TIP3    H216462   4.682   1.577   1.483
 5486TIP3   OH216463   5.217   2.656   2.348
 5486TIP3    H116464   5.273   2.704   2.410
 5486TIP3    H216465   5.175   2.589   2.402
 5487TIP3   OH216466   2.067   1.896   1.167
 5487TIP3    H116467   1.984   1.881   1.121
 5487TIP3    H216468   2.049   1.970   1.225
 5488TIP3   OH216469   4.080   2.748   4.664
 5488TIP3    H116470   4.058   2.671   4.613
 5488TIP3    H216471   4.166   2.729   4.702
 5489TIP3   OH216472   2.728   1.833   3.974
 5489TIP3    H116473   2.724   1.927   3.962
 5489TIP3    H216474   2.646   1.810   4.018
 5490TIP3   OH216475   4.270   3.834   0.162
 5490TIP3    H116476   4.314   3.847   0.246
 5490TIP3    H216477   4.327   3.773   0.114
 5491TIP3   OH216478   4.914   3.021   1.662
 5491TIP3    H116479   4.992   2.976   1.631
 5491TIP3    H216480   4.845   2.995   1.600
 5492TIP3   OH216481   4.280   1.157   4.049
 5492TIP3    H116482   4.263   1.244   4.085
 5492TIP3    H216483   4.374   1.156   4.031
 5493TIP3   OH216484   4.661   1.935   4.562
 5493TIP3    H116485   4.609   1.877   4.506
 5493TIP3    H216486   4.706   1.876   4.623
 5494TIP3   OH216487   2.462   0.025   4.868
 5494TIP3    H116488   2.451  -0.003   4.958
 5494TIP3    H216489   2.422  -0.044   4.815
 5495TIP3   OH216490   6.055   3.075   3.152
 5495TIP3    H116491   5.987   3.007   3.157
 5495TIP3    H216492   6.115   3.043   3.084
 5496TIP3   OH216493   1.157   3.322   2.214
 5496TIP3    H116494   1.154   3.308   2.120
 5496TIP3    H216495   1.147   3.416   2.226
 5497TIP3   OH216496   4.934   3.659   3.740
 5497TIP3    H116497   5.001   3.695   3.798
 5497TIP3    H216498   4.860   3.641   3.797
 5498TIP3   OH216499   5.258   1.159   3.348
 5498TIP3    H116500   5.234   1.105   3.272
 5498TIP3    H216501   5.181   1.214   3.363
 5499TIP3   OH216502   5.437   3.197   1.171
 5499TIP3    H116503   5.515   3.220   1.221
 5499TIP3    H216504   5.445   3.246   1.089
 5500TIP3   OH216505   3.731   3.240   0.392
 5500TIP3    H116506   3.767   3.160   0.355
 5500TIP3    H216507   3.708   3.217   0.482
 5501TIP3   OH216508   5.033   0.949   4.749
 5501TIP3    H116509   5.098   1.010   4.785
 5501TIP3    H216510   4.960   0.953   4.810
 5502TIP3   OH216511   5.272   1.155   0.257
 5502TIP3    H116512   5.291   1.135   0.165
 5502TIP3    H216513   5.244   1.071   0.294
 5503TIP3   OH216514   2.941   5.681   0.229
 5503TIP3    H116515   3.032   5.710   0.236
 5503TIP3    H216516   2.890   5.759   0.252
 5504TIP3   OH216517   5.617   5.405   0.763
 5504TIP3    H116518   5.557   5.479   0.774
 5504TIP3    H216519   5.694   5.442   0.720
 5505TIP3   OH216520   5.890   1.776   1.310
 5505TIP3    H116521   5.945   1.818   1.243
 5505TIP3    H216522   5.843   1.848   1.352
 5506TIP3   OH216523   0.660   4.738   3.673
 5506TIP3    H116524   0.590   4.671   3.673
 5506TIP3    H216525   0.613   4.821   3.668
 5507TIP3   OH216526   4.802   3.861   2.072
 5507TIP3    H116527   4.895   3.883   2.080
 5507TIP3    H216528   4.759   3.944   2.052
 5508TIP3   OH216529   3.493   5.567   4.072
 5508TIP3    H116530   3.501   5.549   3.978
 5508TIP3    H216531   3.465   5.483   4.110
 5509TIP3   OH216532   5.604   3.505   5.054
 5509TIP3    H116533   5.601   3.601   5.063
 5509TIP3    H216534   5.539   3.473   5.116
 5510TIP3   OH216535   2.939   5.359   1.086
 5510TIP3    H116536   2.957   5.278   1.040
 5510TIP3    H216537   3.002   5.361   1.158
 5511TIP3   OH216538   4.095   5.887   1.392
 5511TIP3    H116539   4.178   5.846   1.368
 5511TIP3    H216540   4.120   5.975   1.423
 5512TIP3   OH216541   0.957   4.755   1.649
 5512TIP3    H116542   0.996   4.776   1.733
 5512TIP3    H216543   1.028   4.710   1.601
 5513TIP3   OH216544   3.104   3.177   3.163
 5513TIP3    H116545   3.079   3.186   3.255
 5513TIP3    H216546   3.181   3.120   3.165
 5514TIP3   OH216547   2.803   5.274   4.234
 5514TIP3    H116548   2.879   5.286   4.291
 5514TIP3    H216549   2.828   5.314   4.151
 5515TIP3   OH216550   0.232   4.084   4.686
 5515TIP3    H116551   0.248   4.060   4.777
 5515TIP3    H216552   0.184   4.009   4.650
 5516TIP3   OH216553   2.178   0.590   3.475
 5516TIP3    H116554   2.170   0.589   3.570
 5516TIP3    H216555   2.263   0.630   3.458
 5517TIP3   OH216556   1.965   4.986   2.333
 5517TIP3    H116557   1.902   4.930   2.287
 5517TIP3    H216558   2.028   4.924   2.370
 5518TIP3   OH216559   6.314   3.949   3.151
 5518TIP3    H116560   6.341   3.933   3.061
 5518TIP3    H216561   6.349   4.036   3.172
 5519TIP3   OH216562   4.108   3.296   5.091
 5519TIP3    H116563   4.172   3.309   5.160
 5519TIP3    H216564   4.084   3.384   5.063
 5520TIP3   OH216565   0.562   5.806   1.681
 5520TIP3    H116566   0.531   5.865   1.612
 5520TIP3    H216567   0.560   5.719   1.641
 5521TIP3   OH216568   0.192   1.598   1.009
 5521TIP3    H116569   0.131   1.534   0.973
 5521TIP3    H216570   0.156   1.683   0.982
 5522TIP3   OH216571   1.839   3.098   1.508
 5522TIP3    H116572   1.788   3.179   1.509
 5522TIP3    H216573   1.790   3.037   1.562
 5523TIP3   OH216574   6.002   4.378   0.903
 5523TIP3    H116575   5.955   4.304   0.941
 5523TIP3    H216576   5.968   4.384   0.813
 5524TIP3   OH216577   5.101   1.453   2.126
 5524TIP3    H116578   5.111   1.518   2.056
 5524TIP3    H216579   5.016   1.414   2.111
 5525TIP3   OH216580   4.021   2.291   3.861
 5525TIP3    H116581   4.043   2.279   3.768
 5525TIP3    H216582   4.061   2.374   3.884
 5526TIP3   OH216583   0.202   0.425   3.730
 5526TIP3    H116584   0.210   0.520   3.721
 5526TIP3    H216585   0.269   0.390   3.671
 5527TIP3   OH216586   1.797   1.215   1.151
 5527TIP3    H116587   1.865   1.227   1.085
 5527TIP3    H216588   1.837   1.244   1.233
 5528TIP3   OH216589   3.775   0.796   4.286
 5528TIP3    H116590   3.808   0.716   4.246
 5528TIP3    H216591   3.681   0.781   4.297
 5529TIP3   OH216592   2.714   4.445   4.824
 5529TIP3    H116593   2.732   4.505   4.751
 5529TIP3    H216594   2.648   4.385   4.789
 5530TIP3   OH216595   3.307   3.154   1.656
 5530TIP3    H116596   3.386   3.113   1.621
 5530TIP3    H216597   3.281   3.218   1.589
 5531TIP3   OH216598   6.010   3.224   0.145
 5531TIP3    H116599   6.036   3.309   0.181
 5531TIP3    H216600   6.002   3.167   0.222
 5532TIP3   OH216601   5.203   2.263   4.866
 5532TIP3    H116602   5.227   2.216   4.786
 5532TIP3    H216603   5.276   2.324   4.881
 5533TIP3   OH216604   3.986   5.466   4.446
 5533TIP3    H116605   3.966   5.492   4.536
 5533TIP3    H216606   4.048   5.532   4.415
 5534TIP3   OH216607   1.409   4.238   2.506
 5534TIP3    H116608   1.481   4.183   2.473
 5534TIP3    H216609   1.385   4.293   2.432
 5535TIP3   OH216610   3.377   2.477   0.558
 5535TIP3    H116611   3.307   2.526   0.515
 5535TIP3    H216612   3.358   2.485   0.652
 5536TIP3   OH216613   3.774   0.352   3.798
 5536TIP3    H116614   3.739   0.328   3.884
 5536TIP3    H216615   3.708   0.409   3.760
 5537TIP3   OH216616   4.998   5.729   3.619
 5537TIP3    H116617   4.945   5.702   3.544
 5537TIP3    H216618   5.022   5.647   3.663
 5538TIP3   OH216619   6.176   1.923   3.433
 5538TIP3    H116620   6.113   1.924   3.360
 5538TIP3    H216621   6.128   1.961   3.507
 5539TIP3   OH216622   0.644   4.613   0.325
 5539TIP3    H116623   0.674   4.562   0.400
 5539TIP3    H216624   0.724   4.641   0.281
 5540TIP3   OH216625   2.557   5.267   1.079
 5540TIP3    H116626   2.497   5.193   1.088
 5540TIP3    H216627   2.640   5.235   1.113
 5541TIP3   OH216628   6.193   4.841   0.943
 5541TIP3    H116629   6.161   4.893   0.869
 5541TIP3    H216630   6.128   4.771   0.953
 5542TIP3   OH216631   3.245   4.103   0.526
 5542TIP3    H116632   3.286   4.132   0.607
 5542TIP3    H216633   3.213   4.015   0.545
 5543TIP3   OH216634   5.585   3.686   1.649
 5543TIP3    H116635   5.569   3.600   1.610
 5543TIP3    H216636   5.510   3.701   1.706
 5544TIP3   OH216637   1.673   3.237   2.516
 5544TIP3    H116638   1.708   3.268   2.599
 5544TIP3    H216639   1.691   3.307   2.454
 5545TIP3   OH216640   5.317   4.313   0.523
 5545TIP3    H116641   5.271   4.243   0.569
 5545TIP3    H216642   5.409   4.300   0.546
 5546TIP3   OH216643   0.105   1.837   3.716
 5546TIP3    H116644   0.175   1.894   3.682
 5546TIP3    H216645   0.104   1.763   3.655
 5547TIP3   OH216646   2.287   0.122   0.156
 5547TIP3    H116647   2.350   0.172   0.105
 5547TIP3    H216648   2.340   0.057   0.203
 5548TIP3   OH216649   3.643   3.767   3.158
 5548TIP3    H116650   3.613   3.785   3.069
 5548TIP3    H216651   3.721   3.713   3.147
 5549TIP3   OH216652   0.670   4.115   4.408
 5549TIP3    H116653   0.660   4.084   4.318
 5549TIP3    H216654   0.602   4.069   4.457
 5550TIP3   OH216655   1.196   4.344   4.105
 5550TIP3    H116656   1.138   4.419   4.089
 5550TIP3    H216657   1.139   4.268   4.096
 5551TIP3   OH216658   4.334   2.152   3.703
 5551TIP3    H116659   4.247   2.189   3.686
 5551TIP3    H216660   4.356   2.107   3.622
 5552TIP3   OH216661   0.112   5.172   3.830
 5552TIP3    H116662   0.034   5.208   3.872
 5552TIP3    H216663   0.181   5.177   3.896
 5553TIP3   OH216664   2.103   2.950   5.118
 5553TIP3    H116665   2.193   2.937   5.146
 5553TIP3    H216666   2.070   3.021   5.174
 5554TIP3   OH216667   3.148   5.276   5.022
 5554TIP3    H116668   3.136   5.360   4.978
 5554TIP3    H216669   3.059   5.249   5.045
 5555TIP3   OH216670   2.439   5.351   4.402
 5555TIP3    H116671   2.486   5.424   4.444
 5555TIP3    H216672   2.362   5.392   4.362
 5556TIP3   OH216673   6.029   1.285   4.400
 5556TIP3    H116674   5.970   1.267   4.473
 5556TIP3    H216675   6.115   1.259   4.431
 5557TIP3   OH216676   4.941   1.204   5.098
 5557TIP3    H116677   4.846   1.217   5.101
 5557TIP3    H216678   4.953   1.113   5.124
 5558TIP3   OH216679   0.295   3.706   1.626
 5558TIP3    H116680   0.280   3.615   1.651
 5558TIP3    H216681   0.371   3.733   1.678
 5559TIP3   OH216682   6.131   5.521   1.847
 5559TIP3    H116683   6.149   5.437   1.890
 5559TIP3    H216684   6.100   5.496   1.759
 5560TIP3   OH216685   6.044   2.345   0.333
 5560TIP3    H116686   6.089   2.404   0.272
 5560TIP3    H216687   5.978   2.400   0.376
 5561TIP3   OH216688   6.105   1.672   0.467
 5561TIP3    H116689   6.012   1.647   0.471
 5561TIP3    H216690   6.103   1.767   0.456
 5562TIP3   OH216691   2.519   5.179   2.866
 5562TIP3    H116692   2.543   5.257   2.815
 5562TIP3    H216693   2.528   5.106   2.805
 5563TIP3   OH216694   2.532   5.794   2.672
 5563TIP3    H116695   2.436   5.796   2.670
 5563TIP3    H216696   2.558   5.814   2.582
 5564TIP3   OH216697   4.239   1.426   4.776
 5564TIP3    H116698   4.310   1.480   4.810
 5564TIP3    H216699   4.197   1.389   4.853
 5565TIP3   OH216700   0.967   3.974   2.704
 5565TIP3    H116701   0.913   4.046   2.671
 5565TIP3    H216702   1.057   4.000   2.684
 5566TIP3   OH216703   4.000   3.850   1.646
 5566TIP3    H116704   3.939   3.896   1.587
 5566TIP3    H216705   3.962   3.763   1.657
 5567TIP3   OH216706   4.479   2.335   5.011
 5567TIP3    H116707   4.525   2.257   4.981
 5567TIP3    H216708   4.387   2.316   4.994
 5568TIP3   OH216709   2.255   3.948   0.889
 5568TIP3    H116710   2.283   3.970   0.800
 5568TIP3    H216711   2.281   4.024   0.942
 5569TIP3   OH216712   3.675   1.803   0.330
 5569TIP3    H116713   3.660   1.729   0.389
 5569TIP3    H216714   3.594   1.811   0.280
 5570TIP3   OH216715   1.707   4.563   2.601
 5570TIP3    H116716   1.629   4.566   2.546
 5570TIP3    H216717   1.752   4.646   2.583
 5571TIP3   OH216718   3.264   2.970   3.940
 5571TIP3    H116719   3.296   2.888   3.976
 5571TIP3    H216720   3.342   3.016   3.909
 5572TIP3   OH216721   5.155   0.131   0.317
 5572TIP3    H116722   5.150   0.187   0.395
 5572TIP3    H216723   5.229   0.166   0.268
 5573TIP3   OH216724   0.585   3.213   0.863
 5573TIP3    H116725   0.597   3.124   0.830
 5573TIP3    H216726   0.494   3.215   0.893
 5574TIP3   OH216727   3.886   2.573   1.633
 5574TIP3    H116728   3.973   2.613   1.635
 5574TIP3    H216729   3.848   2.593   1.718
 5575TIP3   OH216730   2.301   5.662   3.681
 5575TIP3    H116731   2.360   5.618   3.741
 5575TIP3    H216732   2.213   5.640   3.712
 5576TIP3   OH216733   0.874   4.792   1.328
 5576TIP3    H116734   0.905   4.824   1.413
 5576TIP3    H216735   0.866   4.698   1.340
 5577TIP3   OH216736   6.015   5.102   4.229
 5577TIP3    H116737   6.001   5.161   4.155
 5577TIP3    H216738   5.927   5.084   4.262
 5578TIP3   OH216739   6.111   2.848   1.547
 5578TIP3    H116740   6.079   2.762   1.518
 5578TIP3    H216741   6.193   2.830   1.591
 5579TIP3   OH216742   3.293   2.461   4.909
 5579TIP3    H116743   3.272   2.532   4.970
 5579TIP3    H216744   3.359   2.409   4.955
 5580TIP3   OH216745   2.639   1.700   2.333
 5580TIP3    H116746   2.612   1.623   2.382
 5580TIP3    H216747   2.557   1.743   2.309
 5581TIP3   OH216748   0.089   2.810   0.651
 5581TIP3    H116749   0.037   2.763   0.586
 5581TIP3    H216750   0.174   2.767   0.650
 5582TIP3   OH216751   0.062   3.580   1.297
 5582TIP3    H116752  -0.008   3.568   1.234
 5582TIP3    H216753   0.102   3.664   1.274
 5583TIP3   OH216754   6.030   3.177   4.473
 5583TIP3    H116755   6.011   3.232   4.397
 5583TIP3    H216756   5.979   3.216   4.544
 5584TIP3   OH216757   4.079   2.695   3.193
 5584TIP3    H116758   4.119   2.635   3.256
 5584TIP3    H216759   4.031   2.758   3.247
 5585TIP3   OH216760   6.233   1.859   1.242
 5585TIP3    H116761   6.276   1.938   1.273
 5585TIP3    H216762   6.176   1.889   1.170
 5586TIP3   OH216763   4.424   5.538   4.824
 5586TIP3    H116764   4.352   5.477   4.835
 5586TIP3    H216765   4.422   5.560   4.730
 5587TIP3   OH216766   0.966   2.459   0.639
 5587TIP3    H116767   1.020   2.409   0.578
 5587TIP3    H216768   0.993   2.550   0.625
 5588TIP3   OH216769   4.160   2.798   2.656
 5588TIP3    H116770   4.146   2.707   2.684
 5588TIP3    H216771   4.249   2.798   2.620
 5589TIP3   OH216772   0.607   3.309   3.474
 5589TIP3    H116773   0.564   3.323   3.559
 5589TIP3    H216774   0.680   3.370   3.473
 5590TIP3   OH216775   4.706   3.399   3.450
 5590TIP3    H116776   4.671   3.487   3.441
 5590TIP3    H216777   4.793   3.410   3.488
 5591TIP3   OH216778   0.114   1.832   0.413
 5591TIP3    H116779   0.130   1.914   0.366
 5591TIP3    H216780   0.068   1.859   0.492
 5592TIP3   OH216781   1.272   2.305   2.670
 5592TIP3    H116782   1.290   2.237   2.604
 5592TIP3    H216783   1.314   2.272   2.749
 5593TIP3   OH216784   4.984   4.794   3.544
 5593TIP3    H116785   5.032   4.815   3.623
 5593TIP3    H216786   4.982   4.876   3.494
 5594TIP3   OH216787   5.778   1.300   0.462
 5594TIP3    H116788   5.683   1.290   0.470
 5594TIP3    H216789   5.791   1.387   0.425
 5595TIP3   OH216790   3.218   3.737   0.722
 5595TIP3    H116791   3.296   3.781   0.688
 5595TIP3    H216792   3.252   3.666   0.776
 5596TIP3   OH216793   3.346   3.548   1.356
 5596TIP3    H116794   3.303   3.464   1.372
 5596TIP3    H216795   3.333   3.564   1.263
 5597TIP3   OH216796   3.892   3.758   4.295
 5597TIP3    H116797   3.843   3.829   4.337
 5597TIP3    H216798   3.871   3.680   4.347
 5598TIP3   OH216799   5.417   4.991   2.681
 5598TIP3    H116800   5.431   5.083   2.657
 5598TIP3    H216801   5.439   4.987   2.774
 5599TIP3   OH216802   0.288   4.352   1.134
 5599TIP3    H116803   0.337   4.341   1.215
 5599TIP3    H216804   0.239   4.271   1.124
 5600TIP3   OH216805   5.941   4.437   2.275
 5600TIP3    H116806   5.962   4.384   2.352
 5600TIP3    H216807   6.010   4.418   2.213
 5601TIP3   OH216808   4.018   2.659   1.190
 5601TIP3    H116809   4.063   2.631   1.110
 5601TIP3    H216810   4.057   2.605   1.259
 5602TIP3   OH216811   5.538   1.087   0.624
 5602TIP3    H116812   5.590   1.007   0.616
 5602TIP3    H216813   5.565   1.124   0.708
 5603TIP3   OH216814   4.630   4.048   1.780
 5603TIP3    H116815   4.661   3.968   1.737
 5603TIP3    H216816   4.576   4.092   1.714
 5604TIP3   OH216817   2.175   2.587   3.576
 5604TIP3    H116818   2.233   2.655   3.612
 5604TIP3    H216819   2.235   2.521   3.542
 5605TIP3   OH216820   1.110   2.611   1.672
 5605TIP3    H116821   1.023   2.646   1.693
 5605TIP3    H216822   1.168   2.687   1.672
 5606TIP3   OH216823   2.589   1.623   1.658
 5606TIP3    H116824   2.672   1.601   1.701
 5606TIP3    H216825   2.535   1.659   1.728
 5607TIP3   OH216826   0.355   2.551   4.342
 5607TIP3    H116827   0.423   2.569   4.407
 5607TIP3    H216828   0.302   2.481   4.381
 5608TIP3   OH216829   1.505   5.918   3.558
 5608TIP3    H116830   1.537   5.969   3.632
 5608TIP3    H216831   1.556   5.950   3.483
 5609TIP3   OH216832   5.928   4.540   0.690
 5609TIP3    H116833   5.931   4.522   0.596
 5609TIP3    H216834   5.866   4.612   0.698
 5610TIP3   OH216835   4.107   2.258   2.651
 5610TIP3    H116836   4.195   2.294   2.660
 5610TIP3    H216837   4.112   2.172   2.693
 5611TIP3   OH216838   4.110   5.191   1.259
 5611TIP3    H116839   4.128   5.252   1.330
 5611TIP3    H216840   4.086   5.109   1.303
 5612TIP3   OH216841   0.110   1.754   4.396
 5612TIP3    H116842   0.065   1.670   4.386
 5612TIP3    H216843   0.178   1.752   4.328
 5613TIP3   OH216844   2.702   5.947   4.656
 5613TIP3    H116845   2.733   5.976   4.570
 5613TIP3    H216846   2.614   5.985   4.664
 5614TIP3   OH216847   0.878   0.811   3.285
 5614TIP3    H116848   0.920   0.765   3.213
 5614TIP3    H216849   0.939   0.882   3.307
 5615TIP3   OH216850   0.025   4.198   3.516
 5615TIP3    H116851  -0.027   4.128   3.479
 5615TIP3    H216852   0.107   4.156   3.542
 5616TIP3   OH216853   4.481   1.219   2.955
 5616TIP3    H116854   4.504   1.203   3.047
 5616TIP3    H216855   4.564   1.238   2.912
 5617TIP3   OH216856   2.824   1.003   4.366
 5617TIP3    H116857   2.737   1.015   4.405
 5617TIP3    H216858   2.884   1.006   4.441
 5618TIP3   OH216859   2.716   3.531   4.237
 5618TIP3    H116860   2.810   3.547   4.225
 5618TIP3    H216861   2.692   3.586   4.312
 5619TIP3   OH216862   4.571   2.940   1.832
 5619TIP3    H116863   4.535   2.859   1.868
 5619TIP3    H216864   4.606   2.987   1.908
 5620TIP3   OH216865   4.915   3.017   0.044
 5620TIP3    H116866   4.944   3.107   0.056
 5620TIP3    H216867   4.944   2.972   0.124
 5621TIP3   OH216868   1.002   3.856   4.412
 5621TIP3    H116869   1.068   3.790   4.393
 5621TIP3    H216870   0.947   3.816   4.479
 5622TIP3   OH216871   3.377   1.712   2.867
 5622TIP3    H116872   3.365   1.804   2.843
 5622TIP3    H216873   3.293   1.671   2.846
 5623TIP3   OH216874   1.755   2.079   3.325
 5623TIP3    H116875   1.808   2.154   3.351
 5623TIP3    H216876   1.673   2.117   3.295
 5624TIP3   OH216877   3.397   4.222   4.540
 5624TIP3    H116878   3.483   4.261   4.547
 5624TIP3    H216879   3.356   4.240   4.625
 5625TIP3   OH216880   3.175   1.132   0.977
 5625TIP3    H116881   3.249   1.120   1.037
 5625TIP3    H216882   3.174   1.226   0.959
 5626TIP3   OH216883   5.299   3.870   2.127
 5626TIP3    H116884   5.387   3.840   2.151
 5626TIP3    H216885   5.312   3.960   2.096
 5627TIP3   OH216886   1.211   0.509   4.049
 5627TIP3    H116887   1.274   0.581   4.048
 5627TIP3    H216888   1.144   0.537   4.111
 5628TIP3   OH216889   3.021   1.829   1.669
 5628TIP3    H116890   2.946   1.867   1.625
 5628TIP3    H216891   3.094   1.844   1.609
 5629TIP3   OH216892   3.816   4.123   2.965
 5629TIP3    H116893   3.850   4.188   2.904
 5629TIP3    H216894   3.814   4.042   2.916
 5630TIP3   OH216895   1.624   1.830   2.136
 5630TIP3    H116896   1.630   1.926   2.138
 5630TIP3    H216897   1.715   1.800   2.146
 5631TIP3   OH216898   3.163   1.286   1.299
 5631TIP3    H116899   3.197   1.350   1.237
 5631TIP3    H216900   3.218   1.209   1.287
 5632TIP3   OH216901   6.304   1.253   0.037
 5632TIP3    H116902   6.258   1.290  -0.038
 5632TIP3    H216903   6.317   1.161   0.013
 5633TIP3   OH216904   2.178   0.070   4.611
 5633TIP3    H116905   2.206   0.118   4.689
 5633TIP3    H216906   2.138  -0.010   4.645
 5634TIP3   OH216907   3.309   5.012   2.020
 5634TIP3    H116908   3.231   4.995   1.966
 5634TIP3    H216909   3.326   5.106   2.007
 5635TIP3   OH216910   3.320   2.441   1.758
 5635TIP3    H116911   3.376   2.518   1.746
 5635TIP3    H216912   3.362   2.391   1.827
 5636TIP3   OH216913   5.038   2.598   3.522
 5636TIP3    H116914   5.026   2.629   3.612
 5636TIP3    H216915   4.967   2.638   3.473
 5637TIP3   OH216916   5.683   3.330   2.265
 5637TIP3    H116917   5.630   3.283   2.200
 5637TIP3    H216918   5.745   3.265   2.297
 5638TIP3   OH216919   3.110   2.764   4.722
 5638TIP3    H116920   3.028   2.786   4.679
 5638TIP3    H216921   3.093   2.781   4.815
 5639TIP3   OH216922   0.661   3.693   0.870
 5639TIP3    H116923   0.578   3.694   0.822
 5639TIP3    H216924   0.644   3.746   0.948
 5640TIP3   OH216925   6.118   0.767   2.565
 5640TIP3    H116926   6.193   0.708   2.577
 5640TIP3    H216927   6.100   0.764   2.471
 5641TIP3   OH216928   3.781   3.803   4.802
 5641TIP3    H116929   3.751   3.889   4.775
 5641TIP3    H216930   3.787   3.808   4.897
 5642TIP3   OH216931   5.094   0.126   3.661
 5642TIP3    H116932   5.096   0.189   3.589
 5642TIP3    H216933   5.181   0.129   3.699
 5643TIP3   OH216934   1.908   3.412   3.984
 5643TIP3    H116935   1.868   3.395   3.898
 5643TIP3    H216936   1.914   3.508   3.989
 5644TIP3   OH216937   0.110   2.261   2.143
 5644TIP3    H116938   0.050   2.307   2.084
 5644TIP3    H216939   0.189   2.316   2.144
 5645TIP3   OH216940   0.473   5.902   3.294
 5645TIP3    H116941   0.506   5.918   3.382
 5645TIP3    H216942   0.504   5.813   3.273
 5646TIP3   OH216943   5.397   4.215   5.152
 5646TIP3    H116944   5.384   4.309   5.143
 5646TIP3    H216945   5.493   4.204   5.153
 5647TIP3   OH216946   3.624   0.461   1.848
 5647TIP3    H116947   3.545   0.461   1.901
 5647TIP3    H216948   3.638   0.369   1.826
 5648TIP3   OH216949   0.382   2.896   0.385
 5648TIP3    H116950   0.293   2.930   0.392
 5648TIP3    H216951   0.378   2.831   0.315
 5649TIP3   OH216952   0.008  -0.038   0.550
 5649TIP3    H116953   0.026   0.056   0.537
 5649TIP3    H216954   0.077  -0.066   0.611
 5650TIP3   OH216955   2.905   5.179   5.078
 5650TIP3    H116956   2.837   5.134   5.128
 5650TIP3    H216957   2.894   5.271   5.102
 5651TIP3   OH216958   2.011   4.740   2.443
 5651TIP3    H116959   2.080   4.730   2.508
 5651TIP3    H216960   2.020   4.663   2.387
 5652TIP3   OH216961   2.339   2.365   2.106
 5652TIP3    H116962   2.308   2.331   2.190
 5652TIP3    H216963   2.429   2.333   2.099
 5653TIP3   OH216964   1.067   3.554   1.607
 5653TIP3    H116965   1.150   3.576   1.564
 5653TIP3    H216966   1.000   3.575   1.543
 5654TIP3   OH216967   6.180   5.617   3.055
 5654TIP3    H116968   6.256   5.673   3.038
 5654TIP3    H216969   6.198   5.578   3.141
 5655TIP3   OH216970   0.016   5.836   3.048
 5655TIP3    H116971  -0.003   5.914   2.995
 5655TIP3    H216972   0.045   5.871   3.132
 5656TIP3   OH216973   4.161   2.469   4.985
 5656TIP3    H116974   4.197   2.491   5.071
 5656TIP3    H216975   4.179   2.376   4.975
 5657TIP3   OH216976   0.580   4.061   0.267
 5657TIP3    H116977   0.648   4.059   0.200
 5657TIP3    H216978   0.515   4.122   0.233
 5658TIP3   OH216979   2.177   4.494   4.593
 5658TIP3    H116980   2.116   4.568   4.595
 5658TIP3    H216981   2.186   4.473   4.500
 5659TIP3   OH216982   5.006   2.122   4.485
 5659TIP3    H116983   5.027   2.056   4.419
 5659TIP3    H216984   4.951   2.075   4.548
 5660TIP3   OH216985   2.943   0.054   2.874
 5660TIP3    H116986   2.849   0.069   2.887
 5660TIP3    H216987   2.985   0.115   2.935
 5661TIP3   OH216988   2.258   0.892   1.450
 5661TIP3    H116989   2.294   0.883   1.538
 5661TIP3    H216990   2.310   0.961   1.409
 5662TIP3   OH216991   3.082   3.724   0.286
 5662TIP3    H116992   3.077   3.755   0.376
 5662TIP3    H216993   3.005   3.761   0.243
 5663TIP3   OH216994   0.457   3.748   1.356
 5663TIP3    H116995   0.401   3.703   1.419
 5663TIP3    H216996   0.416   3.731   1.271
 5664TIP3   OH216997   4.846   4.299   2.323
 5664TIP3    H116998   4.866   4.354   2.400
 5664TIP3    H216999   4.930   4.262   2.298
 5665TIP3   OH217000   3.739   5.679   3.074
 5665TIP3    H117001   3.786   5.762   3.067
 5665TIP3    H217002   3.798   5.614   3.035
 5666TIP3   OH217003   3.331   4.172   0.801
 5666TIP3    H117004   3.295   4.244   0.853
 5666TIP3    H217005   3.424   4.169   0.825
 5667TIP3   OH217006   2.980   1.379   2.460
 5667TIP3    H117007   2.922   1.371   2.384
 5667TIP3    H217008   2.924   1.359   2.535
 5668TIP3   OH217009   0.791   5.032   0.069
 5668TIP3    H117010   0.857   5.094   0.101
 5668TIP3    H217011   0.809   5.024  -0.025
 5669TIP3   OH217012   3.258   0.236   2.142
 5669TIP3    H117013   3.202   0.180   2.089
 5669TIP3    H217014   3.227   0.325   2.125
 5670TIP3   OH217015   4.171   4.185   4.356
 5670TIP3    H117016   4.170   4.103   4.307
 5670TIP3    H217017   4.086   4.225   4.338
 5671TIP3   OH217018   3.988   5.028   5.048
 5671TIP3    H117019   4.082   5.026   5.063
 5671TIP3    H217020   3.950   4.995   5.129
 5672TIP3   OH217021   3.904   4.246   0.023
 5672TIP3    H117022   3.933   4.161   0.057
 5672TIP3    H217023   3.862   4.288   0.097
 5673TIP3   OH217024   0.557   2.704   1.095
 5673TIP3    H117025   0.635   2.689   1.042
 5673TIP3    H217026   0.500   2.758   1.040
 5674TIP3   OH217027   6.204   1.633   2.171
 5674TIP3    H117028   6.242   1.589   2.095
 5674TIP3    H217029   6.230   1.578   2.245
 5675TIP3   OH217030   6.303   3.512   3.690
 5675TIP3    H117031   6.284   3.606   3.690
 5675TIP3    H217032   6.384   3.504   3.640
 5676TIP3   OH217033   1.493   5.040   3.340
 5676TIP3    H117034   1.402   5.011   3.325
 5676TIP3    H217035   1.539   4.960   3.367
 5677TIP3   OH217036   0.103   1.090   4.195
 5677TIP3    H117037   0.114   1.001   4.162
 5677TIP3    H217038   0.016   1.116   4.166
 5678TIP3   OH217039   5.997   0.430   3.680
 5678TIP3    H117040   6.055   0.506   3.681
 5678TIP3    H217041   6.042   0.366   3.736
 5679TIP3   OH217042   5.537   5.887   1.406
 5679TIP3    H117043   5.562   5.831   1.480
 5679TIP3    H217044   5.539   5.829   1.330
 5680TIP3   OH217045   5.760   0.601   1.665
 5680TIP3    H117046   5.846   0.570   1.690
 5680TIP3    H217047   5.733   0.658   1.737
 5681TIP3   OH217048   3.796   3.453   0.743
 5681TIP3    H117049   3.883   3.420   0.724
 5681TIP3    H217050   3.768   3.496   0.662
 5682TIP3   OH217051   2.239   0.325   3.268
 5682TIP3    H117052   2.211   0.368   3.348
 5682TIP3    H217053   2.159   0.288   3.231
 5683TIP3   OH217054   0.983   3.112   2.727
 5683TIP3    H117055   0.914   3.170   2.697
 5683TIP3    H217056   1.013   3.151   2.810
 5684TIP3   OH217057   6.243   2.264   4.573
 5684TIP3    H117058   6.304   2.236   4.504
 5684TIP3    H217059   6.233   2.187   4.629
 5685TIP3   OH217060   1.992   1.320   2.748
 5685TIP3    H117061   2.079   1.286   2.726
 5685TIP3    H217062   1.968   1.374   2.672
 5686TIP3   OH217063   2.677   4.607   0.464
 5686TIP3    H117064   2.755   4.561   0.433
 5686TIP3    H217065   2.646   4.656   0.387
 5687TIP3   OH217066   1.558   0.656   3.302
 5687TIP3    H117067   1.470   0.624   3.280
 5687TIP3    H217068   1.595   0.589   3.359
 5688TIP3   OH217069   0.541   5.610   1.016
 5688TIP3    H117070   0.536   5.654   1.101
 5688TIP3    H217071   0.479   5.537   1.024
 5689TIP3   OH217072   2.495   1.267   0.379
 5689TIP3    H117073   2.589   1.246   0.386
 5689TIP3    H217074   2.471   1.241   0.290
 5690TIP3   OH217075   5.906   5.486   0.627
 5690TIP3    H117076   5.987   5.500   0.578
 5690TIP3    H217077   5.887   5.393   0.615
 5691TIP3   OH217078   4.567   1.870   4.102
 5691TIP3    H117079   4.554   1.783   4.066
 5691TIP3    H217080   4.603   1.855   4.190
 5692TIP3   OH217081   6.294   2.855   0.351
 5692TIP3    H117082   6.269   2.877   0.261
 5692TIP3    H217083   6.351   2.779   0.341
 5693TIP3   OH217084   1.524   5.251   2.665
 5693TIP3    H117085   1.537   5.255   2.570
 5693TIP3    H217086   1.539   5.159   2.687
 5694TIP3   OH217087   6.168   1.738   1.734
 5694TIP3    H117088   6.086   1.733   1.685
 5694TIP3    H217089   6.229   1.780   1.674
 5695TIP3   OH217090   5.221   0.291   4.501
 5695TIP3    H117091   5.175   0.306   4.418
 5695TIP3    H217092   5.250   0.378   4.529
 5696TIP3   OH217093   2.228   1.774   2.678
 5696TIP3    H117094   2.223   1.800   2.586
 5696TIP3    H217095   2.217   1.855   2.727
 5697TIP3   OH217096   5.126   0.465   2.103
 5697TIP3    H117097   5.044   0.513   2.113
 5697TIP3    H217098   5.133   0.448   2.009
 5698TIP3   OH217099   1.910   1.925   4.899
 5698TIP3    H117100   1.957   1.843   4.910
 5698TIP3    H217101   1.973   1.993   4.922
 5699TIP3   OH217102   3.080   3.156   3.453
 5699TIP3    H117103   2.989   3.134   3.436
 5699TIP3    H217104   3.092   3.141   3.547
 5700TIP3   OH217105   2.823   4.664   3.108
 5700TIP3    H117106   2.803   4.575   3.136
 5700TIP3    H217107   2.918   4.666   3.103
 5701TIP3   OH217108   2.865   2.989   4.990
 5701TIP3    H117109   2.919   3.050   4.940
 5701TIP3    H217110   2.864   2.909   4.938
 5702TIP3   OH217111   1.623   4.577   1.864
 5702TIP3    H117112   1.617   4.485   1.840
 5702TIP3    H217113   1.702   4.608   1.819
 5703TIP3   OH217114   3.137   3.959   4.407
 5703TIP3    H117115   3.198   4.017   4.362
 5703TIP3    H217116   3.091   3.913   4.336
 5704TIP3   OH217117   6.197   2.585   0.213
 5704TIP3    H117118   6.141   2.659   0.240
 5704TIP3    H217119   6.284   2.607   0.246
 5705TIP3   OH217120   1.531   1.083   4.243
 5705TIP3    H117121   1.587   1.048   4.312
 5705TIP3    H217122   1.442   1.072   4.276
 5706TIP3   OH217123   3.064   0.688   3.741
 5706TIP3    H117124   3.136   0.718   3.797
 5706TIP3    H217125   2.991   0.672   3.801
 5707TIP3   OH217126   1.240   0.328   2.355
 5707TIP3    H117127   1.250   0.421   2.375
 5707TIP3    H217128   1.326   0.302   2.319
 5708TIP3   OH217129   2.320   0.897   1.715
 5708TIP3    H117130   2.371   0.977   1.710
 5708TIP3    H217131   2.376   0.835   1.761
 5709TIP3   OH217132   5.972   0.761   2.781
 5709TIP3    H117133   6.032   0.732   2.849
 5709TIP3    H217134   6.027   0.774   2.704
 5710TIP3   OH217135   0.309   5.474   2.087
 5710TIP3    H117136   0.363   5.395   2.087
 5710TIP3    H217137   0.304   5.500   2.179
 5711TIP3   OH217138   3.510   0.857   4.650
 5711TIP3    H117139   3.415   0.845   4.650
 5711TIP3    H217140   3.526   0.914   4.726
 5712TIP3   OH217141   2.502   2.708   0.184
 5712TIP3    H117142   2.528   2.623   0.221
 5712TIP3    H217143   2.498   2.693   0.090
 5713TIP3   OH217144   3.102   5.551   1.866
 5713TIP3    H117145   3.066   5.490   1.930
 5713TIP3    H217146   3.195   5.557   1.889
 5714TIP3   OH217147   1.126   2.081   3.682
 5714TIP3    H117148   1.062   2.130   3.631
 5714TIP3    H217149   1.140   2.134   3.760
 5715TIP3   OH217150   1.379   4.956   2.392
 5715TIP3    H117151   1.324   5.032   2.374
 5715TIP3    H217152   1.331   4.882   2.354
 5716TIP3   OH217153   3.412   5.895   0.247
 5716TIP3    H117154   3.428   5.832   0.178
 5716TIP3    H217155   3.478   5.874   0.314
 5717TIP3   OH217156   3.605   0.482   3.569
 5717TIP3    H117157   3.563   0.550   3.517
 5717TIP3    H217158   3.672   0.445   3.511
 5718TIP3   OH217159   5.769   4.236   4.112
 5718TIP3    H117160   5.830   4.196   4.051
 5718TIP3    H217161   5.767   4.329   4.088
 5719TIP3   OH217162   4.200   3.294   1.364
 5719TIP3    H117163   4.219   3.283   1.271
 5719TIP3    H217164   4.257   3.365   1.392
 5720TIP3   OH217165   6.221   5.390   0.795
 5720TIP3    H117166   6.253   5.311   0.751
 5720TIP3    H217167   6.169   5.357   0.868
 5721TIP3   OH217168   1.822   0.557   0.475
 5721TIP3    H117169   1.842   0.465   0.454
 5721TIP3    H217170   1.798   0.556   0.567
 5722TIP3   OH217171   3.134   2.073   2.954
 5722TIP3    H117172   3.075   2.148   2.958
 5722TIP3    H217173   3.112   2.030   2.871
 5723TIP3   OH217174   0.292   1.830   2.940
 5723TIP3    H117175   0.300   1.926   2.939
 5723TIP3    H217176   0.351   1.801   2.871
 5724TIP3   OH217177   5.224   3.750   1.477
 5724TIP3    H117178   5.226   3.749   1.573
 5724TIP3    H217179   5.137   3.783   1.455
 5725TIP3   OH217180   1.680   5.537   3.046
 5725TIP3    H117181   1.591   5.502   3.044
 5725TIP3    H217182   1.678   5.609   2.983
 5726TIP3   OH217183   2.228   2.517   0.193
 5726TIP3    H117184   2.224   2.553   0.282
 5726TIP3    H217185   2.275   2.583   0.143
 5727TIP3   OH217186   3.704   1.630   1.723
 5727TIP3    H117187   3.672   1.615   1.812
 5727TIP3    H217188   3.646   1.698   1.689
 5728TIP3   OH217189   5.612   5.586   3.788
 5728TIP3    H117190   5.609   5.675   3.753
 5728TIP3    H217191   5.699   5.579   3.828
 5729TIP3   OH217192   3.731   2.078   5.009
 5729TIP3    H117193   3.800   2.124   4.960
 5729TIP3    H217194   3.699   2.012   4.949
 5730TIP3   OH217195   4.870   3.090   1.937
 5730TIP3    H117196   4.879   3.065   1.845
 5730TIP3    H217197   4.832   3.178   1.935
 5731TIP3   OH217198   5.074   5.723   0.101
 5731TIP3    H117199   5.011   5.770   0.155
 5731TIP3    H217200   5.159   5.757   0.128
 5732TIP3   OH217201   3.465   5.062   2.657
 5732TIP3    H117202   3.437   5.041   2.568
 5732TIP3    H217203   3.559   5.042   2.658
 5733TIP3   OH217204   0.081   2.724   2.485
 5733TIP3    H117205   0.079   2.702   2.392
 5733TIP3    H217206   0.110   2.644   2.528
 5734TIP3   OH217207   2.897   1.916   4.393
 5734TIP3    H117208   2.846   1.834   4.393
 5734TIP3    H217209   2.871   1.960   4.312
 5735TIP3   OH217210   2.076   3.843   0.087
 5735TIP3    H117211   2.121   3.914   0.041
 5735TIP3    H217212   2.131   3.766   0.073
 5736TIP3   OH217213   5.832   4.984   1.501
 5736TIP3    H117214   5.896   5.055   1.504
 5736TIP3    H217215   5.857   4.925   1.573
 5737TIP3   OH217216   4.224   4.044   5.161
 5737TIP3    H117217   4.289   4.019   5.227
 5737TIP3    H217218   4.164   4.102   5.208
 5738TIP3   OH217219   1.480   3.338   2.244
 5738TIP3    H117220   1.573   3.360   2.250
 5738TIP3    H217221   1.447   3.393   2.172
 5739TIP3   OH217222   5.784   4.023   4.285
 5739TIP3    H117223   5.771   4.082   4.211
 5739TIP3    H217224   5.807   4.082   4.358
 5740TIP3   OH217225   0.655   4.667   4.844
 5740TIP3    H117226   0.594   4.594   4.853
 5740TIP3    H217227   0.728   4.645   4.902
 5741TIP3   OH217228   3.144   4.200   2.813
 5741TIP3    H117229   3.139   4.140   2.888
 5741TIP3    H217230   3.058   4.195   2.772
 5742TIP3   OH217231   1.784   2.990   4.765
 5742TIP3    H117232   1.756   3.003   4.855
 5742TIP3    H217233   1.879   3.004   4.767
 5743TIP3   OH217234   5.448   1.408   4.842
 5743TIP3    H117235   5.494   1.436   4.763
 5743TIP3    H217236   5.451   1.312   4.838
 5744TIP3   OH217237   2.087   2.577   4.589
 5744TIP3    H117238   2.024   2.537   4.529
 5744TIP3    H217239   2.170   2.535   4.568
 5745TIP3   OH217240   3.968   1.554   1.762
 5745TIP3    H117241   3.876   1.570   1.742
 5745TIP3    H217242   3.969   1.521   1.851
 5746TIP3   OH217243   2.046   1.368   1.586
 5746TIP3    H117244   2.099   1.355   1.664
 5746TIP3    H217245   2.073   1.454   1.553
 5747TIP3   OH217246   3.178   5.584   3.023
 5747TIP3    H117247   3.159   5.524   2.951
 5747TIP3    H217248   3.097   5.633   3.036
 5748TIP3   OH217249   0.605   5.900   3.548
 5748TIP3    H117250   0.602   5.992   3.573
 5748TIP3    H217251   0.662   5.859   3.614
 5749TIP3   OH217252   1.307   4.576   1.691
 5749TIP3    H117253   1.261   4.618   1.763
 5749TIP3    H217254   1.372   4.640   1.662
 5750TIP3   OH217255   0.229   1.210   4.637
 5750TIP3    H117256   0.300   1.188   4.577
 5750TIP3    H217257   0.164   1.142   4.624
 5751TIP3   OH217258   4.782   0.015   1.317
 5751TIP3    H117259   4.782   0.098   1.269
 5751TIP3    H217260   4.799   0.040   1.408
 5752TIP3   OH217261   2.076   0.578   4.955
 5752TIP3    H117262   2.048   0.653   4.904
 5752TIP3    H217263   2.015   0.575   5.029
 5753TIP3   OH217264   1.887   4.491   4.427
 5753TIP3    H117265   1.865   4.474   4.519
 5753TIP3    H217266   1.810   4.462   4.378
 5754TIP3   OH217267   4.333   0.023   1.255
 5754TIP3    H117268   4.297  -0.049   1.306
 5754TIP3    H217269   4.347   0.093   1.319
 5755TIP3   OH217270   1.450   1.715   3.701
 5755TIP3    H117271   1.544   1.715   3.684
 5755TIP3    H217272   1.414   1.772   3.633
 5756TIP3   OH217273   5.444   2.796   1.857
 5756TIP3    H117274   5.391   2.777   1.935
 5756TIP3    H217275   5.534   2.793   1.888
 5757TIP3   OH217276   0.941   2.811   1.675
 5757TIP3    H117277   0.957   2.894   1.630
 5757TIP3    H217278   0.951   2.833   1.768
 5758TIP3   OH217279   4.702   0.959   1.610
 5758TIP3    H117280   4.681   1.000   1.526
 5758TIP3    H217281   4.798   0.950   1.609
 5759TIP3   OH217282   1.201   4.037   1.994
 5759TIP3    H117283   1.268   4.092   2.035
 5759TIP3    H217284   1.153   4.096   1.936
 5760TIP3   OH217285   0.247   3.703   2.386
 5760TIP3    H117286   0.284   3.781   2.347
 5760TIP3    H217287   0.161   3.693   2.343
 5761TIP3   OH217288   5.916   0.664   3.258
 5761TIP3    H117289   5.993   0.656   3.202
 5761TIP3    H217290   5.903   0.576   3.293
 5762TIP3   OH217291   5.976   2.610   1.463
 5762TIP3    H117292   5.892   2.650   1.442
 5762TIP3    H217293   5.954   2.537   1.520
 5763TIP3   OH217294   3.601   3.646   4.664
 5763TIP3    H117295   3.547   3.618   4.738
 5763TIP3    H217296   3.659   3.713   4.700
 5764TIP3   OH217297   4.905   3.890   1.724
 5764TIP3    H117298   4.816   3.865   1.702
 5764TIP3    H217299   4.939   3.816   1.775
 5765TIP3   OH217300   1.735   2.092   1.640
 5765TIP3    H117301   1.694   2.150   1.704
 5765TIP3    H217302   1.773   2.021   1.693
 5766TIP3   OH217303   1.142   5.884   0.945
 5766TIP3    H117304   1.198   5.844   1.011
 5766TIP3    H217305   1.106   5.809   0.897
 5767TIP3   OH217306   5.224   0.900   2.044
 5767TIP3    H117307   5.275   0.935   1.970
 5767TIP3    H217308   5.231   0.967   2.112
 5768TIP3   OH217309   2.956   5.428   4.657
 5768TIP3    H117310   2.962   5.519   4.628
 5768TIP3    H217311   2.862   5.416   4.675
 5769TIP3   OH217312   4.457   1.790   0.744
 5769TIP3    H117313   4.450   1.699   0.772
 5769TIP3    H217314   4.473   1.785   0.650
 5770TIP3   OH217315   1.890   4.749   1.392
 5770TIP3    H117316   1.877   4.708   1.306
 5770TIP3    H217317   1.804   4.780   1.418
 5771TIP3   OH217318   4.467   0.546   3.332
 5771TIP3    H117319   4.482   0.641   3.332
 5771TIP3    H217320   4.372   0.537   3.343
 5772TIP3   OH217321   3.416   4.670   4.422
 5772TIP3    H117322   3.376   4.633   4.501
 5772TIP3    H217323   3.410   4.600   4.357
 5773TIP3   OH217324   5.233  -0.003   3.289
 5773TIP3    H117325   5.218   0.083   3.250
 5773TIP3    H217326   5.148  -0.047   3.286
 5774TIP3   OH217327   0.696   3.192   2.718
 5774TIP3    H117328   0.691   3.193   2.623
 5774TIP3    H217329   0.724   3.103   2.740
 5775TIP3   OH217330   5.763   3.463   3.508
 5775TIP3    H117331   5.726   3.402   3.444
 5775TIP3    H217332   5.741   3.550   3.473
 5776TIP3   OH217333   4.380   0.521   4.826
 5776TIP3    H117334   4.388   0.434   4.867
 5776TIP3    H217335   4.470   0.549   4.811
 5777TIP3   OH217336   5.159   4.217   3.472
 5777TIP3    H117337   5.134   4.202   3.381
 5777TIP3    H217338   5.201   4.303   3.472
 5778TIP3   OH217339   6.112   3.813   0.883
 5778TIP3    H117340   6.139   3.867   0.957
 5778TIP3    H217341   6.018   3.801   0.895
 5779TIP3   OH217342   1.743   1.434   3.236
 5779TIP3    H117343   1.760   1.476   3.321
 5779TIP3    H217344   1.817   1.458   3.182
 5780TIP3   OH217345   5.713   0.547   4.096
 5780TIP3    H117346   5.642   0.608   4.078
 5780TIP3    H217347   5.785   0.576   4.041
 5781TIP3   OH217348   5.403   1.880   3.632
 5781TIP3    H117349   5.485   1.851   3.590
 5781TIP3    H217350   5.430   1.953   3.688
 5782TIP3   OH217351   3.398   4.198   1.403
 5782TIP3    H117352   3.350   4.281   1.392
 5782TIP3    H217353   3.383   4.151   1.321
 5783TIP3   OH217354   1.320   5.441   3.899
 5783TIP3    H117355   1.353   5.497   3.829
 5783TIP3    H217356   1.279   5.368   3.854
 5784TIP3   OH217357   5.319   0.635   5.162
 5784TIP3    H117358   5.334   0.542   5.177
 5784TIP3    H217359   5.223   0.643   5.159
 5785TIP3   OH217360   4.187   1.667   1.296
 5785TIP3    H117361   4.119   1.646   1.360
 5785TIP3    H217362   4.182   1.762   1.286
 5786TIP3   OH217363   0.831   0.597   1.106
 5786TIP3    H117364   0.821   0.682   1.147
 5786TIP3    H217365   0.908   0.559   1.148
 5787TIP3   OH217366   2.263   2.169   3.031
 5787TIP3    H117367   2.169   2.173   3.046
 5787TIP3    H217368   2.278   2.231   2.960
 5788TIP3   OH217369   6.152   0.664   4.900
 5788TIP3    H117370   6.221   0.599   4.913
 5788TIP3    H217371   6.071   0.619   4.925
 5789TIP3   OH217372   4.267   1.245   4.589
 5789TIP3    H117373   4.186   1.195   4.585
 5789TIP3    H217374   4.246   1.321   4.643
 5790TIP3   OH217375   5.293   2.655   2.745
 5790TIP3    H117376   5.370   2.602   2.763
 5790TIP3    H217377   5.290   2.718   2.817
 5791TIP3   OH217378   5.220   0.035   2.095
 5791TIP3    H117379   5.228  -0.010   2.011
 5791TIP3    H217380   5.187  -0.031   2.155
 5792TIP3   OH217381   2.988   0.715   2.069
 5792TIP3    H117382   3.017   0.778   2.135
 5792TIP3    H217383   2.910   0.756   2.030
 5793TIP3   OH217384   5.361   0.638   2.162
 5793TIP3    H117385   5.359   0.721   2.115
 5793TIP3    H217386   5.301   0.650   2.235
 5794TIP3   OH217387   5.716   1.947   3.004
 5794TIP3    H117388   5.724   2.029   3.053
 5794TIP3    H217389   5.804   1.928   2.973
 5795TIP3   OH217390   5.016   1.763   5.107
 5795TIP3    H117391   5.085   1.824   5.081
 5795TIP3    H217392   5.028   1.687   5.050
 5796TIP3   OH217393   5.487   4.156   3.712
 5796TIP3    H117394   5.452   4.219   3.774
 5796TIP3    H217395   5.577   4.140   3.742
 5797TIP3   OH217396   1.289   4.979   2.096
 5797TIP3    H117397   1.376   5.018   2.104
 5797TIP3    H217398   1.267   4.988   2.003
 5798TIP3   OH217399   2.614   0.498   1.974
 5798TIP3    H117400   2.591   0.541   2.056
 5798TIP3    H217401   2.538   0.446   1.950
 5799TIP3   OH217402   4.441   0.264   0.857
 5799TIP3    H117403   4.432   0.309   0.942
 5799TIP3    H217404   4.420   0.173   0.877
 5800TIP3   OH217405   2.628   4.691   3.416
 5800TIP3    H117406   2.556   4.725   3.361
 5800TIP3    H217407   2.697   4.670   3.353
 5801TIP3   OH217408   5.020   0.016   4.150
 5801TIP3    H117409   5.099   0.072   4.149
 5801TIP3    H217410   4.992   0.014   4.059
 5802TIP3   OH217411   3.790   1.438   4.432
 5802TIP3    H117412   3.731   1.369   4.463
 5802TIP3    H217413   3.822   1.479   4.512
 5803TIP3   OH217414   4.649   0.568   4.769
 5803TIP3    H117415   4.622   0.640   4.712
 5803TIP3    H217416   4.645   0.491   4.713
 5804TIP3   OH217417   0.493   3.401   0.221
 5804TIP3    H117418   0.529   3.489   0.226
 5804TIP3    H217419   0.522   3.358   0.302
 5805TIP3   OH217420   5.503   1.020   4.833
 5805TIP3    H117421   5.453   0.948   4.873
 5805TIP3    H217422   5.543   1.066   4.906
 5806TIP3   OH217423   5.945   2.023   4.463
 5806TIP3    H117424   5.926   2.021   4.369
 5806TIP3    H217425   6.028   1.975   4.471
 5807TIP3   OH217426   3.504   1.461   2.887
 5807TIP3    H117427   3.456   1.528   2.936
 5807TIP3    H217428   3.481   1.477   2.795
 5808TIP3   OH217429   0.877   4.186   0.464
 5808TIP3    H117430   0.901   4.094   0.474
 5808TIP3    H217431   0.954   4.228   0.426
 5809TIP3   OH217432   1.166   1.356   4.074
 5809TIP3    H117433   1.211   1.272   4.087
 5809TIP3    H217434   1.073   1.333   4.072
 5810TIP3   OH217435   0.818   5.596   1.634
 5810TIP3    H117436   0.811   5.556   1.547
 5810TIP3    H217437   0.757   5.545   1.687
 5811TIP3   OH217438   2.805   0.318   2.024
 5811TIP3    H117439   2.743   0.390   2.033
 5811TIP3    H217440   2.869   0.349   1.959
 5812TIP3   OH217441   2.980   0.621   3.087
 5812TIP3    H117442   2.949   0.607   2.998
 5812TIP3    H217443   2.904   0.602   3.142
 5813TIP3   OH217444   5.618   3.117   5.003
 5813TIP3    H117445   5.627   3.202   5.046
 5813TIP3    H217446   5.702   3.074   5.019
 5814TIP3   OH217447   4.574   1.555   0.596
 5814TIP3    H117448   4.539   1.559   0.685
 5814TIP3    H217449   4.645   1.491   0.602
 5815TIP3   OH217450   0.354   4.265   5.213
 5815TIP3    H117451   0.308   4.274   5.129
 5815TIP3    H217452   0.446   4.276   5.191
 5816TIP3   OH217453   0.917   3.479   1.077
 5816TIP3    H117454   0.841   3.449   1.027
 5816TIP3    H217455   0.986   3.490   1.011
 5817TIP3   OH217456   5.285   5.106   3.519
 5817TIP3    H117457   5.262   5.075   3.431
 5817TIP3    H217458   5.215   5.168   3.542
 5818TIP3   OH217459   5.086   5.156   3.775
 5818TIP3    H117460   5.182   5.157   3.773
 5818TIP3    H217461   5.062   5.214   3.847
 5819TIP3   OH217462   3.859   4.976   2.413
 5819TIP3    H117463   3.850   4.982   2.318
 5819TIP3    H217464   3.939   4.925   2.426
 5820TIP3   OH217465   5.656   3.363   3.279
 5820TIP3    H117466   5.739   3.315   3.279
 5820TIP3    H217467   5.653   3.404   3.193
 5821TIP3   OH217468   4.333   4.995   3.202
 5821TIP3    H117469   4.242   5.013   3.178
 5821TIP3    H217470   4.380   5.075   3.179
 5822TIP3   OH217471   4.744   5.567   3.826
 5822TIP3    H117472   4.717   5.478   3.805
 5822TIP3    H217473   4.797   5.558   3.905
 5823TIP3   OH217474   5.487   1.572   3.056
 5823TIP3    H117475   5.404   1.578   3.009
 5823TIP3    H217476   5.468   1.517   3.131
 5824TIP3   OH217477   4.276   1.442   1.834
 5824TIP3    H117478   4.265   1.480   1.921
 5824TIP3    H217479   4.325   1.508   1.785
 5825TIP3   OH217480   4.314   0.601   2.159
 5825TIP3    H117481   4.379   0.553   2.108
 5825TIP3    H217482   4.357   0.617   2.243
 5826TIP3   OH217483   4.834   0.164   0.116
 5826TIP3    H117484   4.848   0.226   0.187
 5826TIP3    H217485   4.911   0.108   0.118
 5827TIP3   OH217486   6.246   1.011   2.576
 5827TIP3    H117487   6.200   0.933   2.607
 5827TIP3    H217488   6.305   0.978   2.508
 5828TIP3   OH217489   2.249   0.723   4.621
 5828TIP3    H117490   2.318   0.739   4.557
 5828TIP3    H217491   2.201   0.647   4.587
 5829TIP3   OH217492   1.886   3.387   0.726
 5829TIP3    H117493   1.959   3.447   0.739
 5829TIP3    H217494   1.860   3.361   0.815
 5830TIP3   OH217495   1.941   2.651   3.664
 5830TIP3    H117496   2.015   2.638   3.604
 5830TIP3    H217497   1.969   2.613   3.746
 5831TIP3   OH217498   0.148   2.861   3.647
 5831TIP3    H117499   0.144   2.785   3.705
 5831TIP3    H217500   0.237   2.894   3.656
 5832TIP3   OH217501   3.005   5.067   0.276
 5832TIP3    H117502   2.945   4.993   0.289
 5832TIP3    H217503   2.977   5.132   0.341
 5833TIP3   OH217504   1.590   5.830   2.602
 5833TIP3    H117505   1.615   5.879   2.523
 5833TIP3    H217506   1.498   5.807   2.588
 5834TIP3   OH217507   4.086   2.798   4.984
 5834TIP3    H117508   4.167   2.755   4.957
 5834TIP3    H217509   4.081   2.876   4.929
 5835TIP3   OH217510   1.789   5.024   2.917
 5835TIP3    H117511   1.767   5.072   2.997
 5835TIP3    H217512   1.787   4.932   2.943
 5836TIP3   OH217513   5.061   4.363   3.981
 5836TIP3    H117514   5.094   4.355   3.892
 5836TIP3    H217515   5.089   4.450   4.009
 5837TIP3   OH217516   1.798   2.914   0.962
 5837TIP3    H117517   1.764   2.928   0.873
 5837TIP3    H217518   1.870   2.851   0.950
 5838TIP3   OH217519   0.807   1.336   4.453
 5838TIP3    H117520   0.858   1.367   4.528
 5838TIP3    H217521   0.862   1.356   4.377
 5839TIP3   OH217522   1.381   3.967   2.289
 5839TIP3    H117523   1.396   4.033   2.222
 5839TIP3    H217524   1.410   3.885   2.248
 5840TIP3   OH217525   2.200   4.778   3.925
 5840TIP3    H117526   2.207   4.693   3.882
 5840TIP3    H217527   2.142   4.762   3.999
 5841TIP3   OH217528   5.927   5.541   0.893
 5841TIP3    H117529   5.961   5.458   0.927
 5841TIP3    H217530   5.945   5.537   0.799
 5842TIP3   OH217531   1.318   1.345   3.205
 5842TIP3    H117532   1.406   1.331   3.169
 5842TIP3    H217533   1.287   1.425   3.162
 5843TIP3   OH217534   5.044   3.680   0.337
 5843TIP3    H117535   5.125   3.640   0.306
 5843TIP3    H217536   4.995   3.608   0.377
 5844TIP3   OH217537   5.082   0.800   3.923
 5844TIP3    H117538   5.159   0.853   3.901
 5844TIP3    H217539   5.094   0.719   3.874
 5845TIP3   OH217540   4.728   0.068   2.316
 5845TIP3    H117541   4.747   0.110   2.233
 5845TIP3    H217542   4.730   0.140   2.380
 5846TIP3   OH217543   1.677   2.944   0.256
 5846TIP3    H117544   1.649   2.855   0.278
 5846TIP3    H217545   1.601   2.999   0.271
 5847TIP3   OH217546   1.906   3.254   1.829
 5847TIP3    H117547   1.919   3.312   1.904
 5847TIP3    H217548   1.867   3.310   1.762
 5848TIP3   OH217549   0.747   1.173   3.593
 5848TIP3    H117550   0.842   1.161   3.592
 5848TIP3    H217551   0.735   1.265   3.616
 5849TIP3   OH217552   0.203   3.899   3.997
 5849TIP3    H117553   0.198   3.835   3.925
 5849TIP3    H217554   0.142   3.867   4.062
 5850TIP3   OH217555   5.985   3.934   2.307
 5850TIP3    H117556   6.050   3.965   2.369
 5850TIP3    H217557   6.010   3.974   2.224
 5851TIP3   OH217558   2.451   0.584   4.412
 5851TIP3    H117559   2.379   0.565   4.352
 5851TIP3    H217560   2.469   0.677   4.400
 5852TIP3   OH217561   0.617   0.505   0.867
 5852TIP3    H117562   0.534   0.539   0.835
 5852TIP3    H217563   0.682   0.539   0.805
 5853TIP3   OH217564   4.046   0.537   2.795
 5853TIP3    H117565   3.952   0.527   2.784
 5853TIP3    H217566   4.056   0.598   2.867
 5854TIP3   OH217567  -0.030   5.287   2.967
 5854TIP3    H117568  -0.087   5.360   2.991
 5854TIP3    H217569   0.053   5.329   2.944
 5855TIP3   OH217570   4.436   4.153   3.360
 5855TIP3    H117571   4.381   4.226   3.332
 5855TIP3    H217572   4.476   4.183   3.441
 5856TIP3   OH217573   3.592   4.848   5.078
 5856TIP3    H117574   3.565   4.909   5.009
 5856TIP3    H217575   3.614   4.767   5.031
 5857TIP3   OH217576   4.643   1.897   1.587
 5857TIP3    H117577   4.631   1.919   1.680
 5857TIP3    H217578   4.736   1.913   1.571
 5858TIP3   OH217579   2.114   0.879   2.018
 5858TIP3    H117580   2.056   0.803   2.020
 5858TIP3    H217581   2.164   0.870   1.937
 5859TIP3   OH217582   1.290   2.280   0.118
 5859TIP3    H117583   1.320   2.228   0.192
 5859TIP3    H217584   1.238   2.220   0.065
 5860TIP3   OH217585   2.318   3.129   1.166
 5860TIP3    H117586   2.333   3.192   1.237
 5860TIP3    H217587   2.359   3.048   1.196
 5861TIP3   OH217588   3.822   5.131   1.563
 5861TIP3    H117589   3.894   5.069   1.570
 5861TIP3    H217590   3.854   5.210   1.606
 5862TIP3   OH217591   4.823   4.589   0.319
 5862TIP3    H117592   4.878   4.606   0.396
 5862TIP3    H217593   4.821   4.494   0.312
 5863TIP3   OH217594   4.992   0.180   2.245
 5863TIP3    H117595   4.945   0.225   2.175
 5863TIP3    H217596   5.068   0.142   2.202
 5864TIP3   OH217597   4.942   4.685   4.928
 5864TIP3    H117598   5.033   4.662   4.909
 5864TIP3    H217599   4.927   4.766   4.878
 5865TIP3   OH217600   4.111   0.372   3.918
 5865TIP3    H117601   4.091   0.292   3.869
 5865TIP3    H217602   4.027   0.399   3.955
 5866TIP3   OH217603   5.735   2.188   4.963
 5866TIP3    H117604   5.660   2.180   4.905
 5866TIP3    H217605   5.811   2.173   4.907
 5867TIP3   OH217606   3.279   2.992   3.247
 5867TIP3    H117607   3.312   2.950   3.168
 5867TIP3    H217608   3.277   2.923   3.313
 5868TIP3   OH217609   1.889   0.410   0.235
 5868TIP3    H117610   1.892   0.328   0.284
 5868TIP3    H217611   1.967   0.408   0.180
 5869TIP3   OH217612   6.305   0.388   0.960
 5869TIP3    H117613   6.216   0.420   0.944
 5869TIP3    H217614   6.312   0.383   1.055
 5870TIP3   OH217615   5.728   0.566   0.980
 5870TIP3    H117616   5.759   0.555   0.890
 5870TIP3    H217617   5.752   0.656   1.002
 5871TIP3   OH217618   6.162   0.356   3.449
 5871TIP3    H117619   6.130   0.417   3.515
 5871TIP3    H217620   6.229   0.305   3.494
 5872TIP3   OH217621   1.454   0.709   0.772
 5872TIP3    H117622   1.403   0.633   0.745
 5872TIP3    H217623   1.545   0.680   0.766
 5873TIP3   OH217624   6.212   3.962   4.918
 5873TIP3    H117625   6.256   4.041   4.887
 5873TIP3    H217626   6.128   3.961   4.872
 5874TIP3   OH217627   0.265   3.285   0.121
 5874TIP3    H117628   0.266   3.282   0.026
 5874TIP3    H217629   0.348   3.328   0.144
 5875TIP3   OH217630   1.406   3.293   3.318
 5875TIP3    H117631   1.353   3.348   3.377
 5875TIP3    H217632   1.448   3.230   3.376
 5876TIP3   OH217633   2.847   1.649   2.151
 5876TIP3    H117634   2.889   1.734   2.157
 5876TIP3    H217635   2.759   1.663   2.185
 5877TIP3   OH217636   6.369   5.346   4.175
 5877TIP3    H117637   6.332   5.307   4.254
 5877TIP3    H217638   6.310   5.319   4.105
 5878TIP3   OH217639   1.127   1.591   1.817
 5878TIP3    H117640   1.050   1.628   1.860
 5878TIP3    H217641   1.097   1.569   1.729
 5879TIP3   OH217642   2.270   5.634   4.622
 5879TIP3    H117643   2.360   5.654   4.595
 5879TIP3    H217644   2.233   5.719   4.647
 5880TIP3   OH217645   0.736   1.068   4.381
 5880TIP3    H117646   0.732   1.163   4.371
 5880TIP3    H217647   0.663   1.034   4.329
 5881TIP3   OH217648   4.767   4.570   3.892
 5881TIP3    H117649   4.802   4.522   3.818
 5881TIP3    H217650   4.748   4.657   3.857
 5882TIP3   OH217651   2.650   2.882   1.367
 5882TIP3    H117652   2.701   2.825   1.311
 5882TIP3    H217653   2.562   2.882   1.329
 5883TIP3   OH217654   1.162   5.479   0.978
 5883TIP3    H117655   1.190   5.408   0.921
 5883TIP3    H217656   1.102   5.438   1.040
 5884TIP3   OH217657   0.144   4.339   3.090
 5884TIP3    H117658   0.143   4.310   3.181
 5884TIP3    H217659   0.056   4.320   3.058
 5885TIP3   OH217660   2.008   2.502   3.110
 5885TIP3    H117661   1.927   2.469   3.149
 5885TIP3    H217662   2.039   2.568   3.171
 5886TIP3   OH217663   0.263   0.834   5.143
 5886TIP3    H117664   0.271   0.855   5.050
 5886TIP3    H217665   0.221   0.911   5.181
 5887TIP3   OH217666   3.719   4.469   0.096
 5887TIP3    H117667   3.777   4.503   0.164
 5887TIP3    H217668   3.645   4.431   0.144
 5888TIP3   OH217669   3.529   3.431   3.234
 5888TIP3    H117670   3.478   3.355   3.262
 5888TIP3    H217671   3.617   3.415   3.269
 5889TIP3   OH217672   3.142   4.129   3.565
 5889TIP3    H117673   3.112   4.175   3.487
 5889TIP3    H217674   3.166   4.042   3.534
 5890TIP3   OH217675   3.001   1.786   2.952
 5890TIP3    H117676   2.913   1.789   2.991
 5890TIP3    H217677   2.990   1.827   2.866
 5891TIP3   OH217678   0.541   0.289   4.729
 5891TIP3    H117679   0.447   0.293   4.710
 5891TIP3    H217680   0.556   0.363   4.788
 5892TIP3   OH217681   2.425   1.315   4.975
 5892TIP3    H117682   2.480   1.272   5.040
 5892TIP3    H217683   2.428   1.256   4.899
 5893TIP3   OH217684   5.280   2.067   0.017
 5893TIP3    H117685   5.252   2.059   0.108
 5893TIP3    H217686   5.201   2.093  -0.030
 5894TIP3   OH217687   3.849   5.013   3.141
 5894TIP3    H117688   3.780   4.947   3.153
 5894TIP3    H217689   3.847   5.032   3.047
 5895TIP3   OH217690   5.272   5.875   3.183
 5895TIP3    H117691   5.317   5.857   3.101
 5895TIP3    H217692   5.258   5.969   3.183
 5896TIP3   OH217693   0.146   2.035   2.491
 5896TIP3    H117694   0.178   2.123   2.511
 5896TIP3    H217695   0.067   2.049   2.439
 5897TIP3   OH217696   4.394  -0.031   2.852
 5897TIP3    H117697   4.336   0.045   2.855
 5897TIP3    H217698   4.446  -0.025   2.932
 5898TIP3   OH217699   1.221   0.117   4.295
 5898TIP3    H117700   1.256   0.071   4.371
 5898TIP3    H217701   1.194   0.048   4.234
 5899TIP3   OH217702   0.379   0.840   4.554
 5899TIP3    H117703   0.324   0.770   4.518
 5899TIP3    H217704   0.357   0.918   4.502
 5900TIP3   OH217705   1.941   0.371   2.911
 5900TIP3    H117706   2.013   0.368   2.847
 5900TIP3    H217707   1.865   0.397   2.859
 5901TIP3   OH217708   4.097   4.822   0.295
 5901TIP3    H117709   4.036   4.878   0.343
 5901TIP3    H217710   4.154   4.785   0.363
 5902TIP3   OH217711   0.992   4.461   0.643
 5902TIP3    H117712   1.015   4.382   0.693
 5902TIP3    H217713   1.029   4.446   0.556
 5903TIP3   OH217714   1.257   4.394   0.955
 5903TIP3    H117715   1.294   4.472   0.913
 5903TIP3    H217716   1.191   4.363   0.894
 5904TIP3   OH217717   4.580   0.215   2.135
 5904TIP3    H117718   4.600   0.131   2.094
 5904TIP3    H217719   4.590   0.279   2.065
 5905TIP3   OH217720   5.556   4.351   4.256
 5905TIP3    H117721   5.611   4.393   4.322
 5905TIP3    H217722   5.618   4.323   4.189
 5906TIP3   OH217723   5.505   1.123   4.537
 5906TIP3    H117724   5.422   1.077   4.550
 5906TIP3    H217725   5.560   1.094   4.609
 5907TIP3   OH217726   0.983   4.386   1.832
 5907TIP3    H117727   0.905   4.441   1.837
 5907TIP3    H217728   1.046   4.430   1.889
 5908TIP3   OH217729   4.902   5.222   4.865
 5908TIP3    H117730   4.872   5.254   4.950
 5908TIP3    H217731   4.821   5.199   4.819
 5909TIP3   OH217732   0.654   4.105   1.143
 5909TIP3    H117733   0.621   4.179   1.092
 5909TIP3    H217734   0.646   4.133   1.234
 5910TIP3   OH217735   2.326   5.410   1.081
 5910TIP3    H117736   2.271   5.363   1.018
 5910TIP3    H217737   2.412   5.369   1.074
 5911TIP3   OH217738   0.465   2.611   2.480
 5911TIP3    H117739   0.547   2.565   2.464
 5911TIP3    H217740   0.459   2.675   2.410
 5912TIP3   OH217741   0.549   0.968   2.830
 5912TIP3    H117742   0.530   1.032   2.899
 5912TIP3    H217743   0.634   0.994   2.795
 5913TIP3   OH217744   0.888   5.255   2.471
 5913TIP3    H117745   0.884   5.301   2.388
 5913TIP3    H217746   0.901   5.323   2.536
 5914TIP3   OH217747   3.751   5.850   4.567
 5914TIP3    H117748   3.827   5.815   4.521
 5914TIP3    H217749   3.788   5.896   4.643
 5915TIP3   OH217750   3.877   2.717   4.243
 5915TIP3    H117751   3.878   2.803   4.285
 5915TIP3    H217752   3.851   2.735   4.152
 5916TIP3   OH217753   6.070   5.352   1.047
 5916TIP3    H117754   6.093   5.390   1.132
 5916TIP3    H217755   6.073   5.258   1.062
 5917TIP3   OH217756   3.376   1.741   4.478
 5917TIP3    H117757   3.365   1.672   4.413
 5917TIP3    H217758   3.460   1.781   4.456
 5918TIP3   OH217759   0.040   4.820   3.983
 5918TIP3    H117760   0.127   4.787   4.009
 5918TIP3    H217761   0.029   4.901   4.033
 5919TIP3   OH217762   3.022   4.824   0.659
 5919TIP3    H117763   3.043   4.907   0.617
 5919TIP3    H217764   3.092   4.765   0.632
 5920TIP3   OH217765   4.165   0.142   4.361
 5920TIP3    H117766   4.213   0.059   4.369
 5920TIP3    H217767   4.074   0.115   4.354
 5921TIP3   OH217768   1.137   4.305   1.169
 5921TIP3    H117769   1.191   4.349   1.103
 5921TIP3    H217770   1.071   4.258   1.118
 5922TIP3   OH217771   3.022   4.451   2.170
 5922TIP3    H117772   3.108   4.450   2.127
 5922TIP3    H217773   3.003   4.359   2.188
 5923TIP3   OH217774   4.848   1.792   2.233
 5923TIP3    H117775   4.847   1.764   2.141
 5923TIP3    H217776   4.847   1.710   2.283
 5924TIP3   OH217777   6.206   1.388   2.343
 5924TIP3    H117778   6.248   1.312   2.303
 5924TIP3    H217779   6.231   1.383   2.435
 5925TIP3   OH217780   1.831   4.176   0.725
 5925TIP3    H117781   1.866   4.150   0.640
 5925TIP3    H217782   1.768   4.246   0.704
 5926TIP3   OH217783   3.845   2.932   2.619
 5926TIP3    H117784   3.765   2.984   2.621
 5926TIP3    H217785   3.912   2.993   2.589
 5927TIP3   OH217786   4.158   2.617   3.676
 5927TIP3    H117787   4.174   2.565   3.755
 5927TIP3    H217788   4.075   2.662   3.692
 5928TIP3   OH217789   3.776   2.558   1.900
 5928TIP3    H117790   3.705   2.545   1.963
 5928TIP3    H217791   3.785   2.474   1.856
 5929TIP3   OH217792   0.106   0.672   2.863
 5929TIP3    H117793   0.160   0.630   2.795
 5929TIP3    H217794   0.145   0.759   2.873
 5930TIP3   OH217795   4.479   0.267   4.362
 5930TIP3    H117796   4.431   0.211   4.302
 5930TIP3    H217797   4.564   0.225   4.372
 5931TIP3   OH217798   3.102   5.436   1.310
 5931TIP3    H117799   3.195   5.417   1.298
 5931TIP3    H217800   3.087   5.419   1.403
 5932TIP3   OH217801   0.306   0.114   2.741
 5932TIP3    H117802   0.224   0.133   2.787
 5932TIP3    H217803   0.314   0.018   2.744
 5933TIP3   OH217804   6.012   5.833   1.370
 5933TIP3    H117805   5.964   5.871   1.443
 5933TIP3    H217806   5.948   5.827   1.300
 5934TIP3   OH217807   4.368   0.930   1.404
 5934TIP3    H117808   4.294   0.932   1.465
 5934TIP3    H217809   4.400   0.840   1.409
 5935TIP3   OH217810   2.676   1.406   3.435
 5935TIP3    H117811   2.771   1.413   3.435
 5935TIP3    H217812   2.659   1.313   3.421
 5936TIP3   OH217813   5.794   4.599   3.804
 5936TIP3    H117814   5.792   4.695   3.811
 5936TIP3    H217815   5.747   4.568   3.881
 5937TIP3   OH217816   5.607   1.058   2.635
 5937TIP3    H117817   5.572   1.012   2.712
 5937TIP3    H217818   5.697   1.081   2.660
 5938TIP3   OH217819   2.829   3.729   1.937
 5938TIP3    H117820   2.867   3.815   1.959
 5938TIP3    H217821   2.786   3.701   2.018
 5939TIP3   OH217822   3.319   0.446   0.462
 5939TIP3    H117823   3.262   0.521   0.445
 5939TIP3    H217824   3.390   0.455   0.398
 5940TIP3   OH217825   1.693   4.971   4.491
 5940TIP3    H117826   1.668   5.031   4.422
 5940TIP3    H217827   1.622   4.906   4.494
 5941TIP3   OH217828   4.086   4.722   1.099
 5941TIP3    H117829   4.156   4.701   1.161
 5941TIP3    H217830   4.131   4.764   1.026
 5942TIP3   OH217831   2.095   1.861   4.404
 5942TIP3    H117832   2.040   1.936   4.425
 5942TIP3    H217833   2.119   1.824   4.489
 5943TIP3   OH217834   2.939   5.854   1.439
 5943TIP3    H117835   2.988   5.803   1.375
 5943TIP3    H217836   2.977   5.830   1.524
 5944TIP3   OH217837   1.776   5.104   1.619
 5944TIP3    H117838   1.826   5.143   1.691
 5944TIP3    H217839   1.703   5.165   1.605
 5945TIP3   OH217840   5.217   3.169   1.403
 5945TIP3    H117841   5.226   3.263   1.414
 5945TIP3    H217842   5.272   3.148   1.327
 5946TIP3   OH217843   1.807   0.434   3.130
 5946TIP3    H117844   1.843   0.432   3.219
 5946TIP3    H217845   1.879   0.405   3.074
 5947TIP3   OH217846   4.816   4.244   3.398
 5947TIP3    H117847   4.841   4.152   3.411
 5947TIP3    H217848   4.728   4.250   3.434
 5948TIP3   OH217849   2.375   4.093   3.290
 5948TIP3    H117850   2.386   4.071   3.383
 5948TIP3    H217851   2.379   4.009   3.245
 5949TIP3   OH217852   6.039   2.644   3.388
 5949TIP3    H117853   6.093   2.597   3.323
 5949TIP3    H217854   6.101   2.702   3.432
 5950TIP3   OH217855   0.925   5.059   4.461
 5950TIP3    H117856   0.977   4.983   4.486
 5950TIP3    H217857   0.842   5.023   4.430
 5951TIP3   OH217858   5.020   3.964   3.847
 5951TIP3    H117859   4.966   4.038   3.820
 5951TIP3    H217860   5.010   3.960   3.942
 5952TIP3   OH217861   4.386   1.980   2.302
 5952TIP3    H117862   4.402   2.074   2.289
 5952TIP3    H217863   4.473   1.941   2.303
 5953TIP3   OH217864   0.573   2.298   2.796
 5953TIP3    H117865   0.574   2.261   2.884
 5953TIP3    H217866   0.586   2.392   2.808
 5954TIP3   OH217867   3.503   3.016   1.523
 5954TIP3    H117868   3.515   2.975   1.437
 5954TIP3    H217869   3.559   2.964   1.581
 5955TIP3   OH217870   3.976   2.150   0.225
 5955TIP3    H117871   3.903   2.211   0.212
 5955TIP3    H217872   3.945   2.089   0.292
 5956TIP3   OH217873   4.016   3.995   0.722
 5956TIP3    H117874   3.923   4.015   0.731
 5956TIP3    H217875   4.059   4.055   0.783
 5957TIP3   OH217876   1.679   2.750   3.440
 5957TIP3    H117877   1.748   2.807   3.405
 5957TIP3    H217878   1.726   2.682   3.489
 5958TIP3   OH217879   0.083   4.227   4.069
 5958TIP3    H117880   0.006   4.237   4.124
 5958TIP3    H217881   0.132   4.309   4.080
 5959TIP3   OH217882   4.669   3.507   3.094
 5959TIP3    H117883   4.677   3.552   3.010
 5959TIP3    H217884   4.677   3.577   3.159
 5960TIP3   OH217885   0.061   2.818   4.953
 5960TIP3    H117886   0.087   2.807   5.044
 5960TIP3    H217887  -0.026   2.777   4.949
 5961TIP3   OH217888   5.374   5.899   2.932
 5961TIP3    H117889   5.322   5.961   2.881
 5961TIP3    H217890   5.346   5.813   2.902
 5962TIP3   OH217891   3.714   3.906   5.111
 5962TIP3    H117892   3.703   3.860   5.194
 5962TIP3    H217893   3.806   3.893   5.088
 5963TIP3   OH217894   5.092   1.172   1.289
 5963TIP3    H117895   5.116   1.257   1.325
 5963TIP3    H217896   4.998   1.178   1.272
 5964TIP3   OH217897   4.041   3.092   3.621
 5964TIP3    H117898   4.124   3.085   3.669
 5964TIP3    H217899   3.977   3.048   3.676
 5965TIP3   OH217900   3.702   2.258   1.016
 5965TIP3    H117901   3.707   2.354   1.022
 5965TIP3    H217902   3.679   2.230   1.104
 5966TIP3   OH217903   3.221   5.402   4.653
 5966TIP3    H117904   3.271   5.474   4.690
 5966TIP3    H217905   3.131   5.417   4.684
 5967TIP3   OH217906   2.221   5.504   4.919
 5967TIP3    H117907   2.141   5.468   4.881
 5967TIP3    H217908   2.229   5.461   5.004
 5968TIP3   OH217909   0.967   0.880   4.263
 5968TIP3    H117910   0.995   0.943   4.329
 5968TIP3    H217911   0.922   0.933   4.197
 5969TIP3   OH217912   4.599   2.871   4.099
 5969TIP3    H117913   4.634   2.838   4.181
 5969TIP3    H217914   4.511   2.901   4.120
 5970TIP3   OH217915   3.270   2.517   4.113
 5970TIP3    H117916   3.314   2.563   4.184
 5970TIP3    H217917   3.276   2.576   4.038
 5971TIP3   OH217918   1.009   1.114   0.233
 5971TIP3    H117919   0.919   1.081   0.233
 5971TIP3    H217920   1.056   1.055   0.174
 5972TIP3   OH217921   3.469   1.455   2.591
 5972TIP3    H117922   3.517   1.408   2.523
 5972TIP3    H217923   3.382   1.416   2.590
 5973TIP3   OH217924   6.022   1.369   3.815
 5973TIP3    H117925   6.029   1.275   3.826
 5973TIP3    H217926   6.068   1.387   3.733
 5974TIP3   OH217927   0.464   3.980   4.556
 5974TIP3    H117928   0.395   4.043   4.577
 5974TIP3    H217929   0.451   3.909   4.619
 5975TIP3   OH217930   0.789   5.435   1.950
 5975TIP3    H117931   0.706   5.423   1.904
 5975TIP3    H217932   0.840   5.356   1.929
 5976TIP3   OH217933   2.445   4.017   1.760
 5976TIP3    H117934   2.535   3.996   1.785
 5976TIP3    H217935   2.454   4.084   1.693
 5977TIP3   OH217936   2.686   3.944   3.092
 5977TIP3    H117937   2.636   3.868   3.063
 5977TIP3    H217938   2.624   4.017   3.086
 5978TIP3   OH217939   0.051   5.969   2.431
 5978TIP3    H117940  -0.012   6.037   2.407
 5978TIP3    H217941   0.004   5.887   2.416
 5979TIP3   OH217942   1.095   3.052   0.321
 5979TIP3    H117943   1.182   3.061   0.361
 5979TIP3    H217944   1.099   2.969   0.274
 5980TIP3   OH217945   2.702   1.140   3.337
 5980TIP3    H117946   2.658   1.055   3.328
 5980TIP3    H217947   2.773   1.123   3.400
 5981TIP3   OH217948   4.146   1.901   4.537
 5981TIP3    H117949   4.163   1.958   4.462
 5981TIP3    H217950   4.053   1.879   4.530
 5982TIP3   OH217951   2.804   5.318   3.189
 5982TIP3    H117952   2.790   5.304   3.283
 5982TIP3    H217953   2.716   5.332   3.154
 5983TIP3   OH217954   5.364   5.158   4.246
 5983TIP3    H117955   5.446   5.128   4.205
 5983TIP3    H217956   5.362   5.113   4.330
 5984TIP3   OH217957   5.952   4.337   1.367
 5984TIP3    H117958   5.980   4.428   1.380
 5984TIP3    H217959   5.895   4.340   1.290
 5985TIP3   OH217960   3.023   4.005   3.273
 5985TIP3    H117961   2.929   4.010   3.291
 5985TIP3    H217962   3.054   4.094   3.285
 5986TIP3   OH217963   1.307   5.329   3.449
 5986TIP3    H117964   1.271   5.245   3.478
 5986TIP3    H217965   1.232   5.380   3.421
 5987TIP3   OH217966  -0.011   2.116   3.266
 5987TIP3    H117967  -0.037   2.039   3.316
 5987TIP3    H217968   0.080   2.099   3.242
 5988TIP3   OH217969   3.632   3.273   0.885
 5988TIP3    H117970   3.680   3.353   0.863
 5988TIP3    H217971   3.557   3.273   0.824
 5989TIP3   OH217972   4.041   0.605   2.320
 5989TIP3    H117973   4.045   0.509   2.312
 5989TIP3    H217974   3.962   0.621   2.371
 5990TIP3   OH217975   3.331   0.067   3.361
 5990TIP3    H117976   3.397   0.067   3.291
 5990TIP3    H217977   3.322  -0.025   3.386
 5991TIP3   OH217978   3.543   0.074   3.167
 5991TIP3    H117979   3.614   0.020   3.202
 5991TIP3    H217980   3.516   0.028   3.088
 5992TIP3   OH217981   2.111   4.564   2.238
 5992TIP3    H117982   2.172   4.517   2.295
 5992TIP3    H217983   2.097   4.505   2.164
 5993TIP3   OH217984   3.932   0.982   1.151
 5993TIP3    H117985   3.844   0.975   1.188
 5993TIP3    H217986   3.963   1.068   1.181
 5994TIP3   OH217987   2.189   1.968   3.727
 5994TIP3    H117988   2.153   1.909   3.661
 5994TIP3    H217989   2.263   1.920   3.764
 5995TIP3   OH217990   5.830   4.976   1.013
 5995TIP3    H117991   5.771   5.031   0.962
 5995TIP3    H217992   5.911   5.026   1.019
 5996TIP3   OH217993   4.583   4.894   0.987
 5996TIP3    H117994   4.661   4.878   1.040
 5996TIP3    H217995   4.617   4.916   0.900
 5997TIP3   OH217996   4.480   1.039   4.593
 5997TIP3    H117997   4.421   1.112   4.574
 5997TIP3    H217998   4.567   1.072   4.568
 5998TIP3   OH217999   6.265   0.588   0.617
 5998TIP3    H118000   6.335   0.653   0.614
 5998TIP3    H218001   6.194   0.631   0.664
 5999TIP3   OH218002   4.181   1.343   5.053
 5999TIP3    H118003   4.117   1.409   5.027
 5999TIP3    H218004   4.213   1.373   5.138
 6000TIP3   OH218005   2.930   0.849   0.585
 6000TIP3    H118006   2.850   0.865   0.636
 6000TIP3    H218007   2.904   0.862   0.494
 6001TIP3   OH218008   3.724   1.385   2.719
 6001TIP3    H118009   3.700   1.427   2.801
 6001TIP3    H218010   3.819   1.376   2.723
 6002TIP3   OH218011   0.718   5.281   1.112
 6002TIP3    H118012   0.800   5.327   1.131
 6002TIP3    H218013   0.742   5.189   1.109
 6003TIP3   OH218014   3.232   3.849   3.164
 6003TIP3    H118015   3.289   3.922   3.187
 6003TIP3    H218016   3.144   3.878   3.190
 6004TIP3   OH218017   5.803   2.039   1.372
 6004TIP3    H118018   5.720   2.043   1.419
 6004TIP3    H218019   5.784   2.077   1.287
 6005TIP3   OH218020   3.479   0.953   1.414
 6005TIP3    H118021   3.518   1.031   1.454
 6005TIP3    H218022   3.491   0.884   1.480
 6006TIP3   OH218023   3.064   3.743   5.077
 6006TIP3    H118024   3.153   3.707   5.080
 6006TIP3    H218025   3.018   3.698   5.147
 6007TIP3   OH218026   3.551   4.420   2.785
 6007TIP3    H118027   3.539   4.486   2.717
 6007TIP3    H218028   3.591   4.467   2.858
 6008TIP3   OH218029   3.443   5.007   4.908
 6008TIP3    H118030   3.387   5.039   4.978
 6008TIP3    H218031   3.479   5.087   4.868
 6009TIP3   OH218032   1.686   5.075   0.158
 6009TIP3    H118033   1.709   5.159   0.196
 6009TIP3    H218034   1.738   5.069   0.078
 6010TIP3   OH218035   4.883   1.525   2.633
 6010TIP3    H118036   4.941   1.488   2.700
 6010TIP3    H218037   4.845   1.449   2.589
 6011TIP3   OH218038   2.156   5.590   1.928
 6011TIP3    H118039   2.135   5.497   1.923
 6011TIP3    H218040   2.098   5.624   1.996
 6012TIP3   OH218041   1.606   3.772   3.576
 6012TIP3    H118042   1.554   3.800   3.651
 6012TIP3    H218043   1.548   3.714   3.527
 6013TIP3   OH218044   2.415   3.967   2.156
 6013TIP3    H118045   2.349   3.936   2.095
 6013TIP3    H218046   2.376   3.953   2.243
 6014TIP3   OH218047   1.166   2.881   4.482
 6014TIP3    H118048   1.109   2.880   4.406
 6014TIP3    H218049   1.109   2.905   4.555
 6015TIP3   OH218050   2.870   0.571   0.353
 6015TIP3    H118051   2.784   0.590   0.389
 6015TIP3    H218052   2.855   0.498   0.293
 6016TIP3   OH218053   1.909   3.989   5.005
 6016TIP3    H118054   1.824   3.954   5.033
 6016TIP3    H218055   1.894   4.083   4.999
 6017TIP3   OH218056   3.619   5.647   4.380
 6017TIP3    H118057   3.715   5.641   4.383
 6017TIP3    H218058   3.600   5.739   4.399
 6018TIP3   OH218059   2.557   1.365   1.688
 6018TIP3    H118060   2.530   1.456   1.690
 6018TIP3    H218061   2.482   1.318   1.652
 6019TIP3   OH218062   0.948   3.161   0.652
 6019TIP3    H118063   0.893   3.088   0.624
 6019TIP3    H218064   1.038   3.130   0.638
 6020TIP3   OH218065   3.908   5.223   0.198
 6020TIP3    H118066   3.869   5.309   0.211
 6020TIP3    H218067   3.855   5.164   0.253
 6021TIP3   OH218068   3.611   0.265   4.008
 6021TIP3    H118069   3.590   0.179   4.045
 6021TIP3    H218070   3.584   0.327   4.076
 6022TIP3   OH218071   1.360   0.450   1.081
 6022TIP3    H118072   1.405   0.393   1.144
 6022TIP3    H218073   1.424   0.467   1.013
 6023TIP3   OH218074   3.307   4.870   0.553
 6023TIP3    H118075   3.306   4.854   0.648
 6023TIP3    H218076   3.399   4.861   0.529
 6024TIP3   OH218077   3.095   3.024   1.802
 6024TIP3    H118078   3.161   3.074   1.754
 6024TIP3    H218079   3.120   3.035   1.894
 6025TIP3   OH218080   0.995   3.493   3.684
 6025TIP3    H118081   1.011   3.579   3.722
 6025TIP3    H218082   1.000   3.433   3.758
 6026TIP3   OH218083   4.253   5.134   1.522
 6026TIP3    H118084   4.175   5.087   1.554
 6026TIP3    H218085   4.223   5.224   1.509
 6027TIP3   OH218086   3.293   4.120   2.530
 6027TIP3    H118087   3.284   4.153   2.619
 6027TIP3    H218088   3.262   4.192   2.474
 6028TIP3   OH218089   0.999   4.731   2.418
 6028TIP3    H118090   1.008   4.826   2.428
 6028TIP3    H218091   0.964   4.719   2.330
 6029TIP3   OH218092   6.205   1.215   4.764
 6029TIP3    H118093   6.113   1.232   4.784
 6029TIP3    H218094   6.239   1.174   4.844
 6030TIP3   OH218095   0.281   2.287   4.650
 6030TIP3    H118096   0.306   2.374   4.684
 6030TIP3    H218097   0.353   2.230   4.676
 6031TIP3   OH218098   4.474   3.906   5.078
 6031TIP3    H118099   4.394   3.951   5.051
 6031TIP3    H218100   4.542   3.973   5.077
 6032TIP3   OH218101   3.042   1.852   1.949
 6032TIP3    H118102   3.125   1.806   1.964
 6032TIP3    H218103   3.041   1.868   1.854
 6033TIP3   OH218104   1.418   1.148   5.027
 6033TIP3    H118105   1.501   1.194   5.029
 6033TIP3    H218106   1.409   1.116   4.937
 6034TIP3   OH218107   2.399   3.906   3.887
 6034TIP3    H118108   2.420   3.859   3.806
 6034TIP3    H218109   2.467   3.880   3.949
 6035TIP3   OH218110   4.858   2.878   4.801
 6035TIP3    H118111   4.792   2.809   4.801
 6035TIP3    H218112   4.872   2.898   4.894
 6036TIP3   OH218113   3.388   2.003   2.562
 6036TIP3    H118114   3.399   2.071   2.496
 6036TIP3    H218115   3.415   1.922   2.518
 6037TIP3   OH218116   4.420   0.709   3.647
 6037TIP3    H118117   4.391   0.721   3.556
 6037TIP3    H218118   4.343   0.676   3.693
 6038TIP3   OH218119   6.181   1.479   1.559
 6038TIP3    H118120   6.272   1.451   1.570
 6038TIP3    H218121   6.184   1.543   1.488
 6039TIP3   OH218122   4.703   0.664   3.991
 6039TIP3    H118123   4.633   0.619   4.038
 6039TIP3    H218124   4.742   0.595   3.936
 6040TIP3   OH218125   5.064   0.662   1.665
 6040TIP3    H118126   5.017   0.721   1.606
 6040TIP3    H218127   5.084   0.585   1.611
 6041TIP3   OH218128   2.692   0.705   4.213
 6041TIP3    H118129   2.618   0.719   4.272
 6041TIP3    H218130   2.659   0.732   4.127
 6042TIP3   OH218131   5.444   1.690   4.775
 6042TIP3    H118132   5.506   1.750   4.735
 6042TIP3    H218133   5.485   1.604   4.769
 6043TIP3   OH218134   5.245   2.758   2.090
 6043TIP3    H118135   5.185   2.828   2.064
 6043TIP3    H218136   5.203   2.718   2.166
 6044TIP3   OH218137   0.986   2.859   1.201
 6044TIP3    H118138   0.923   2.914   1.247
 6044TIP3    H218139   0.936   2.781   1.175
 6045TIP3   OH218140   2.231   2.890   0.592
 6045TIP3    H118141   2.210   2.975   0.632
 6045TIP3    H218142   2.311   2.906   0.543
 6046TIP3   OH218143   3.228   5.600   3.484
 6046TIP3    H118144   3.316   5.586   3.520
 6046TIP3    H218145   3.231   5.557   3.398
 6047TIP3   OH218146   3.674   3.158   4.405
 6047TIP3    H118147   3.720   3.196   4.329
 6047TIP3    H218148   3.623   3.231   4.441
 6048TIP3   OH218149   1.998   3.893   0.342
 6048TIP3    H118150   2.002   3.873   0.249
 6048TIP3    H218151   2.085   3.868   0.375
 6049TIP3   OH218152   0.536   3.201   2.197
 6049TIP3    H118153   0.615   3.148   2.208
 6049TIP3    H218154   0.465   3.138   2.187
 6050TIP3   OH218155   1.859   1.407   1.973
 6050TIP3    H118156   1.933   1.431   1.917
 6050TIP3    H218157   1.868   1.313   1.987
 6051TIP3   OH218158   4.221   1.561   3.673
 6051TIP3    H118159   4.316   1.563   3.676
 6051TIP3    H218160   4.198   1.472   3.699
 6052TIP3   OH218161   1.673   3.682   1.282
 6052TIP3    H118162   1.742   3.616   1.284
 6052TIP3    H218163   1.619   3.664   1.359
 6053TIP3   OH218164   3.841   0.528   0.490
 6053TIP3    H118165   3.897   0.489   0.423
 6053TIP3    H218166   3.757   0.484   0.480
 6054TIP3   OH218167   0.966   5.489   2.305
 6054TIP3    H118168   0.890   5.543   2.284
 6054TIP3    H218169   1.041   5.541   2.275
 6055TIP3   OH218170   0.662   4.368   0.479
 6055TIP3    H118171   0.731   4.301   0.480
 6055TIP3    H218172   0.581   4.319   0.490
 6056TIP3   OH218173   5.761   3.799   2.422
 6056TIP3    H118174   5.823   3.844   2.365
 6056TIP3    H218175   5.816   3.746   2.480
 6057TIP3   OH218176   5.716   4.653   0.227
 6057TIP3    H118177   5.659   4.666   0.303
 6057TIP3    H218178   5.729   4.741   0.192
 6058TIP3   OH218179   3.382   4.745   4.834
 6058TIP3    H118180   3.355   4.825   4.877
 6058TIP3    H218181   3.470   4.764   4.801
 6059TIP3   OH218182   2.241   4.228   4.891
 6059TIP3    H118183   2.150   4.216   4.862
 6059TIP3    H218184   2.291   4.237   4.810
 6060TIP3   OH218185   2.216   2.108   4.134
 6060TIP3    H118186   2.260   2.156   4.064
 6060TIP3    H218187   2.142   2.164   4.158
 6061TIP3   OH218188   2.315   4.670   1.717
 6061TIP3    H118189   2.323   4.733   1.646
 6061TIP3    H218190   2.222   4.651   1.721
 6062TIP3   OH218191   2.107   4.323   1.496
 6062TIP3    H118192   2.051   4.246   1.500
 6062TIP3    H218193   2.065   4.380   1.431
 6063TIP3   OH218194   3.666   2.946   1.837
 6063TIP3    H118195   3.744   2.893   1.856
 6063TIP3    H218196   3.682   3.029   1.882
 6064TIP3   OH218197   3.978   1.991   3.511
 6064TIP3    H118198   3.889   1.958   3.523
 6064TIP3    H218199   4.027   1.918   3.474
 6065TIP3   OH218200   1.357   1.947   1.472
 6065TIP3    H118201   1.294   1.876   1.482
 6065TIP3    H218202   1.403   1.927   1.390
 6066TIP3   OH218203   1.134   2.593   3.495
 6066TIP3    H118204   1.214   2.644   3.481
 6066TIP3    H218205   1.162   2.517   3.546
 6067TIP3   OH218206   1.102   5.468   1.480
 6067TIP3    H118207   1.040   5.524   1.433
 6067TIP3    H218208   1.061   5.452   1.565
 6068TIP3   OH218209   4.467   4.843   4.282
 6068TIP3    H118210   4.417   4.782   4.228
 6068TIP3    H218211   4.461   4.807   4.371
 6069TIP3   OH218212   3.091   2.287   4.068
 6069TIP3    H118213   3.120   2.376   4.089
 6069TIP3    H218214   3.135   2.232   4.134
 6070TIP3   OH218215   0.993   3.095   4.423
 6070TIP3    H118216   0.943   3.114   4.502
 6070TIP3    H218217   1.012   3.181   4.385
 6071TIP3   OH218218   1.912   2.526   4.156
 6071TIP3    H118219   1.919   2.618   4.133
 6071TIP3    H218220   2.001   2.500   4.179
 6072TIP3   OH218221   1.327   2.373   4.572
 6072TIP3    H118222   1.308   2.351   4.663
 6072TIP3    H218223   1.331   2.469   4.571
 6073TIP3   OH218224   1.242   5.308   3.089
 6073TIP3    H118225   1.246   5.228   3.035
 6073TIP3    H218226   1.245   5.275   3.179
 6074TIP3   OH218227   2.646   4.893   0.042
 6074TIP3    H118228   2.730   4.850   0.027
 6074TIP3    H218229   2.657   4.981   0.007
 6075TIP3   OH218230   1.393   4.572   4.436
 6075TIP3    H118231   1.345   4.643   4.395
 6075TIP3    H218232   1.342   4.493   4.416
 6076TIP3   OH218233   0.146   0.629   1.317
 6076TIP3    H118234   0.127   0.723   1.313
 6076TIP3    H218235   0.235   0.624   1.352
 6077TIP3   OH218236   0.898   2.645   5.122
 6077TIP3    H118237   0.843   2.649   5.200
 6077TIP3    H218238   0.987   2.663   5.154
 6078TIP3   OH218239   1.108   5.568   0.128
 6078TIP3    H118240   1.202   5.573   0.112
 6078TIP3    H218241   1.069   5.620   0.059
 6079TIP3   OH218242   2.711   0.838   1.900
 6079TIP3    H118243   2.702   0.929   1.873
 6079TIP3    H218244   2.622   0.811   1.924
 6080TIP3   OH218245   3.278   4.963   2.864
 6080TIP3    H118246   3.337   4.954   2.789
 6080TIP3    H218247   3.330   5.009   2.930
 6081TIP3   OH218248   1.902   2.626   0.926
 6081TIP3    H118249   1.971   2.676   0.969
 6081TIP3    H218250   1.923   2.632   0.832
 6082TIP3   OH218251   1.158   0.725   3.328
 6082TIP3    H118252   1.100   0.662   3.284
 6082TIP3    H218253   1.211   0.762   3.257
 6083TIP3   OH218254   0.716   0.512   3.951
 6083TIP3    H118255   0.621   0.517   3.938
 6083TIP3    H218256   0.739   0.599   3.984
 6084TIP3   OH218257   3.527   2.752   0.436
 6084TIP3    H118258   3.620   2.761   0.416
 6084TIP3    H218259   3.485   2.732   0.352
 6085TIP3   OH218260   1.891   5.291   2.095
 6085TIP3    H118261   1.911   5.201   2.067
 6085TIP3    H218262   1.959   5.311   2.160
 6086TIP3   OH218263   2.034   3.201   4.981
 6086TIP3    H118264   2.046   3.106   4.978
 6086TIP3    H218265   2.008   3.219   5.071
 6087TIP3   OH218266   2.846   4.737   1.855
 6087TIP3    H118267   2.752   4.744   1.840
 6087TIP3    H218268   2.853   4.713   1.948
 6088TIP3   OH218269   2.694   1.206   1.236
 6088TIP3    H118270   2.701   1.282   1.293
 6088TIP3    H218271   2.778   1.161   1.245
 6089TIP3   OH218272   3.348   2.056   2.022
 6089TIP3    H118273   3.404   2.118   1.975
 6089TIP3    H218274   3.268   2.051   1.969
 6090TIP3   OH218275   0.449   1.900   4.356
 6090TIP3    H118276   0.430   1.854   4.438
 6090TIP3    H218277   0.364   1.929   4.325
 6091TIP3   OH218278   1.332   2.132   1.682
 6091TIP3    H118279   1.326   2.227   1.667
 6091TIP3    H218280   1.319   2.094   1.595
 6092TIP3   OH218281   0.795   1.103   2.755
 6092TIP3    H118282   0.824   1.192   2.775
 6092TIP3    H218283   0.862   1.069   2.696
 6093TIP3   OH218284   3.471   0.427   2.115
 6093TIP3    H118285   3.449   0.344   2.159
 6093TIP3    H218286   3.398   0.485   2.135
 6094TIP3   OH218287   3.140   1.875   1.427
 6094TIP3    H118288   3.104   1.921   1.351
 6094TIP3    H218289   3.197   1.808   1.390
 6095TIP3   OH218290   1.630   0.228   2.909
 6095TIP3    H118291   1.550   0.184   2.940
 6095TIP3    H218292   1.600   0.315   2.882
 6096TIP3   OH218293   4.803   2.784   1.484
 6096TIP3    H118294   4.733   2.848   1.498
 6096TIP3    H218295   4.757   2.704   1.457
 6097TIP3   OH218296   5.160   0.206   5.160
 6097TIP3    H118297   5.185   0.132   5.103
 6097TIP3    H218298   5.238   0.261   5.162
 6098TIP3   OH218299   4.915   5.002   1.977
 6098TIP3    H118300   4.841   4.942   1.965
 6098TIP3    H218301   4.893   5.052   2.055
 6099TIP3   OH218302   2.901   4.877   3.606
 6099TIP3    H118303   2.815   4.901   3.571
 6099TIP3    H218304   2.910   4.930   3.686
 6100TIP3   OH218305   3.213   1.513   3.445
 6100TIP3    H118306   3.290   1.471   3.406
 6100TIP3    H218307   3.196   1.463   3.525
 6101TIP3   OH218308   0.321   5.922   2.929
 6101TIP3    H118309   0.306   5.937   2.836
 6101TIP3    H218310   0.262   5.982   2.974
 6102TIP3   OH218311   3.430   3.612   1.760
 6102TIP3    H118312   3.366   3.673   1.797
 6102TIP3    H218313   3.448   3.551   1.832
 6103TIP3   OH218314   0.615   5.483   4.305
 6103TIP3    H118315   0.560   5.561   4.303
 6103TIP3    H218316   0.698   5.513   4.342
 6104TIP3   OH218317   4.782   5.913   5.148
 6104TIP3    H118318   4.771   5.914   5.243
 6104TIP3    H218319   4.766   5.822   5.124
 6105TIP3   OH218320   5.448   0.404   3.639
 6105TIP3    H118321   5.482   0.338   3.580
 6105TIP3    H218322   5.525   0.456   3.664
 6106TIP3   OH218323   2.647   3.841   4.560
 6106TIP3    H118324   2.706   3.907   4.595
 6106TIP3    H218325   2.566   3.852   4.609
 6107TIP3   OH218326   4.365   2.257   2.221
 6107TIP3    H118327   4.456   2.273   2.245
 6107TIP3    H218328   4.360   2.282   2.129
 6108TIP3   OH218329   3.285   4.818   0.820
 6108TIP3    H118330   3.318   4.843   0.907
 6108TIP3    H218331   3.196   4.787   0.836
 6109TIP3   OH218332   3.176   2.408   5.228
 6109TIP3    H118333   3.125   2.327   5.220
 6109TIP3    H218334   3.262   2.379   5.260
 6110TIP3   OH218335   2.208   1.810   3.071
 6110TIP3    H118336   2.188   1.856   3.153
 6110TIP3    H218337   2.190   1.718   3.091
 6111TIP3   OH218338   4.455   5.522   3.224
 6111TIP3    H118339   4.404   5.466   3.283
 6111TIP3    H218340   4.545   5.492   3.235
 6112TIP3   OH218341   3.737   4.100   4.184
 6112TIP3    H118342   3.742   4.186   4.226
 6112TIP3    H218343   3.693   4.116   4.101
 6113TIP3   OH218344   3.500   5.834   3.224
 6113TIP3    H118345   3.446   5.858   3.149
 6113TIP3    H218346   3.452   5.866   3.300
 6114TIP3   OH218347   4.301   1.025   3.764
 6114TIP3    H118348   4.379   1.036   3.709
 6114TIP3    H218349   4.331   0.975   3.839
 6115TIP3   OH218350   1.207   0.519   3.676
 6115TIP3    H118351   1.175   0.609   3.676
 6115TIP3    H218352   1.300   0.527   3.697
 6116TIP3   OH218353   6.232   4.641   1.999
 6116TIP3    H118354   6.149   4.673   2.032
 6116TIP3    H218355   6.280   4.612   2.076
 6117TIP3   OH218356   6.262   2.107   2.326
 6117TIP3    H118357   6.247   2.031   2.271
 6117TIP3    H218358   6.309   2.169   2.270
 6118TIP3   OH218359   6.265   0.167   4.681
 6118TIP3    H118360   6.318   0.202   4.610
 6118TIP3    H218361   6.319   0.176   4.759
 6119TIP3   OH218362   3.941   2.390   2.887
 6119TIP3    H118363   4.002   2.436   2.830
 6119TIP3    H218364   3.877   2.351   2.828
 6120TIP3   OH218365   2.591   5.509   2.487
 6120TIP3    H118366   2.501   5.477   2.482
 6120TIP3    H218367   2.585   5.601   2.460
 6121TIP3   OH218368   0.154   2.407   1.803
 6121TIP3    H118369   0.237   2.399   1.851
 6121TIP3    H218370   0.176   2.377   1.715
 6122TIP3   OH218371   5.727   3.697   3.328
 6122TIP3    H118372   5.695   3.739   3.248
 6122TIP3    H218373   5.688   3.748   3.399
 6123TIP3   OH218374   0.556   1.448   3.060
 6123TIP3    H118375   0.522   1.537   3.070
 6123TIP3    H218376   0.515   1.398   3.131
 6124TIP3   OH218377   4.844   2.980   5.072
 6124TIP3    H118378   4.867   3.052   5.014
 6124TIP3    H218379   4.749   2.973   5.065
 6125TIP3   OH218380   5.673   4.933   0.577
 6125TIP3    H118381   5.757   4.966   0.544
 6125TIP3    H218382   5.698   4.869   0.644
 6126TIP3   OH218383   2.048   3.280   0.189
 6126TIP3    H118384   2.045   3.280   0.285
 6126TIP3    H218385   2.087   3.196   0.166
 6127TIP3   OH218386   4.061   1.588   3.904
 6127TIP3    H118387   4.023   1.663   3.950
 6127TIP3    H218388   4.066   1.615   3.813
 6128TIP3   OH218389   2.290   4.562   3.413
 6128TIP3    H118390   2.200   4.570   3.381
 6128TIP3    H218391   2.340   4.621   3.357
 6129TIP3   OH218392   0.798   2.220   3.343
 6129TIP3    H118393   0.727   2.281   3.366
 6129TIP3    H218394   0.754   2.136   3.330
 6130TIP3   OH218395   0.303   3.227   3.652
 6130TIP3    H118396   0.254   3.180   3.585
 6130TIP3    H218397   0.317   3.162   3.721
 6131TIP3   OH218398   5.832   2.911   3.328
 6131TIP3    H118399   5.892   2.843   3.359
 6131TIP3    H218400   5.753   2.899   3.381
 6132TIP3   OH218401   5.671   0.802   1.845
 6132TIP3    H118402   5.579   0.814   1.820
 6132TIP3    H218403   5.667   0.752   1.926
 6133TIP3   OH218404   4.392   5.013  -0.007
 6133TIP3    H118405   4.455   5.082  -0.026
 6133TIP3    H218406   4.444   4.932  -0.008
 6134TIP3   OH218407   5.605   1.432   4.634
 6134TIP3    H118408   5.687   1.384   4.621
 6134TIP3    H218409   5.594   1.484   4.555
 6135TIP3   OH218410   1.127   3.581   1.881
 6135TIP3    H118411   1.096   3.663   1.918
 6135TIP3    H218412   1.106   3.588   1.788
 6136TIP3   OH218413   3.561   4.947   3.255
 6136TIP3    H118414   3.597   4.863   3.284
 6136TIP3    H218415   3.581   5.007   3.327
 6137TIP3   OH218416   0.825   5.141   4.728
 6137TIP3    H118417   0.890   5.208   4.708
 6137TIP3    H218418   0.801   5.105   4.643
 6138TIP3   OH218419   3.908   4.812   4.369
 6138TIP3    H118420   3.847   4.749   4.408
 6138TIP3    H218421   3.853   4.877   4.326
 6139TIP3   OH218422   1.582   2.880   1.405
 6139TIP3    H118423   1.521   2.862   1.476
 6139TIP3    H218424   1.549   2.960   1.364
 6140TIP3   OH218425   3.556   0.299   4.369
 6140TIP3    H118426   3.631   0.299   4.428
 6140TIP3    H218427   3.575   0.369   4.306
 6141TIP3   OH218428   5.998   1.001   1.237
 6141TIP3    H118429   6.012   1.095   1.250
 6141TIP3    H218430   5.958   0.995   1.151
 6142TIP3   OH218431   6.101   4.021   3.726
 6142TIP3    H118432   6.164   4.084   3.761
 6142TIP3    H218433   6.120   4.017   3.633
 6143TIP3   OH218434   1.659   4.507   4.237
 6143TIP3    H118435   1.679   4.579   4.177
 6143TIP3    H218436   1.590   4.457   4.192
 6144TIP3   OH218437   4.064   1.194   3.241
 6144TIP3    H118438   4.004   1.165   3.309
 6144TIP3    H218439   4.121   1.257   3.284
 6145TIP3   OH218440   4.343   2.444   1.659
 6145TIP3    H118441   4.291   2.494   1.722
 6145TIP3    H218442   4.278   2.402   1.602
 6146TIP3   OH218443   0.076   0.870   0.152
 6146TIP3    H118444   0.151   0.819   0.181
 6146TIP3    H218445   0.030   0.814   0.089
 6147TIP3   OH218446   1.631   5.481   0.061
 6147TIP3    H118447   1.654   5.565   0.021
 6147TIP3    H218448   1.707   5.425   0.044
 6148TIP3   OH218449   5.456   1.999   1.358
 6148TIP3    H118450   5.362   2.014   1.361
 6148TIP3    H218451   5.469   1.945   1.280
 6149TIP3   OH218452   2.906   4.022   0.945
 6149TIP3    H118453   2.998   3.996   0.954
 6149TIP3    H218454   2.877   4.037   1.035
 6150TIP3   OH218455   0.904   4.416   2.191
 6150TIP3    H118456   0.966   4.475   2.147
 6150TIP3    H218457   0.818   4.450   2.168
 6151TIP3   OH218458   1.051   3.066   2.143
 6151TIP3    H118459   1.017   2.978   2.129
 6151TIP3    H218460   1.002   3.121   2.081
 6152TIP3   OH218461   1.032   1.036   4.477
 6152TIP3    H118462   0.943   1.069   4.466
 6152TIP3    H218463   1.047   1.038   4.572
 6153TIP3   OH218464   5.772   5.555   1.691
 6153TIP3    H118465   5.810   5.505   1.618
 6153TIP3    H218466   5.727   5.489   1.744
 6154TIP3   OH218467   1.071   3.580   2.257
 6154TIP3    H118468   0.983   3.581   2.295
 6154TIP3    H218469   1.108   3.664   2.281
 6155TIP3   OH218470   4.260   3.713   1.430
 6155TIP3    H118471   4.228   3.725   1.341
 6155TIP3    H218472   4.309   3.793   1.449
 6156TIP3   OH218473   6.053   4.277   4.456
 6156TIP3    H118474   6.110   4.217   4.504
 6156TIP3    H218475   6.062   4.361   4.501
 6157TIP3   OH218476   6.225   2.017   4.692
 6157TIP3    H118477   6.217   1.940   4.634
 6157TIP3    H218478   6.229   1.980   4.780
 6158TIP3   OH218479   5.667   5.794   1.151
 6158TIP3    H118480   5.732   5.776   1.083
 6158TIP3    H218481   5.634   5.881   1.129
 6159TIP3   OH218482   4.846   1.159   4.142
 6159TIP3    H118483   4.843   1.095   4.071
 6159TIP3    H218484   4.934   1.197   4.135
 6160TIP3   OH218485   1.514   5.559   2.039
 6160TIP3    H118486   1.488   5.623   1.973
 6160TIP3    H218487   1.561   5.492   1.989
 6161TIP3   OH218488   0.426   1.927   0.555
 6161TIP3    H118489   0.413   1.839   0.590
 6161TIP3    H218490   0.453   1.914   0.464
 6162TIP3   OH218491   1.554   4.734   4.858
 6162TIP3    H118492   1.598   4.654   4.831
 6162TIP3    H218493   1.492   4.753   4.788
 6163TIP3   OH218494   6.269   2.182   0.917
 6163TIP3    H118495   6.363   2.182   0.904
 6163TIP3    H218496   6.253   2.250   0.982
 6164TIP3   OH218497   4.888   0.061   2.953
 6164TIP3    H118498   4.857   0.127   3.016
 6164TIP3    H218499   4.858   0.093   2.868
 6165TIP3   OH218500   2.540   2.186   4.676
 6165TIP3    H118501   2.451   2.159   4.652
 6165TIP3    H218502   2.593   2.107   4.662
 6166TIP3   OH218503   3.726   4.409   0.524
 6166TIP3    H118504   3.787   4.413   0.597
 6166TIP3    H218505   3.642   4.436   0.561
 6167TIP3   OH218506   2.549   4.984   0.855
 6167TIP3    H118507   2.532   5.031   0.773
 6167TIP3    H218508   2.535   4.892   0.832
 6168TIP3   OH218509   0.445   0.719   4.208
 6168TIP3    H118510   0.451   0.688   4.299
 6168TIP3    H218511   0.416   0.643   4.159
 6169TIP3   OH218512   2.454   3.772   4.984
 6169TIP3    H118513   2.532   3.811   4.946
 6169TIP3    H218514   2.397   3.846   5.003
 6170TIP3   OH218515   3.341   5.035   3.109
 6170TIP3    H118516   3.428   5.030   3.148
 6170TIP3    H218517   3.289   4.968   3.154
 6171TIP3   OH218518   1.631   0.782   3.935
 6171TIP3    H118519   1.632   0.708   3.874
 6171TIP3    H218520   1.719   0.783   3.974
 6172TIP3   OH218521   3.501   5.776   4.734
 6172TIP3    H118522   3.586   5.769   4.690
 6172TIP3    H218523   3.438   5.788   4.663
 6173TIP3   OH218524   0.797   0.326   1.962
 6173TIP3    H118525   0.835   0.414   1.969
 6173TIP3    H218526   0.711   0.334   2.003
 6174TIP3   OH218527   3.126   2.979   0.409
 6174TIP3    H118528   3.130   3.048   0.342
 6174TIP3    H218529   3.044   2.996   0.456
 6175TIP3   OH218530   5.248   1.686   2.219
 6175TIP3    H118531   5.313   1.692   2.150
 6175TIP3    H218532   5.182   1.752   2.196
 6176TIP3   OH218533   1.921   5.089   5.120
 6176TIP3    H118534   1.859   5.156   5.146
 6176TIP3    H218535   1.919   5.025   5.190
 6177TIP3   OH218536   5.135   1.630   1.933
 6177TIP3    H118537   5.113   1.583   1.852
 6177TIP3    H218538   5.071   1.701   1.938
 6178TIP3   OH218539   3.855   5.926   1.231
 6178TIP3    H118540   3.926   5.914   1.294
 6178TIP3    H218541   3.850   6.021   1.219
 6179TIP3   OH218542   3.574   3.785   2.744
 6179TIP3    H118543   3.603   3.694   2.735
 6179TIP3    H218544   3.655   3.836   2.741
 6180TIP3   OH218545   0.684   2.544   4.300
 6180TIP3    H118546   0.730   2.475   4.253
 6180TIP3    H218547   0.630   2.499   4.364
 6181TIP3   OH218548   5.813   2.814   1.337
 6181TIP3    H118549   5.730   2.793   1.293
 6181TIP3    H218550   5.828   2.907   1.318
 6182TIP3   OH218551   0.761   0.996   0.226
 6182TIP3    H118552   0.732   0.948   0.148
 6182TIP3    H218553   0.681   1.014   0.274
 6183TIP3   OH218554   2.912   1.414   1.642
 6183TIP3    H118555   2.892   1.484   1.704
 6183TIP3    H218556   2.996   1.439   1.605
 6184TIP3   OH218557   5.724   2.623   3.948
 6184TIP3    H118558   5.693   2.678   4.020
 6184TIP3    H218559   5.701   2.672   3.869
 6185TIP3   OH218560   5.927   5.641   4.821
 6185TIP3    H118561   5.849   5.595   4.789
 6185TIP3    H218562   5.894   5.701   4.887
 6186TIP3   OH218563   5.682   3.877   4.981
 6186TIP3    H118564   5.688   3.972   4.971
 6186TIP3    H218565   5.588   3.860   4.993
 6187TIP3   OH218566   2.927   2.559   2.471
 6187TIP3    H118567   2.876   2.635   2.497
 6187TIP3    H218568   2.997   2.594   2.416
 6188TIP3   OH218569   5.021   2.501   3.139
 6188TIP3    H118570   5.076   2.506   3.217
 6188TIP3    H218571   4.973   2.584   3.138
 6189TIP3   OH218572   1.100   3.284   1.939
 6189TIP3    H118573   1.004   3.281   1.936
 6189TIP3    H218574   1.122   3.364   1.891
 6190TIP3   OH218575   3.186   5.673   0.998
 6190TIP3    H118576   3.251   5.609   0.970
 6190TIP3    H218577   3.192   5.744   0.934
 6191TIP3   OH218578   0.616   0.621   4.813
 6191TIP3    H118579   0.607   0.606   4.719
 6191TIP3    H218580   0.590   0.712   4.825
 6192TIP3   OH218581   5.083   1.059   0.596
 6192TIP3    H118582   5.025   1.008   0.540
 6192TIP3    H218583   5.144   0.995   0.631
 6193TIP3   OH218584   2.117   4.385   2.798
 6193TIP3    H118585   2.065   4.383   2.718
 6193TIP3    H218586   2.065   4.333   2.861
 6194TIP3   OH218587   1.112   4.555   2.030
 6194TIP3    H118588   1.091   4.639   2.070
 6194TIP3    H218589   1.204   4.561   2.006
 6195TIP3   OH218590   2.166   3.525   0.271
 6195TIP3    H118591   2.089   3.558   0.317
 6195TIP3    H218592   2.136   3.445   0.226
 6196TIP3   OH218593   1.415   2.849   1.645
 6196TIP3    H118594   1.425   2.768   1.695
 6196TIP3    H218595   1.389   2.914   1.710
 6197TIP3   OH218596   4.542   4.688   4.926
 6197TIP3    H118597   4.589   4.760   4.884
 6197TIP3    H218598   4.555   4.701   5.019
 6198TIP3   OH218599   3.667   4.598   2.968
 6198TIP3    H118600   3.630   4.642   3.044
 6198TIP3    H218601   3.761   4.591   2.987
 6199TIP3   OH218602   3.148   4.628   4.916
 6199TIP3    H118603   3.152   4.538   4.885
 6199TIP3    H218604   3.235   4.663   4.901
 6200TIP3   OH218605   6.213   4.977   2.061
 6200TIP3    H118606   6.197   4.968   2.155
 6200TIP3    H218607   6.177   4.897   2.023
 6201TIP3   OH218608   4.216   1.038   4.817
 6201TIP3    H118609   4.136   1.029   4.765
 6201TIP3    H218610   4.283   1.064   4.754
 6202TIP3   OH218611   4.924   1.078   2.423
 6202TIP3    H118612   4.914   1.021   2.498
 6202TIP3    H218613   5.015   1.109   2.429
 6203TIP3   OH218614   4.117   2.530   4.176
 6203TIP3    H118615   4.091   2.452   4.224
 6203TIP3    H218616   4.060   2.599   4.211
 6204TIP3   OH218617   4.432   0.222   2.373
 6204TIP3    H118618   4.496   0.229   2.444
 6204TIP3    H218619   4.485   0.218   2.293
 6205TIP3   OH218620   0.513   4.126   3.041
 6205TIP3    H118621   0.467   4.055   3.086
 6205TIP3    H218622   0.589   4.083   3.001
 6206TIP3   OH218623   4.284   3.935   2.075
 6206TIP3    H118624   4.283   4.027   2.103
 6206TIP3    H218625   4.203   3.924   2.025
 6207TIP3   OH218626   3.583   5.448   1.866
 6207TIP3    H118627   3.590   5.471   1.773
 6207TIP3    H218628   3.638   5.370   1.875
 6208TIP3   OH218629   4.442   0.198   1.467
 6208TIP3    H118630   4.527   0.157   1.483
 6208TIP3    H218631   4.410   0.223   1.554
 6209TIP3   OH218632   2.086   5.228   2.279
 6209TIP3    H118633   2.169   5.214   2.325
 6209TIP3    H218634   2.041   5.143   2.285
 6210TIP3   OH218635   4.032   4.948   1.358
 6210TIP3    H118636   4.105   4.886   1.348
 6210TIP3    H218637   3.955   4.893   1.368
 6211TIP3   OH218638   4.744   0.663   0.624
 6211TIP3    H118639   4.713   0.740   0.672
 6211TIP3    H218640   4.682   0.653   0.552
 6212TIP3   OH218641   3.532   4.337   0.292
 6212TIP3    H118642   3.588   4.338   0.369
 6212TIP3    H218643   3.476   4.260   0.303
 6213TIP3   OH218644   1.378   3.998   4.882
 6213TIP3    H118645   1.366   4.093   4.885
 6213TIP3    H218646   1.452   3.982   4.941
 6214TIP3   OH218647   4.315   0.235   4.575
 6214TIP3    H118648   4.241   0.208   4.519
 6214TIP3    H218649   4.368   0.290   4.518
 6215TIP3   OH218650   0.139   4.170   2.417
 6215TIP3    H118651   0.203   4.106   2.446
 6215TIP3    H218652   0.080   4.121   2.359
 6216TIP3   OH218653   2.712   0.201   3.559
 6216TIP3    H118654   2.652   0.275   3.568
 6216TIP3    H218655   2.792   0.230   3.604
 6217TIP3   OH218656   0.593   3.403   0.574
 6217TIP3    H118657   0.616   3.311   0.568
 6217TIP3    H218658   0.498   3.404   0.583
 6218TIP3   OH218659   4.378   3.807   3.386
 6218TIP3    H118660   4.450   3.854   3.429
 6218TIP3    H218661   4.300   3.837   3.432
 6219TIP3   OH218662   0.792   1.240   0.496
 6219TIP3    H118663   0.887   1.230   0.488
 6219TIP3    H218664   0.780   1.304   0.566
 6220TIP3   OH218665   0.316   5.838   2.367
 6220TIP3    H118666   0.231   5.829   2.412
 6220TIP3    H218667   0.375   5.871   2.435
 6221TIP3   OH218668   1.396   3.876   2.566
 6221TIP3    H118669   1.439   3.897   2.483
 6221TIP3    H218670   1.429   3.789   2.588
 6222TIP3   OH218671   4.247   5.238   0.942
 6222TIP3    H118672   4.230   5.315   0.889
 6222TIP3    H218673   4.321   5.263   0.998
 6223TIP3   OH218674   5.899   5.010   3.304
 6223TIP3    H118675   5.866   4.945   3.243
 6223TIP3    H218676   5.986   4.979   3.328
 6224TIP3   OH218677   0.737   3.070   3.941
 6224TIP3    H118678   0.796   3.090   4.014
 6224TIP3    H218679   0.650   3.069   3.980
 6225TIP3   OH218680   6.262   2.918   0.081
 6225TIP3    H118681   6.213   2.867   0.017
 6225TIP3    H218682   6.321   2.973   0.029
 6226TIP3   OH218683   2.583   3.279   1.846
 6226TIP3    H118684   2.657   3.223   1.872
 6226TIP3    H218685   2.521   3.219   1.804
 6227TIP3   OH218686   1.991   4.975   4.556
 6227TIP3    H118687   2.000   5.026   4.475
 6227TIP3    H218688   1.897   4.956   4.561
 6228TIP3   OH218689   0.672   2.162   1.950
 6228TIP3    H118690   0.621   2.094   1.992
 6228TIP3    H218691   0.630   2.175   1.865
 6229TIP3   OH218692   5.334   1.230   4.315
 6229TIP3    H118693   5.404   1.200   4.373
 6229TIP3    H218694   5.275   1.155   4.308
 6230TIP3   OH218695   5.444   3.337   3.421
 6230TIP3    H118696   5.529   3.347   3.377
 6230TIP3    H218697   5.381   3.373   3.358
 6231TIP3   OH218698   5.066   2.100   1.941
 6231TIP3    H118699   4.995   2.163   1.954
 6231TIP3    H218700   5.146   2.152   1.951
 6232TIP3   OH218701   0.803   4.886   4.226
 6232TIP3    H118702   0.720   4.933   4.231
 6232TIP3    H218703   0.821   4.877   4.133
 6233TIP3   OH218704   0.546   4.989   1.992
 6233TIP3    H118705   0.566   5.003   1.900
 6233TIP3    H218706   0.511   4.900   1.996
 6234TIP3   OH218707   3.360   3.240   3.423
 6234TIP3    H118708   3.367   3.293   3.504
 6234TIP3    H218709   3.278   3.192   3.433
 6235TIP3   OH218710   3.434   3.941   5.048
 6235TIP3    H118711   3.516   3.891   5.041
 6235TIP3    H218712   3.460   4.024   5.088
 6236TIP3   OH218713   3.805   1.685   2.109
 6236TIP3    H118714   3.852   1.759   2.147
 6236TIP3    H218715   3.747   1.723   2.044
 6237TIP3   OH218716   1.393   1.375   4.486
 6237TIP3    H118717   1.365   1.284   4.482
 6237TIP3    H218718   1.488   1.371   4.477
 6238TIP3   OH218719   4.162   1.987   4.815
 6238TIP3    H118720   4.163   1.948   4.728
 6238TIP3    H218721   4.199   1.920   4.872
 6239TIP3   OH218722   1.371   1.427   1.163
 6239TIP3    H118723   1.322   1.458   1.240
 6239TIP3    H218724   1.306   1.382   1.110
 6240TIP3   OH218725   3.697   3.116   0.664
 6240TIP3    H118726   3.779   3.155   0.633
 6240TIP3    H218727   3.668   3.174   0.734
 6241TIP3   OH218728   2.911   3.833   0.128
 6241TIP3    H118729   2.846   3.901   0.143
 6241TIP3    H218730   2.893   3.801   0.040
 6242TIP3   OH218731   2.478   5.343   1.707
 6242TIP3    H118732   2.451   5.331   1.616
 6242TIP3    H218733   2.572   5.362   1.702
 6243TIP3   OH218734   3.688   3.364   1.745
 6243TIP3    H118735   3.753   3.318   1.799
 6243TIP3    H218736   3.688   3.316   1.662
 6244TIP3   OH218737   3.238   1.393   3.087
 6244TIP3    H118738   3.190   1.362   3.010
 6244TIP3    H218739   3.187   1.468   3.118
 6245TIP3   OH218740   3.435   4.256   2.000
 6245TIP3    H118741   3.459   4.200   1.926
 6245TIP3    H218742   3.515   4.261   2.053
 6246TIP3   OH218743   5.148   0.127   1.120
 6246TIP3    H118744   5.136   0.041   1.161
 6246TIP3    H218745   5.068   0.141   1.069
 6247TIP3   OH218746   0.807   1.912   1.023
 6247TIP3    H118747   0.778   2.003   1.018
 6247TIP3    H218748   0.731   1.864   1.057
 6248TIP3   OH218749   3.111   1.721   1.109
 6248TIP3    H118750   3.190   1.686   1.068
 6248TIP3    H218751   3.046   1.725   1.038
 6249TIP3   OH218752   5.675   4.474   4.466
 6249TIP3    H118753   5.696   4.550   4.411
 6249TIP3    H218754   5.691   4.504   4.556
 6250TIP3   OH218755   2.131   3.088   2.246
 6250TIP3    H118756   2.134   3.047   2.159
 6250TIP3    H218757   2.096   3.020   2.303
 6251TIP3   OH218758   1.667   5.587   4.929
 6251TIP3    H118759   1.759   5.612   4.919
 6251TIP3    H218760   1.667   5.493   4.914
 6252TIP3   OH218761   1.374   5.677   4.159
 6252TIP3    H118762   1.318   5.720   4.224
 6252TIP3    H218763   1.460   5.717   4.171
 6253TIP3   OH218764   2.061   0.547   4.528
 6253TIP3    H118765   1.970   0.570   4.512
 6253TIP3    H218766   2.061   0.452   4.540
 6254TIP3   OH218767   2.993   3.607   2.764
 6254TIP3    H118768   3.043   3.676   2.808
 6254TIP3    H218769   2.902   3.627   2.784
 6255TIP3   OH218770   1.926   0.149   2.421
 6255TIP3    H118771   1.915   0.244   2.412
 6255TIP3    H218772   1.842   0.119   2.456
 6256TIP3   OH218773   5.353   0.521   4.205
 6256TIP3    H118774   5.426   0.513   4.266
 6256TIP3    H218775   5.383   0.585   4.140
 6257TIP3   OH218776   4.761   1.174   2.857
 6257TIP3    H118777   4.724   1.090   2.828
 6257TIP3    H218778   4.783   1.220   2.775
 6258TIP3   OH218779   4.705   0.604   0.029
 6258TIP3    H118780   4.742   0.619   0.116
 6258TIP3    H218781   4.693   0.510   0.023
 6259TIP3   OH218782   3.454   2.513   4.687
 6259TIP3    H118783   3.398   2.493   4.762
 6259TIP3    H218784   3.413   2.590   4.647
 6260TIP3   OH218785   4.562   3.520   0.740
 6260TIP3    H118786   4.657   3.518   0.756
 6260TIP3    H218787   4.535   3.608   0.765
 6261TIP3   OH218788   4.386   1.386   2.294
 6261TIP3    H118789   4.429   1.345   2.218
 6261TIP3    H218790   4.294   1.394   2.269
 6262TIP3   OH218791   5.278   0.558   4.580
 6262TIP3    H118792   5.321   0.641   4.557
 6262TIP3    H218793   5.294   0.549   4.674
 6263TIP3   OH218794   5.759   4.933   4.452
 6263TIP3    H118795   5.817   4.997   4.493
 6263TIP3    H218796   5.701   4.986   4.397
 6264TIP3   OH218797   1.926   3.063   3.972
 6264TIP3    H118798   1.843   3.107   3.948
 6264TIP3    H218799   1.981   3.134   4.004
 6265TIP3   OH218800   0.499   3.614   2.731
 6265TIP3    H118801   0.420   3.668   2.728
 6265TIP3    H218802   0.570   3.677   2.744
 6266TIP3   OH218803   5.298   2.582   0.804
 6266TIP3    H118804   5.237   2.541   0.865
 6266TIP3    H218805   5.333   2.509   0.753
 6267TIP3   OH218806   2.583   4.704   1.825
 6267TIP3    H118807   2.534   4.699   1.906
 6267TIP3    H218808   2.524   4.669   1.758
 6268TIP3   OH218809   0.985   5.394   3.019
 6268TIP3    H118810   1.032   5.442   2.952
 6268TIP3    H218811   1.055   5.356   3.074
 6269TIP3   OH218812   3.358   2.318   4.428
 6269TIP3    H118813   3.309   2.397   4.406
 6269TIP3    H218814   3.332   2.299   4.518
 6270TIP3   OH218815   2.218   4.813   2.184
 6270TIP3    H118816   2.167   4.735   2.206
 6270TIP3    H218817   2.240   4.853   2.268
 6271TIP3   OH218818   5.616   0.394   1.152
 6271TIP3    H118819   5.534   0.438   1.174
 6271TIP3    H218820   5.646   0.437   1.072
 6272TIP3   OH218821   3.397   4.484   3.937
 6272TIP3    H118822   3.463   4.472   3.868
 6272TIP3    H218823   3.429   4.559   3.988
 6273TIP3   OH218824   5.060   2.371   1.805
 6273TIP3    H118825   5.150   2.344   1.827
 6273TIP3    H218826   5.072   2.447   1.748
 6274TIP3   OH218827   2.568   2.177   1.129
 6274TIP3    H118828   2.488   2.209   1.172
 6274TIP3    H218829   2.639   2.205   1.187
 6275TIP3   OH218830   6.238   3.740   2.555
 6275TIP3    H118831   6.320   3.715   2.597
 6275TIP3    H218832   6.253   3.725   2.461
 6276TIP3   OH218833   0.088   3.460   3.940
 6276TIP3    H118834   0.129   3.376   3.961
 6276TIP3    H218835   0.082   3.460   3.844
 6277TIP3   OH218836   0.463   5.330   4.537
 6277TIP3    H118837   0.426   5.371   4.459
 6277TIP3    H218838   0.551   5.367   4.543
 6278TIP3   OH218839   3.253   2.298   2.622
 6278TIP3    H118840   3.184   2.259   2.568
 6278TIP3    H218841   3.334   2.273   2.577
 6279TIP3   OH218842   1.606   1.256   2.467
 6279TIP3    H118843   1.573   1.218   2.548
 6279TIP3    H218844   1.529   1.292   2.424
 6280TIP3   OH218845   3.680   4.313   4.571
 6280TIP3    H118846   3.633   4.387   4.612
 6280TIP3    H218847   3.671   4.329   4.477
 6281TIP3   OH218848   2.894   5.446   4.050
 6281TIP3    H118849   2.835   5.520   4.062
 6281TIP3    H218850   2.968   5.482   4.001
 6282TIP3   OH218851   4.774   0.589   1.575
 6282TIP3    H118852   4.837   0.519   1.560
 6282TIP3    H218853   4.802   0.659   1.516
 6283TIP3   OH218854   3.527   1.195   1.536
 6283TIP3    H118855   3.546   1.185   1.629
 6283TIP3    H218856   3.538   1.288   1.518
 6284TIP3   OH218857   3.564   1.614   0.552
 6284TIP3    H118858   3.541   1.541   0.494
 6284TIP3    H218859   3.637   1.581   0.604
 6285TIP3   OH218860   3.390   5.755   2.504
 6285TIP3    H118861   3.296   5.761   2.518
 6285TIP3    H218862   3.401   5.751   2.409
 6286TIP3   OH218863   4.008   3.708   2.462
 6286TIP3    H118864   4.014   3.759   2.543
 6286TIP3    H218865   3.971   3.768   2.398
 6287TIP3   OH218866   4.953   4.428   3.242
 6287TIP3    H118867   4.991   4.347   3.208
 6287TIP3    H218868   4.917   4.404   3.327
 6288TIP3   OH218869   1.935   2.695   0.655
 6288TIP3    H118870   1.876   2.717   0.583
 6288TIP3    H218871   2.005   2.760   0.650
 6289TIP3   OH218872   6.258   3.740   3.428
 6289TIP3    H118873   6.163   3.729   3.423
 6289TIP3    H218874   6.293   3.671   3.372
 6290TIP3   OH218875   2.228   1.647   1.898
 6290TIP3    H118876   2.155   1.688   1.851
 6290TIP3    H218877   2.296   1.714   1.898
 6291TIP3   OH218878   0.358   5.001   3.390
 6291TIP3    H118879   0.385   4.985   3.299
 6291TIP3    H218880   0.312   5.084   3.387
 6292TIP3   OH218881   3.684   1.960   2.606
 6292TIP3    H118882   3.674   2.023   2.534
 6292TIP3    H218883   3.778   1.944   2.612
 6293TIP3   OH218884   3.907   2.512   4.888
 6293TIP3    H118885   3.991   2.526   4.931
 6293TIP3    H218886   3.928   2.459   4.811
 6294TIP3   OH218887   3.816   5.722   0.488
 6294TIP3    H118888   3.867   5.709   0.409
 6294TIP3    H218889   3.858   5.667   0.554
 6295TIP3   OH218890   2.620   2.776   3.696
 6295TIP3    H118891   2.650   2.717   3.765
 6295TIP3    H218892   2.689   2.773   3.630
 6296TIP3   OH218893   4.878   0.041   0.638
 6296TIP3    H118894   4.847   0.008   0.723
 6296TIP3    H218895   4.837   0.127   0.629
 6297TIP3   OH218896   4.188   1.705   4.957
 6297TIP3    H118897   4.195   1.681   4.864
 6297TIP3    H218898   4.277   1.697   4.990
 6298TIP3   OH218899   1.163   3.914   3.962
 6298TIP3    H118900   1.184   4.003   3.934
 6298TIP3    H218901   1.104   3.925   4.036
 6299TIP3   OH218902   1.446   2.933   2.709
 6299TIP3    H118903   1.432   2.999   2.641
 6299TIP3    H218904   1.363   2.929   2.756
 6300TIP3   OH218905   3.525   3.866   0.144
 6300TIP3    H118906   3.570   3.949   0.159
 6300TIP3    H218907   3.576   3.823   0.075
 6301TIP3   OH218908   0.743   1.881   0.390
 6301TIP3    H118909   0.656   1.841   0.384
 6301TIP3    H218910   0.802   1.807   0.405
 6302TIP3   OH218911   1.429   1.562   4.840
 6302TIP3    H118912   1.376   1.526   4.910
 6302TIP3    H218913   1.455   1.649   4.871
 6303TIP3   OH218914   4.844   2.031   0.352
 6303TIP3    H118915   4.865   2.100   0.289
 6303TIP3    H218916   4.912   1.965   0.341
 6304TIP3   OH218917   2.900   0.893   3.201
 6304TIP3    H118918   2.820   0.842   3.216
 6304TIP3    H218919   2.971   0.833   3.223
 6305TIP3   OH218920   1.461   3.096   0.312
 6305TIP3    H118921   1.433   3.018   0.361
 6305TIP3    H218922   1.485   3.159   0.380
 6306TIP3   OH218923   5.064   5.182   0.583
 6306TIP3    H118924   5.121   5.110   0.609
 6306TIP3    H218925   5.035   5.221   0.666
 6307TIP3   OH218926   5.316   5.200   3.060
 6307TIP3    H118927   5.379   5.258   3.017
 6307TIP3    H218928   5.252   5.260   3.099
 6308TIP3   OH218929   5.326   3.801   2.963
 6308TIP3    H118930   5.351   3.862   3.033
 6308TIP3    H218931   5.328   3.854   2.883
 6309TIP3   OH218932   2.097   1.478   0.243
 6309TIP3    H118933   2.165   1.462   0.178
 6309TIP3    H218934   2.106   1.406   0.305
 6310TIP3   OH218935   4.364   5.529   3.588
 6310TIP3    H118936   4.370   5.493   3.677
 6310TIP3    H218937   4.359   5.452   3.532
 6311TIP3   OH218938   0.683   5.312   3.080
 6311TIP3    H118939   0.759   5.326   3.024
 6311TIP3    H218940   0.698   5.227   3.122
 6312TIP3   OH218941   3.222   0.489   3.059
 6312TIP3    H118942   3.137   0.532   3.068
 6312TIP3    H218943   3.237   0.446   3.143
 6313TIP3   OH218944   1.189   5.220   1.372
 6313TIP3    H118945   1.177   5.306   1.413
 6313TIP3    H218946   1.284   5.208   1.369
 6314TIP3   OH218947   2.297   1.583   4.190
 6314TIP3    H118948   2.258   1.507   4.147
 6314TIP3    H218949   2.225   1.623   4.238
 6315TIP3   OH218950   5.303   3.368   3.070
 6315TIP3    H118951   5.377   3.427   3.083
 6315TIP3    H218952   5.274   3.387   2.980
 6316TIP3   OH218953   3.148   1.063   3.894
 6316TIP3    H118954   3.174   1.091   3.982
 6316TIP3    H218955   3.091   1.133   3.863
 6317TIP3   OH218956   0.387   3.474   4.126
 6317TIP3    H118957   0.434   3.548   4.088
 6317TIP3    H218958   0.323   3.450   4.058
 6318TIP3   OH218959   2.338   3.813   3.223
 6318TIP3    H118960   2.327   3.731   3.272
 6318TIP3    H218961   2.401   3.792   3.154
 6319TIP3   OH218962   2.091   5.420   3.586
 6319TIP3    H118963   2.025   5.353   3.605
 6319TIP3    H218964   2.173   5.381   3.616
 6320TIP3   OH218965   3.794   0.269   0.658
 6320TIP3    H118966   3.714   0.315   0.682
 6320TIP3    H218967   3.805   0.203   0.726
 6321TIP3   OH218968   0.371   1.323   4.022
 6321TIP3    H118969   0.340   1.396   3.968
 6321TIP3    H218970   0.290   1.284   4.057
 6322TIP3   OH218971   4.291   4.386   0.885
 6322TIP3    H118972   4.332   4.329   0.821
 6322TIP3    H218973   4.351   4.460   0.893
 6323TIP3   OH218974   1.852   0.733   2.263
 6323TIP3    H118975   1.839   0.765   2.353
 6323TIP3    H218976   1.792   0.786   2.210
 6324TIP3   OH218977   1.626   4.074   2.442
 6324TIP3    H118978   1.650   4.063   2.534
 6324TIP3    H218979   1.647   3.989   2.402
 6325TIP3   OH218980   1.745   2.452   0.285
 6325TIP3    H118981   1.830   2.409   0.290
 6325TIP3    H218982   1.686   2.396   0.336
 6326TIP3   OH218983   4.339   3.381   4.186
 6326TIP3    H118984   4.267   3.439   4.210
 6326TIP3    H218985   4.384   3.363   4.268
 6327TIP3   OH218986   2.732   1.784   3.008
 6327TIP3    H118987   2.668   1.848   2.978
 6327TIP3    H218988   2.733   1.792   3.103
 6328TIP3   OH218989   4.694   5.643   0.391
 6328TIP3    H118990   4.671   5.736   0.388
 6328TIP3    H218991   4.790   5.643   0.386
 6329TIP3   OH218992   2.360   1.468   3.899
 6329TIP3    H118993   2.389   1.425   3.980
 6329TIP3    H218994   2.441   1.482   3.849
 6330TIP3   OH218995   2.427   4.414   1.791
 6330TIP3    H118996   2.500   4.414   1.729
 6330TIP3    H218997   2.382   4.498   1.775
 6331TIP3   OH218998   1.226   2.053   2.565
 6331TIP3    H118999   1.157   1.990   2.544
 6331TIP3    H219000   1.300   2.028   2.510
 6332TIP3   OH219001   1.764   1.928   0.523
 6332TIP3    H119002   1.784   1.942   0.616
 6332TIP3    H219003   1.806   1.844   0.503
 6333TIP3   OH219004   4.527   0.769   0.445
 6333TIP3    H119005   4.501   0.855   0.476
 6333TIP3    H219006   4.444   0.723   0.428
 6334TIP3   OH219007   3.190   4.288   1.226
 6334TIP3    H119008   3.271   4.321   1.188
 6334TIP3    H219009   3.123   4.351   1.199
 6335TIP3   OH219010   1.940   2.237   4.529
 6335TIP3    H119011   1.977   2.253   4.616
 6335TIP3    H219012   1.886   2.315   4.512
 6336TIP3   OH219013   5.173   4.321   0.047
 6336TIP3    H119014   5.182   4.382   0.120
 6336TIP3    H219015   5.087   4.340   0.010
 6337TIP3   OH219016   1.536   2.284   3.293
 6337TIP3    H119017   1.511   2.306   3.204
 6337TIP3    H219018   1.495   2.351   3.347
 6338TIP3   OH219019   2.246   0.163   2.951
 6338TIP3    H119020   2.329   0.207   2.971
 6338TIP3    H219021   2.216   0.204   2.870
 6339TIP3   OH219022   1.590   2.729   0.609
 6339TIP3    H119023   1.628   2.656   0.659
 6339TIP3    H219024   1.595   2.804   0.668
 6340TIP3   OH219025   4.722   5.298   0.416
 6340TIP3    H119026   4.713   5.206   0.441
 6340TIP3    H219027   4.633   5.333   0.425
 6341TIP3   OH219028   6.157   4.262   4.208
 6341TIP3    H119029   6.091   4.270   4.139
 6341TIP3    H219030   6.106   4.248   4.288
 6342TIP3   OH219031   5.158   5.211   1.213
 6342TIP3    H119032   5.147   5.165   1.130
 6342TIP3    H219033   5.218   5.156   1.264
 6343TIP3   OH219034   3.070   0.088   2.014
 6343TIP3    H119035   3.013   0.132   1.951
 6343TIP3    H219036   3.010   0.052   2.079
 6344TIP3   OH219037   5.068   3.710   1.152
 6344TIP3    H119038   5.133   3.662   1.203
 6344TIP3    H219039   5.001   3.644   1.132
 6345TIP3   OH219040   4.263   2.258   1.473
 6345TIP3    H119041   4.315   2.187   1.512
 6345TIP3    H219042   4.245   2.228   1.384
 6346TIP3   OH219043   0.812   0.143   3.352
 6346TIP3    H119044   0.786   0.231   3.379
 6346TIP3    H219045   0.805   0.090   3.432
 6347TIP3   OH219046   6.269   0.922   1.702
 6347TIP3    H119047   6.187   0.962   1.731
 6347TIP3    H219048   6.244   0.835   1.672
 6348TIP3   OH219049   2.741   0.572   1.755
 6348TIP3    H119050   2.780   0.656   1.779
 6348TIP3    H219051   2.691   0.545   1.833
 6349TIP3   OH219052   5.957   4.957   4.883
 6349TIP3    H119053   5.957   4.981   4.975
 6349TIP3    H219054   6.043   4.917   4.868
 6350TIP3   OH219055   3.496   0.632   4.833
 6350TIP3    H119056   3.527   0.542   4.840
 6350TIP3    H219057   3.494   0.651   4.739
 6351TIP3   OH219058   3.336   2.575   2.239
 6351TIP3    H119059   3.284   2.495   2.234
 6351TIP3    H219060   3.272   2.645   2.253
 6352TIP3   OH219061   1.063   1.281   3.044
 6352TIP3    H119062   1.087   1.283   2.951
 6352TIP3    H219063   1.140   1.247   3.088
 6353TIP3   OH219064   4.007   3.259   3.370
 6353TIP3    H119065   4.007   3.220   3.458
 6353TIP3    H219066   3.966   3.192   3.315
 6354TIP3   OH219067   1.185   0.277   2.963
 6354TIP3    H119068   1.244   0.208   2.931
 6354TIP3    H219069   1.198   0.278   3.057
 6355TIP3   OH219070   0.428   1.779   1.571
 6355TIP3    H119071   0.337   1.752   1.566
 6355TIP3    H219072   0.470   1.737   1.497
 6356TIP3   OH219073   2.055   2.947   2.015
 6356TIP3    H119074   2.019   2.859   2.003
 6356TIP3    H219075   2.077   2.976   1.926
 6357TIP3   OH219076   5.600   2.305   0.979
 6357TIP3    H119077   5.508   2.278   0.983
 6357TIP3    H219078   5.603   2.389   1.025
 6358TIP3   OH219079   3.716   4.093   4.745
 6358TIP3    H119080   3.645   4.121   4.803
 6358TIP3    H219081   3.717   4.157   4.674
 6359TIP3   OH219082   2.420   0.846   1.184
 6359TIP3    H119083   2.455   0.894   1.259
 6359TIP3    H219084   2.456   0.758   1.192
 6360TIP3   OH219085   2.856   0.521   2.861
 6360TIP3    H119086   2.836   0.429   2.847
 6360TIP3    H219087   2.794   0.568   2.806
 6361TIP3   OH219088   6.292   3.112   0.843
 6361TIP3    H119089   6.309   3.038   0.901
 6361TIP3    H219090   6.374   3.122   0.793
 6362TIP3   OH219091   2.573   4.673   4.945
 6362TIP3    H119092   2.632   4.682   4.870
 6362TIP3    H219093   2.550   4.580   4.945
 6363TIP3   OH219094   1.339   1.052   0.348
 6363TIP3    H119095   1.363   0.995   0.421
 6363TIP3    H219096   1.308   0.992   0.280
 6364TIP3   OH219097   3.125   4.392   4.391
 6364TIP3    H119098   3.217   4.413   4.409
 6364TIP3    H219099   3.113   4.419   4.299
 6365TIP3   OH219100   2.053   2.101   0.137
 6365TIP3    H119101   2.061   2.193   0.110
 6365TIP3    H219102   1.977   2.100   0.195
 6366TIP3   OH219103   2.370   1.451   2.348
 6366TIP3    H119104   2.337   1.536   2.319
 6366TIP3    H219105   2.442   1.472   2.407
 6367TIP3   OH219106   6.155   3.883   4.024
 6367TIP3    H119107   6.213   3.877   4.100
 6367TIP3    H219108   6.202   3.838   3.954
 6368TIP3   OH219109   4.797   4.798   4.377
 6368TIP3    H119110   4.890   4.821   4.374
 6368TIP3    H219111   4.763   4.827   4.292
 6369TIP3   OH219112   4.105   4.527   2.531
 6369TIP3    H119113   4.115   4.583   2.607
 6369TIP3    H219114   4.152   4.447   2.553
 6370TIP3   OH219115   1.515   5.559   4.519
 6370TIP3    H119116   1.449   5.574   4.587
 6370TIP3    H219117   1.577   5.632   4.530
 6371TIP3   OH219118   1.724   0.805   0.459
 6371TIP3    H119119   1.629   0.793   0.448
 6371TIP3    H219120   1.761   0.719   0.440
 6372TIP3   OH219121   0.373   3.430   3.844
 6372TIP3    H119122   0.356   3.355   3.787
 6372TIP3    H219123   0.390   3.502   3.784
 6373TIP3   OH219124   2.411   0.202   1.009
 6373TIP3    H119125   2.478   0.219   0.943
 6373TIP3    H219126   2.373   0.117   0.984
 6374TIP3   OH219127   3.075   4.525   4.170
 6374TIP3    H119128   3.073   4.491   4.081
 6374TIP3    H219129   3.127   4.605   4.164
 6375TIP3   OH219130   1.060   0.273   1.889
 6375TIP3    H119131   0.973   0.311   1.898
 6375TIP3    H219132   1.057   0.224   1.807
 6376TIP3   OH219133   2.751   3.284   4.454
 6376TIP3    H119134   2.804   3.226   4.399
 6376TIP3    H219135   2.785   3.372   4.436
 6377TIP3   OH219136   0.588   3.798   3.322
 6377TIP3    H119137   0.656   3.844   3.371
 6377TIP3    H219138   0.635   3.728   3.276
 6378TIP3   OH219139   1.677   1.094   4.734
 6378TIP3    H119140   1.689   1.166   4.796
 6378TIP3    H219141   1.591   1.057   4.757
 6379TIP3   OH219142   2.577   3.626   1.321
 6379TIP3    H119143   2.638   3.621   1.394
 6379TIP3    H219144   2.613   3.566   1.255
 6380TIP3   OH219145   0.347   4.629   1.083
 6380TIP3    H119146   0.337   4.534   1.080
 6380TIP3    H219147   0.258   4.664   1.078
 6381TIP3   OH219148   5.701   4.713   1.811
 6381TIP3    H119149   5.779   4.749   1.769
 6381TIP3    H219150   5.634   4.716   1.743
 6382TIP3   OH219151   5.949   3.712   4.701
 6382TIP3    H119152   5.998   3.653   4.643
 6382TIP3    H219153   5.862   3.717   4.662
 6383TIP3   OH219154   1.526   4.937   1.897
 6383TIP3    H119155   1.489   5.021   1.926
 6383TIP3    H219156   1.620   4.945   1.913
 6384TIP3   OH219157   1.759   0.917   3.187
 6384TIP3    H119158   1.739   1.010   3.198
 6384TIP3    H219159   1.844   0.906   3.230
 6385TIP3   OH219160   6.207   1.062   3.931
 6385TIP3    H119161   6.193   1.002   3.858
 6385TIP3    H219162   6.142   1.034   3.997
 6386TIP3   OH219163   1.899   4.174   3.411
 6386TIP3    H119164   1.945   4.196   3.330
 6386TIP3    H219165   1.834   4.110   3.385
 6387TIP3   OH219166   5.206   3.147   4.642
 6387TIP3    H119167   5.193   3.062   4.601
 6387TIP3    H219168   5.297   3.145   4.671
 6388TIP3   OH219169   6.358   5.434   2.104
 6388TIP3    H119170   6.398   5.351   2.131
 6388TIP3    H219171   6.389   5.448   2.015
 6389TIP3   OH219172   4.935   0.380   1.485
 6389TIP3    H119173   4.908   0.288   1.479
 6389TIP3    H219174   5.029   0.376   1.502
 6390TIP3   OH219175   4.855   3.325   5.021
 6390TIP3    H119176   4.862   3.382   4.944
 6390TIP3    H219177   4.942   3.284   5.028
 6391TIP3   OH219178   3.590   4.689   2.663
 6391TIP3    H119179   3.656   4.643   2.612
 6391TIP3    H219180   3.509   4.680   2.613
 6392TIP3   OH219181   4.366   0.676   2.571
 6392TIP3    H119182   4.337   0.700   2.483
 6392TIP3    H219183   4.318   0.595   2.590
 6393TIP3   OH219184   5.471   4.260   3.211
 6393TIP3    H119185   5.537   4.228   3.272
 6393TIP3    H219186   5.521   4.292   3.136
 6394TIP3   OH219187   2.163   4.038   3.861
 6394TIP3    H119188   2.172   4.104   3.792
 6394TIP3    H219189   2.251   3.999   3.867
 6395TIP3   OH219190   0.908   4.378   2.492
 6395TIP3    H119191   0.844   4.447   2.473
 6395TIP3    H219192   0.943   4.355   2.406
 6396TIP3   OH219193   5.275   3.513   2.499
 6396TIP3    H119194   5.327   3.479   2.426
 6396TIP3    H219195   5.337   3.563   2.552
 6397TIP3   OH219196   4.939   5.088   0.257
 6397TIP3    H119197   4.929   5.179   0.229
 6397TIP3    H219198   4.963   5.094   0.349
 6398TIP3   OH219199   3.536   3.742   4.006
 6398TIP3    H119200   3.484   3.765   3.930
 6398TIP3    H219201   3.575   3.825   4.034
 6399TIP3   OH219202   0.906   5.292   0.176
 6399TIP3    H119203   0.812   5.304   0.191
 6399TIP3    H219204   0.938   5.379   0.154
 6400TIP3   OH219205   2.759   4.843   2.404
 6400TIP3    H119206   2.839   4.861   2.354
 6400TIP3    H219207   2.786   4.851   2.496
 6401TIP3   OH219208   0.996   0.894   2.083
 6401TIP3    H119209   1.066   0.851   2.133
 6401TIP3    H219210   0.948   0.821   2.042
 6402TIP3   OH219211   4.170   3.592   4.263
 6402TIP3    H119212   4.187   3.663   4.201
 6402TIP3    H219213   4.174   3.635   4.349
 6403TIP3   OH219214   6.001   1.011   1.643
 6403TIP3    H119215   5.926   0.956   1.621
 6403TIP3    H219216   5.976   1.098   1.612
 6404TIP3   OH219217   4.850   4.953   0.890
 6404TIP3    H119218   4.828   5.031   0.940
 6404TIP3    H219219   4.946   4.948   0.894
 6405TIP3   OH219220   1.112   3.916   3.509
 6405TIP3    H119221   1.035   3.915   3.566
 6405TIP3    H219222   1.161   3.837   3.532
 6406TIP3   OH219223   5.912   4.276   2.516
 6406TIP3    H119224   5.847   4.259   2.448
 6406TIP3    H219225   5.908   4.199   2.573
 6407TIP3   OH219226   4.951   1.354   4.298
 6407TIP3    H119227   4.977   1.446   4.289
 6407TIP3    H219228   4.900   1.350   4.379
 6408TIP3   OH219229   2.841   2.651   0.191
 6408TIP3    H119230   2.849   2.684   0.101
 6408TIP3    H219231   2.908   2.700   0.240
 6409TIP3   OH219232   1.041   5.787   4.873
 6409TIP3    H119233   1.124   5.821   4.841
 6409TIP3    H219234   1.025   5.835   4.954
 6410TIP3   OH219235   2.743   5.740   1.767
 6410TIP3    H119236   2.653   5.756   1.738
 6410TIP3    H219237   2.742   5.648   1.794
 6411TIP3   OH219238   6.178   0.764   3.995
 6411TIP3    H119239   6.258   0.816   4.004
 6411TIP3    H219240   6.186   0.695   4.061
 6412TIP3   OH219241   1.895   3.091   0.658
 6412TIP3    H119242   1.967   3.073   0.718
 6412TIP3    H219243   1.846   3.162   0.700
 6413TIP3   OH219244   1.893   2.262   1.981
 6413TIP3    H119245   1.953   2.333   2.005
 6413TIP3    H219246   1.824   2.304   1.930
 6414TIP3   OH219247   0.422   1.644   0.467
 6414TIP3    H119248   0.515   1.653   0.487
 6414TIP3    H219249   0.407   1.550   0.468
 6415TIP3   OH219250   3.261   5.803   3.930
 6415TIP3    H119251   3.284   5.894   3.948
 6415TIP3    H219252   3.213   5.806   3.847
 6416TIP3   OH219253   4.070   3.366   1.926
 6416TIP3    H119254   4.122   3.322   1.993
 6416TIP3    H219255   4.122   3.441   1.899
 6417TIP3   OH219256   1.338   2.497   3.696
 6417TIP3    H119257   1.278   2.551   3.747
 6417TIP3    H219258   1.374   2.434   3.759
 6418TIP3   OH219259   3.912   3.375   3.801
 6418TIP3    H119260   4.004   3.348   3.806
 6418TIP3    H219261   3.915   3.470   3.816
 6419TIP3   OH219262   4.530   4.891   1.841
 6419TIP3    H119263   4.592   4.898   1.914
 6419TIP3    H219264   4.472   4.967   1.851
 6420TIP3   OH219265   3.795   4.046   1.032
 6420TIP3    H119266   3.868   4.101   1.004
 6420TIP3    H219267   3.816   3.959   0.999
 6421TIP3   OH219268   2.596   3.897   1.365
 6421TIP3    H119269   2.562   3.812   1.336
 6421TIP3    H219270   2.645   3.877   1.445
 6422TIP3   OH219271   1.245   0.107   3.436
 6422TIP3    H119272   1.243   0.090   3.342
 6422TIP3    H219273   1.338   0.106   3.459
 6423TIP3   OH219274   0.372   4.912   1.618
 6423TIP3    H119275   0.362   4.817   1.621
 6423TIP3    H219276   0.458   4.926   1.578
 6424TIP3   OH219277   2.040   2.300   1.114
 6424TIP3    H119278   1.979   2.236   1.151
 6424TIP3    H219279   2.032   2.288   1.019
 6425TIP3   OH219280   0.306   4.677   4.343
 6425TIP3    H119281   0.234   4.617   4.366
 6425TIP3    H219282   0.383   4.621   4.339
 6426TIP3   OH219283   3.646   3.245   2.229
 6426TIP3    H119284   3.722   3.302   2.217
 6426TIP3    H219285   3.660   3.204   2.314
 6427TIP3   OH219286   5.485   0.869   3.215
 6427TIP3    H119287   5.519   0.943   3.265
 6427TIP3    H219288   5.428   0.823   3.277
 6428TIP3   OH219289   2.964   2.243   2.823
 6428TIP3    H119290   2.931   2.318   2.773
 6428TIP3    H219291   2.923   2.167   2.782
 6429TIP3   OH219292   3.348   2.093   1.671
 6429TIP3    H119293   3.335   1.998   1.671
 6429TIP3    H219294   3.260   2.129   1.656
 6430TIP3   OH219295   2.469   5.278   2.295
 6430TIP3    H119296   2.534   5.214   2.322
 6430TIP3    H219297   2.418   5.295   2.374
 6431TIP3   OH219298   5.318   3.212   4.983
 6431TIP3    H119299   5.382   3.209   5.054
 6431TIP3    H219300   5.341   3.291   4.934
 6432TIP3   OH219301   2.260   5.342   4.043
 6432TIP3    H119302   2.331   5.367   3.983
 6432TIP3    H219303   2.210   5.423   4.055
 6433TIP3   OH219304   4.047   2.199   1.826
 6433TIP3    H119305   4.124   2.144   1.819
 6433TIP3    H219306   4.068   2.262   1.896
 6434TIP3   OH219307   3.995   3.487   2.880
 6434TIP3    H119308   4.077   3.453   2.914
 6434TIP3    H219309   3.980   3.440   2.798
 6435TIP3   OH219310   3.334   3.166   0.556
 6435TIP3    H119311   3.350   3.176   0.462
 6435TIP3    H219312   3.347   3.072   0.573
 6436TIP3   OH219313   5.976   4.880   1.259
 6436TIP3    H119314   5.944   4.790   1.256
 6436TIP3    H219315   6.038   4.882   1.332
 6437TIP3   OH219316   2.623   0.545   1.012
 6437TIP3    H119317   2.658   0.534   0.924
 6437TIP3    H219318   2.622   0.456   1.049
 6438TIP3   OH219319   2.669   1.862   3.294
 6438TIP3    H119320   2.586   1.883   3.250
 6438TIP3    H219321   2.642   1.830   3.381
 6439TIP3   OH219322   0.363   4.253   2.008
 6439TIP3    H119323   0.406   4.222   2.088
 6439TIP3    H219324   0.276   4.280   2.037
 6440TIP3   OH219325   3.124   0.625   0.422
 6440TIP3    H119326   3.030   0.613   0.407
 6440TIP3    H219327   3.162   0.622   0.334
 6441TIP3   OH219328   1.988   2.953   2.609
 6441TIP3    H119329   1.905   2.999   2.621
 6441TIP3    H219330   2.049   2.999   2.667
 6442TIP3   OH219331   5.345   2.349   1.315
 6442TIP3    H119332   5.337   2.442   1.336
 6442TIP3    H219333   5.430   2.341   1.273
 6443TIP3   OH219334   2.954   3.533   3.757
 6443TIP3    H119335   3.020   3.578   3.704
 6443TIP3    H219336   2.994   3.525   3.843
 6444TIP3   OH219337   0.496   1.015   1.137
 6444TIP3    H119338   0.430   1.061   1.188
 6444TIP3    H219339   0.553   0.974   1.202
 6445TIP3   OH219340   0.520   3.954   0.773
 6445TIP3    H119341   0.554   3.958   0.684
 6445TIP3    H219342   0.434   3.996   0.769
 6446TIP3   OH219343   2.113   2.068   0.689
 6446TIP3    H119344   2.043   2.081   0.753
 6446TIP3    H219345   2.177   2.014   0.735
 6447TIP3   OH219346   0.242   3.837   0.241
 6447TIP3    H119347   0.176   3.782   0.199
 6447TIP3    H219348   0.302   3.776   0.283
 6448TIP3   OH219349   4.258   0.418   5.107
 6448TIP3    H119350   4.319   0.352   5.073
 6448TIP3    H219351   4.177   0.402   5.059
 6449TIP3   OH219352   3.126   4.243   3.310
 6449TIP3    H119353   3.104   4.317   3.253
 6449TIP3    H219354   3.220   4.230   3.298
 6450TIP3   OH219355   4.996   1.936   4.738
 6450TIP3    H119356   4.918   1.894   4.774
 6450TIP3    H219357   5.036   1.981   4.812
 6451TIP3   OH219358   1.726   0.564   0.736
 6451TIP3    H119359   1.772   0.647   0.745
 6451TIP3    H219360   1.736   0.522   0.821
 6452TIP3   OH219361   4.612   5.800   3.809
 6452TIP3    H119362   4.657   5.717   3.823
 6452TIP3    H219363   4.618   5.816   3.715
 6453TIP3   OH219364   5.573   2.385   5.093
 6453TIP3    H119365   5.604   2.439   5.165
 6453TIP3    H219366   5.642   2.320   5.080
 6454TIP3   OH219367   1.309   2.646   4.614
 6454TIP3    H119368   1.333   2.660   4.705
 6454TIP3    H219369   1.300   2.734   4.578
 6455TIP3   OH219370   6.139   2.779   0.573
 6455TIP3    H119371   6.171   2.793   0.484
 6455TIP3    H219372   6.114   2.687   0.575
 6456TIP3   OH219373   5.349   5.832   1.156
 6456TIP3    H119374   5.324   5.776   1.229
 6456TIP3    H219375   5.352   5.920   1.193
 6457TIP3   OH219376   1.301   1.523   2.167
 6457TIP3    H119377   1.229   1.556   2.221
 6457TIP3    H219378   1.336   1.602   2.125
 6458TIP3   OH219379   0.882   0.520   4.701
 6458TIP3    H119380   0.897   0.581   4.774
 6458TIP3    H219381   0.788   0.528   4.683
 6459TIP3   OH219382   2.011   1.062   2.632
 6459TIP3    H119383   2.029   1.153   2.654
 6459TIP3    H219384   1.985   1.022   2.715
 6460TIP3   OH219385   0.212   4.895   4.981
 6460TIP3    H119386   0.190   4.988   4.976
 6460TIP3    H219387   0.263   4.878   4.901
 6461TIP3   OH219388   1.187   3.407   4.763
 6461TIP3    H119389   1.219   3.434   4.849
 6461TIP3    H219390   1.130   3.332   4.780
 6462TIP3   OH219391   6.242   1.550   4.373
 6462TIP3    H119392   6.173   1.531   4.310
 6462TIP3    H219393   6.257   1.468   4.419
 6463TIP3   OH219394   1.613   5.122   4.290
 6463TIP3    H119395   1.633   5.151   4.200
 6463TIP3    H219396   1.520   5.100   4.288
 6464TIP3   OH219397   3.275   1.690   1.968
 6464TIP3    H119398   3.256   1.596   1.976
 6464TIP3    H219399   3.294   1.703   1.875
 6465TIP3   OH219400   6.159   2.448   4.184
 6465TIP3    H119401   6.120   2.394   4.116
 6465TIP3    H219402   6.154   2.538   4.150
 6466TIP3   OH219403   2.581   2.185   0.608
 6466TIP3    H119404   2.641   2.247   0.649
 6466TIP3    H219405   2.558   2.124   0.678
 6467TIP3   OH219406   0.679   3.630   1.645
 6467TIP3    H119407   0.603   3.686   1.661
 6467TIP3    H219408   0.673   3.561   1.712
 6468TIP3   OH219409   3.546   1.831   4.983
 6468TIP3    H119410   3.489   1.803   5.054
 6468TIP3    H219411   3.489   1.830   4.906
 6469TIP3   OH219412   4.695   2.482   0.054
 6469TIP3    H119413   4.740   2.397   0.064
 6469TIP3    H219414   4.620   2.463  -0.001
 6470TIP3   OH219415   3.946   4.599   0.252
 6470TIP3    H119416   3.998   4.520   0.236
 6470TIP3    H219417   4.010   4.668   0.269
 6471TIP3   OH219418   1.596   3.028   3.034
 6471TIP3    H119419   1.541   3.046   2.957
 6471TIP3    H219420   1.604   3.113   3.077
 6472TIP3   OH219421   1.424   5.547   0.514
 6472TIP3    H119422   1.444   5.636   0.486
 6472TIP3    H219423   1.410   5.554   0.608
 6473TIP3   OH219424   1.691   1.391   1.558
 6473TIP3    H119425   1.743   1.324   1.514
 6473TIP3    H219426   1.749   1.467   1.565
 6474TIP3   OH219427   1.114   3.093   2.460
 6474TIP3    H119428   1.115   3.000   2.439
 6474TIP3    H219429   1.093   3.096   2.554
 6475TIP3   OH219430   5.455   5.575   4.077
 6475TIP3    H119431   5.535   5.625   4.090
 6475TIP3    H219432   5.396   5.605   4.147
 6476TIP3   OH219433   5.583   2.426   4.065
 6476TIP3    H119434   5.661   2.463   4.023
 6476TIP3    H219435   5.531   2.502   4.090
 6477TIP3   OH219436   3.992   4.791   4.814
 6477TIP3    H119437   3.906   4.761   4.844
 6477TIP3    H219438   3.975   4.875   4.773
 6478TIP3   OH219439   2.365   3.088   2.387
 6478TIP3    H119440   2.359   3.168   2.440
 6478TIP3    H219441   2.282   3.085   2.340
 6479TIP3   OH219442   2.343   3.209   1.717
 6479TIP3    H119443   2.263   3.156   1.723
 6479TIP3    H219444   2.318   3.295   1.750
 6480TIP3   OH219445   2.518   3.537   2.827
 6480TIP3    H119446   2.475   3.570   2.748
 6480TIP3    H219447   2.449   3.490   2.874
 6481TIP3   OH219448   1.211   4.946   3.320
 6481TIP3    H119449   1.227   4.925   3.412
 6481TIP3    H219450   1.179   4.864   3.282
 6482TIP3   OH219451   6.171   3.892   0.624
 6482TIP3    H119452   6.138   3.897   0.714
 6482TIP3    H219453   6.214   3.807   0.619
 6483TIP3   OH219454   5.330   0.397   2.288
 6483TIP3    H119455   5.311   0.453   2.213
 6483TIP3    H219456   5.244   0.370   2.321
 6484TIP3   OH219457   4.409   0.637   1.520
 6484TIP3    H119458   4.439   0.651   1.610
 6484TIP3    H219459   4.487   0.610   1.473
 6485TIP3   OH219460   4.189   1.395   3.370
 6485TIP3    H119461   4.142   1.443   3.438
 6485TIP3    H219462   4.282   1.406   3.392
 6486TIP3   OH219463   3.587   5.126   3.505
 6486TIP3    H119464   3.607   5.113   3.598
 6486TIP3    H219465   3.510   5.182   3.504
 6487TIP3   OH219466   6.013   1.419   1.808
 6487TIP3    H119467   6.076   1.489   1.793
 6487TIP3    H219468   6.053   1.365   1.876
 6488TIP3   OH219469   3.626   2.138   2.935
 6488TIP3    H119470   3.568   2.063   2.924
 6488TIP3    H219471   3.689   2.130   2.863
 6489TIP3   OH219472   1.408   5.707   3.236
 6489TIP3    H119473   1.423   5.671   3.149
 6489TIP3    H219474   1.478   5.670   3.290
 6490TIP3   OH219475   6.142   5.879   2.589
 6490TIP3    H119476   6.117   5.839   2.506
 6490TIP3    H219477   6.115   5.970   2.581
 6491TIP3   OH219478   1.856   5.788   5.026
 6491TIP3    H119479   1.811   5.804   4.943
 6491TIP3    H219480   1.948   5.775   5.000
 6492TIP3   OH219481   1.682   4.181   3.756
 6492TIP3    H119482   1.733   4.196   3.836
 6492TIP3    H219483   1.727   4.231   3.688
 6493TIP3   OH219484   0.564   3.045   4.959
 6493TIP3    H119485   0.476   3.081   4.968
 6493TIP3    H219486   0.554   2.951   4.974
 6494TIP3   OH219487   6.250   0.812   3.203
 6494TIP3    H119488   6.312   0.742   3.220
 6494TIP3    H219489   6.266   0.876   3.272
 6495TIP3   OH219490   0.694   2.811   1.320
 6495TIP3    H119491   0.647   2.794   1.238
 6495TIP3    H219492   0.701   2.906   1.324
 6496TIP3   OH219493   6.068   1.556   0.211
 6496TIP3    H119494   6.159   1.586   0.206
 6496TIP3    H219495   6.043   1.570   0.302
 6497TIP3   OH219496   5.606   1.766   2.814
 6497TIP3    H119497   5.536   1.819   2.774
 6497TIP3    H219498   5.640   1.821   2.884
 6498TIP3   OH219499   1.295   1.313   0.378
 6498TIP3    H119500   1.304   1.228   0.335
 6498TIP3    H219501   1.378   1.327   0.423
 6499TIP3   OH219502   4.878   4.289   1.331
 6499TIP3    H119503   4.907   4.267   1.243
 6499TIP3    H219504   4.893   4.210   1.382
 6500TIP3   OH219505   0.016   5.004   3.513
 6500TIP3    H119506   0.013   4.970   3.602
 6500TIP3    H219507   0.041   4.928   3.460
 6501TIP3   OH219508   0.429   3.619   1.891
 6501TIP3    H119509   0.461   3.653   1.975
 6501TIP3    H219510   0.490   3.548   1.870
 6502TIP3   OH219511   6.016   5.171   2.280
 6502TIP3    H119512   6.055   5.087   2.257
 6502TIP3    H219513   5.922   5.152   2.286
 6503TIP3   OH219514   6.053   1.226   2.106
 6503TIP3    H119515   6.030   1.191   2.192
 6503TIP3    H219516   5.976   1.277   2.080
 6504TIP3   OH219517   1.823   2.543   2.642
 6504TIP3    H119518   1.868   2.563   2.724
 6504TIP3    H219519   1.731   2.534   2.666
 6505TIP3   OH219520   4.786   1.864   3.017
 6505TIP3    H119521   4.731   1.875   3.095
 6505TIP3    H219522   4.782   1.949   2.973
 6506TIP3   OH219523   0.574   0.742   3.216
 6506TIP3    H119524   0.653   0.712   3.263
 6506TIP3    H219525   0.547   0.820   3.265
 6507TIP3   OH219526   4.678   5.656   3.512
 6507TIP3    H119527   4.707   5.577   3.557
 6507TIP3    H219528   4.585   5.640   3.493
 6508TIP3   OH219529   5.973   3.253   0.448
 6508TIP3    H119530   6.018   3.172   0.423
 6508TIP3    H219531   6.043   3.318   0.454
 6509TIP3   OH219532   0.375   3.178   2.496
 6509TIP3    H119533   0.378   3.274   2.499
 6509TIP3    H219534   0.293   3.156   2.541
 6510TIP3   OH219535   1.142   2.643   3.828
 6510TIP3    H119536   1.186   2.728   3.836
 6510TIP3    H219537   1.121   2.618   3.918
 6511TIP3   OH219538   3.939   3.342   2.247
 6511TIP3    H119539   3.894   3.427   2.246
 6511TIP3    H219540   4.030   3.363   2.267
 6512TIP3   OH219541   3.602   0.712   2.124
 6512TIP3    H119542   3.577   0.672   2.208
 6512TIP3    H219543   3.673   0.657   2.092
 6513TIP3   OH219544   3.565   4.596   1.789
 6513TIP3    H119545   3.562   4.508   1.751
 6513TIP3    H219546   3.657   4.610   1.809
 6514TIP3   OH219547   3.843   3.754   2.062
 6514TIP3    H119548   3.871   3.837   2.024
 6514TIP3    H219549   3.871   3.687   1.999
 6515TIP3   OH219550   4.219   2.215   4.930
 6515TIP3    H119551   4.192   2.145   4.870
 6515TIP3    H219552   4.235   2.171   5.013
 6516TIP3   OH219553   3.780   1.827   3.575
 6516TIP3    H119554   3.793   1.754   3.635
 6516TIP3    H219555   3.691   1.857   3.594
 6517TIP3   OH219556   5.194   0.664   2.888
 6517TIP3    H119557   5.199   0.618   2.972
 6517TIP3    H219558   5.285   0.681   2.865
 6518TIP3   OH219559   4.452   5.033   2.886
 6518TIP3    H119560   4.442   5.084   2.966
 6518TIP3    H219561   4.507   4.959   2.911
 6519TIP3   OH219562   3.122   5.509   3.908
 6519TIP3    H119563   3.115   5.587   3.853
 6519TIP3    H219564   3.214   5.507   3.934
 6520TIP3   OH219565   0.372   2.959   2.756
 6520TIP3    H119566   0.454   2.947   2.709
 6520TIP3    H219567   0.372   3.051   2.782
 6521TIP3   OH219568   3.286   2.315   2.900
 6521TIP3    H119569   3.327   2.321   2.814
 6521TIP3    H219570   3.236   2.234   2.898
 6522TIP3   OH219571   0.384   5.192   3.898
 6522TIP3    H119572   0.454   5.131   3.920
 6522TIP3    H219573   0.417   5.241   3.823
 6523TIP3   OH219574   5.747   5.073   2.244
 6523TIP3    H119575   5.726   5.000   2.302
 6523TIP3    H219576   5.665   5.120   2.232
 6524TIP3   OH219577   0.448   1.893   0.291
 6524TIP3    H119578   0.444   1.895   0.196
 6524TIP3    H219579   0.401   1.813   0.315
 6525TIP3   OH219580   5.987   4.707   2.086
 6525TIP3    H119581   5.939   4.653   2.149
 6525TIP3    H219582   5.926   4.776   2.062
 6526TIP3   OH219583   2.943   1.907   3.289
 6526TIP3    H119584   2.994   1.849   3.346
 6526TIP3    H219585   2.854   1.903   3.324
 6527TIP3   OH219586   6.298   4.265   1.866
 6527TIP3    H119587   6.317   4.335   1.804
 6527TIP3    H219588   6.283   4.187   1.812
 6528TIP3   OH219589   0.351   2.047   1.874
 6528TIP3    H119590   0.279   2.052   1.811
 6528TIP3    H219591   0.312   2.009   1.952
 6529TIP3   OH219592   5.213   2.887   1.402
 6529TIP3    H119593   5.245   2.971   1.436
 6529TIP3    H219594   5.237   2.889   1.309
 6530TIP3   OH219595   3.334   5.405   0.101
 6530TIP3    H119596   3.247   5.408   0.141
 6530TIP3    H219597   3.334   5.324   0.051
 6531TIP3   OH219598   5.202   2.851   4.546
 6531TIP3    H119599   5.266   2.789   4.582
 6531TIP3    H219600   5.190   2.822   4.456
 6532TIP3   OH219601   4.401   1.070   0.422
 6532TIP3    H119602   4.473   1.111   0.469
 6532TIP3    H219603   4.440   1.043   0.338
 6533TIP3   OH219604   5.824   0.045   0.464
 6533TIP3    H119605   5.805  -0.047   0.448
 6533TIP3    H219606   5.820   0.086   0.377
 6534TIP3   OH219607   1.888   3.677   4.812
 6534TIP3    H119608   1.799   3.688   4.846
 6534TIP3    H219609   1.937   3.639   4.885
 6535TIP3   OH219610   0.664   5.099   3.254
 6535TIP3    H119611   0.600   5.031   3.234
 6535TIP3    H219612   0.740   5.051   3.287
 6536TIP3   OH219613   3.089   1.618   4.306
 6536TIP3    H119614   3.005   1.620   4.261
 6536TIP3    H219615   3.069   1.643   4.396
 6537TIP3   OH219616   6.325   2.345   2.701
 6537TIP3    H119617   6.389   2.407   2.668
 6537TIP3    H219618   6.315   2.368   2.794
 6538TIP3   OH219619   5.824   3.293   1.502
 6538TIP3    H119620   5.865   3.219   1.546
 6538TIP3    H219621   5.775   3.338   1.571
 6539TIP3   OH219622   3.473   1.076   2.433
 6539TIP3    H119623   3.380   1.100   2.436
 6539TIP3    H219624   3.510   1.110   2.514
 6540TIP3   OH219625   3.635   5.849   1.696
 6540TIP3    H119626   3.730   5.856   1.708
 6540TIP3    H219627   3.619   5.891   1.612
 6541TIP3   OH219628   0.477   3.883   3.832
 6541TIP3    H119629   0.400   3.826   3.831
 6541TIP3    H219630   0.502   3.891   3.740
 6542TIP3   OH219631   1.957   1.280   2.248
 6542TIP3    H119632   1.896   1.226   2.198
 6542TIP3    H219633   2.030   1.296   2.188
 6543TIP3   OH219634   2.107   0.268   2.718
 6543TIP3    H119635   2.153   0.247   2.637
 6543TIP3    H219636   2.051   0.192   2.735
 6544TIP3   OH219637   5.437   4.650   3.154
 6544TIP3    H119638   5.381   4.636   3.077
 6544TIP3    H219639   5.377   4.640   3.228
 6545TIP3   OH219640   4.553   4.338   2.438
 6545TIP3    H119641   4.635   4.333   2.389
 6545TIP3    H219642   4.577   4.312   2.527
 6546TIP3   OH219643   4.276   0.617   0.437
 6546TIP3    H119644   4.257   0.523   0.445
 6546TIP3    H219645   4.194   0.660   0.463
 6547TIP3   OH219646   5.643   4.498   0.871
 6547TIP3    H119647   5.676   4.486   0.782
 6547TIP3    H219648   5.575   4.431   0.881
 6548TIP3   OH219649   3.095   2.216   0.458
 6548TIP3    H119650   3.098   2.137   0.512
 6548TIP3    H219651   3.186   2.227   0.427
 6549TIP3   OH219652   6.249   2.018   3.773
 6549TIP3    H119653   6.307   1.945   3.749
 6549TIP3    H219654   6.179   2.015   3.707
 6550TIP3   OH219655   1.155   5.500   2.820
 6550TIP3    H119656   1.217   5.550   2.766
 6550TIP3    H219657   1.163   5.410   2.790
 6551TIP3   OH219658   3.450   0.011   0.304
 6551TIP3    H119659   3.374   0.034   0.251
 6551TIP3    H219660   3.450   0.075   0.375
 6552TIP3   OH219661   1.126   3.550   3.151
 6552TIP3    H119662   1.206   3.594   3.180
 6552TIP3    H219663   1.082   3.614   3.096
 6553TIP3   OH219664   0.998   0.684   0.801
 6553TIP3    H119665   1.067   0.717   0.859
 6553TIP3    H219666   1.034   0.696   0.713
 6554TIP3   OH219667   2.261   2.078   2.071
 6554TIP3    H119668   2.316   2.156   2.075
 6554TIP3    H219669   2.318   2.007   2.102
 6555TIP3   OH219670   0.822   4.283   1.324
 6555TIP3    H119671   0.835   4.200   1.370
 6555TIP3    H219672   0.847   4.264   1.234
 6556TIP3   OH219673   1.303   1.481   2.634
 6556TIP3    H119674   1.230   1.437   2.590
 6556TIP3    H219675   1.315   1.431   2.715
 6557TIP3   OH219676   5.130   1.195   4.049
 6557TIP3    H119677   5.207   1.251   4.048
 6557TIP3    H219678   5.145   1.134   4.120
 6558TIP3   OH219679   1.719   2.888   1.782
 6558TIP3    H119680   1.691   2.979   1.783
 6558TIP3    H219681   1.723   2.865   1.690
 6559TIP3   OH219682   4.569   0.650   1.747
 6559TIP3    H119683   4.656   0.635   1.710
 6559TIP3    H219684   4.567   0.745   1.763
 6560TIP3   OH219685   4.204   1.864   3.381
 6560TIP3    H119686   4.281   1.911   3.414
 6560TIP3    H219687   4.229   1.837   3.292
 6561TIP3   OH219688   4.205   0.369   3.534
 6561TIP3    H119689   4.174   0.286   3.568
 6561TIP3    H219690   4.151   0.385   3.456
 6562TIP3   OH219691   4.910   4.338   4.699
 6562TIP3    H119692   4.990   4.373   4.659
 6562TIP3    H219693   4.918   4.359   4.792
 6563TIP3   OH219694   5.628   2.695   3.444
 6563TIP3    H119695   5.539   2.663   3.458
 6563TIP3    H219696   5.679   2.616   3.425
 6564TIP3   OH219697   6.091   4.575   1.773
 6564TIP3    H119698   6.173   4.537   1.742
 6564TIP3    H219699   6.115   4.620   1.854
 6565TIP3   OH219700   3.843   3.906   2.786
 6565TIP3    H119701   3.889   3.939   2.709
 6565TIP3    H219702   3.912   3.869   2.841
 6566TIP3   OH219703   0.413   0.603   2.149
 6566TIP3    H119704   0.412   0.695   2.120
 6566TIP3    H219705   0.329   0.590   2.191
 6567TIP3   OH219706   0.383   5.002   4.517
 6567TIP3    H119707   0.339   5.085   4.501
 6567TIP3    H219708   0.319   4.936   4.490
 6568TIP3   OH219709   4.723   4.580   2.896
 6568TIP3    H119710   4.717   4.552   2.805
 6568TIP3    H219711   4.814   4.562   2.921
 6569TIP3   OH219712   0.435   5.936   0.124
 6569TIP3    H119713   0.422   5.856   0.175
 6569TIP3    H219714   0.528   5.957   0.135
 6570TIP3   OH219715   3.633   3.300   2.947
 6570TIP3    H119716   3.589   3.286   3.030
 6570TIP3    H219717   3.700   3.231   2.944
 6571TIP3   OH219718   1.279   0.165   4.682
 6571TIP3    H119719   1.201   0.220   4.695
 6571TIP3    H219720   1.352   0.226   4.689
 6572TIP3   OH219721   3.115   4.521   3.901
 6572TIP3    H119722   3.076   4.604   3.873
 6572TIP3    H219723   3.209   4.535   3.893
 6573TIP3   OH219724   1.320   3.352   0.713
 6573TIP3    H119725   1.283   3.281   0.660
 6573TIP3    H219726   1.384   3.309   0.770
 6574TIP3   OH219727   2.993   0.396   3.435
 6574TIP3    H119728   2.950   0.447   3.503
 6574TIP3    H219729   3.075   0.442   3.418
 6575TIP3   OH219730   4.032   4.970   1.669
 6575TIP3    H119731   4.026   4.875   1.662
 6575TIP3    H219732   4.115   4.985   1.715
 6576TIP3   OH219733   4.774   2.078   2.851
 6576TIP3    H119734   4.849   2.094   2.794
 6576TIP3    H219735   4.705   2.047   2.793
 6577TIP3   OH219736   3.150   4.584   1.087
 6577TIP3    H119737   3.174   4.600   1.179
 6577TIP3    H219738   3.121   4.669   1.055
 6578TIP3   OH219739   0.186   3.765   4.321
 6578TIP3    H119740   0.251   3.699   4.344
 6578TIP3    H219741   0.141   3.729   4.244
 6579TIP3   OH219742   3.143   3.692   3.623
 6579TIP3    H119743   3.154   3.760   3.689
 6579TIP3    H219744   3.205   3.715   3.554
 6580TIP3   OH219745   0.529   5.641   2.149
 6580TIP3    H119746   0.451   5.611   2.195
 6580TIP3    H219747   0.497   5.694   2.077
 6581TIP3   OH219748   5.392   3.880   3.796
 6581TIP3    H119749   5.400   3.949   3.729
 6581TIP3    H219750   5.350   3.924   3.870
 6582TIP3   OH219751   4.474   1.968   1.263
 6582TIP3    H119752   4.444   1.908   1.194
 6582TIP3    H219753   4.554   2.007   1.227
 6583TIP3   OH219754   5.403   1.365   4.076
 6583TIP3    H119755   5.386   1.318   4.159
 6583TIP3    H219756   5.453   1.442   4.102
 6584TIP3   OH219757   5.482   5.689   2.541
 6584TIP3    H119758   5.458   5.782   2.539
 6584TIP3    H219759   5.399   5.643   2.532
 6585TIP3   OH219760   5.550   3.799   0.738
 6585TIP3    H119761   5.526   3.726   0.795
 6585TIP3    H219762   5.529   3.769   0.650
 6586TIP3   OH219763   2.014   5.832   3.082
 6586TIP3    H119764   1.991   5.740   3.092
 6586TIP3    H219765   2.110   5.831   3.075
 6587TIP3   OH219766   2.947   4.042   2.686
 6587TIP3    H119767   2.874   3.992   2.723
 6587TIP3    H219768   2.971   3.994   2.607
 6588TIP3   OH219769   5.253   1.287   3.100
 6588TIP3    H119770   5.166   1.261   3.068
 6588TIP3    H219771   5.261   1.379   3.073
 6589TIP3   OH219772   1.418   5.537   2.705
 6589TIP3    H119773   1.470   5.461   2.679
 6589TIP3    H219774   1.411   5.589   2.625
 6590TIP3   OH219775   1.237   4.727   4.312
 6590TIP3    H119776   1.217   4.813   4.275
 6590TIP3    H219777   1.180   4.667   4.264
 6591TIP3   OH219778   0.086   5.177   2.167
 6591TIP3    H119779   0.027   5.107   2.138
 6591TIP3    H219780   0.160   5.173   2.106
 6592TIP3   OH219781   2.580   5.725   3.660
 6592TIP3    H119782   2.548   5.676   3.737
 6592TIP3    H219783   2.613   5.657   3.601
 6593TIP3   OH219784   0.301   2.512   2.105
 6593TIP3    H119785   0.365   2.485   2.170
 6593TIP3    H219786   0.353   2.558   2.038
 6594TIP3   OH219787   6.332   5.909   0.584
 6594TIP3    H119788   6.285   5.973   0.636
 6594TIP3    H219789   6.418   5.902   0.626
 6595TIP3   OH219790   1.925   3.646   2.705
 6595TIP3    H119791   1.929   3.633   2.800
 6595TIP3    H219792   1.920   3.741   2.694
 6596TIP3   OH219793   5.328   2.131   3.987
 6596TIP3    H119794   5.338   2.052   4.040
 6596TIP3    H219795   5.234   2.149   3.988
 6597TIP3   OH219796   3.203   1.077   2.408
 6597TIP3    H119797   3.167   0.998   2.448
 6597TIP3    H219798   3.127   1.127   2.380
 6598TIP3   OH219799   1.433   4.231   5.094
 6598TIP3    H119800   1.434   4.301   5.160
 6598TIP3    H219801   1.496   4.260   5.027
 6599TIP3   OH219802   1.424   4.128   1.123
 6599TIP3    H119803   1.502   4.072   1.132
 6599TIP3    H219804   1.402   4.152   1.213
 6600TIP3   OH219805   5.898   0.390   4.288
 6600TIP3    H119806   5.965   0.368   4.223
 6600TIP3    H219807   5.830   0.435   4.237
 6601TIP3   OH219808   0.480   2.258   0.052
 6601TIP3    H119809   0.422   2.237   0.125
 6601TIP3    H219810   0.530   2.334   0.082
 6602TIP3   OH219811   0.154   4.585   1.865
 6602TIP3    H119812   0.113   4.543   1.790
 6602TIP3    H219813   0.100   4.560   1.939
 6603TIP3   OH219814   1.583   1.963   4.091
 6603TIP3    H119815   1.579   1.927   4.003
 6603TIP3    H219816   1.615   1.891   4.145
 6604TIP3   OH219817   3.284   5.238   4.150
 6604TIP3    H119818   3.342   5.270   4.219
 6604TIP3    H219819   3.199   5.276   4.171
 6605TIP3   OH219820   5.894   2.073   4.193
 6605TIP3    H119821   5.803   2.104   4.189
 6605TIP3    H219822   5.898   2.005   4.125
 6606TIP3   OH219823   1.727   2.590   2.922
 6606TIP3    H119824   1.714   2.683   2.904
 6606TIP3    H219825   1.679   2.573   3.003
 6607TIP3   OH219826   5.461   5.065   4.495
 6607TIP3    H119827   5.445   5.127   4.565
 6607TIP3    H219828   5.541   5.096   4.453
 6608TIP3   OH219829   3.068   5.580   2.193
 6608TIP3    H119830   2.997   5.544   2.247
 6608TIP3    H219831   3.101   5.505   2.144
 6609TIP3   OH219832   2.910   1.141   1.953
 6609TIP3    H119833   2.931   1.094   1.872
 6609TIP3    H219834   2.830   1.190   1.933
 6610TIP3   OH219835   3.958   5.476   0.629
 6610TIP3    H119836   3.997   5.427   0.702
 6610TIP3    H219837   3.867   5.487   0.653
 6611TIP3   OH219838   4.242   1.181   0.058
 6611TIP3    H119839   4.186   1.230  -0.002
 6611TIP3    H219840   4.291   1.247   0.106
 6612TIP3   OH219841   4.285   2.658   4.845
 6612TIP3    H119842   4.368   2.632   4.806
 6612TIP3    H219843   4.250   2.578   4.883
 6613TIP3   OH219844   2.567   3.027   3.531
 6613TIP3    H119845   2.499   3.056   3.592
 6613TIP3    H219846   2.620   2.965   3.582
 6614TIP3   OH219847   1.079   5.111   0.049
 6614TIP3    H119848   1.174   5.113   0.058
 6614TIP3    H219849   1.048   5.181   0.106
 6615TIP3   OH219850   0.871   5.968   1.060
 6615TIP3    H119851   0.843   5.879   1.039
 6615TIP3    H219852   0.966   5.966   1.049
 6616TIP3   OH219853   4.487   0.719   1.018
 6616TIP3    H119854   4.403   0.713   1.064
 6616TIP3    H219855   4.466   0.759   0.934
 6617TIP3   OH219856   2.301   4.182   4.094
 6617TIP3    H119857   2.370   4.181   4.027
 6617TIP3    H219858   2.220   4.182   4.044
 6618TIP3   OH219859   4.980   2.606   1.585
 6618TIP3    H119860   4.995   2.653   1.667
 6618TIP3    H219861   4.932   2.668   1.530
 6619TIP3   OH219862   3.134   5.325   2.438
 6619TIP3    H119863   3.087   5.394   2.484
 6619TIP3    H219864   3.216   5.366   2.409
 6620TIP3   OH219865   5.409   4.103   1.649
 6620TIP3    H119866   5.416   4.082   1.556
 6620TIP3    H219867   5.328   4.061   1.677
 6621TIP3   OH219868   4.129   4.741   4.522
 6621TIP3    H119869   4.055   4.769   4.469
 6621TIP3    H219870   4.092   4.724   4.609
 6622TIP3   OH219871   2.556   3.858   0.349
 6622TIP3    H119872   2.597   3.897   0.426
 6622TIP3    H219873   2.566   3.924   0.280
 6623TIP3   OH219874   0.819   5.811   0.720
 6623TIP3    H119875   0.802   5.905   0.722
 6623TIP3    H219876   0.886   5.800   0.652
 6624TIP3   OH219877   3.092   3.401  -0.025
 6624TIP3    H119878   3.022   3.360   0.025
 6624TIP3    H219879   3.139   3.456   0.038
 6625TIP3   OH219880   1.728   2.592   1.792
 6625TIP3    H119881   1.746   2.681   1.822
 6625TIP3    H219882   1.768   2.588   1.705
 6626TIP3   OH219883   2.842   1.733   3.511
 6626TIP3    H119884   2.874   1.657   3.462
 6626TIP3    H219885   2.864   1.713   3.602
 6627TIP3   OH219886   3.713   3.421   3.591
 6627TIP3    H119887   3.774   3.385   3.656
 6627TIP3    H219888   3.748   3.392   3.507
 6628TIP3   OH219889   5.619   5.766   0.222
 6628TIP3    H119890   5.681   5.724   0.163
 6628TIP3    H219891   5.609   5.705   0.295
 6629TIP3   OH219892   5.408   0.689   3.983
 6629TIP3    H119893   5.423   0.698   3.889
 6629TIP3    H219894   5.425   0.776   4.019
 6630TIP3   OH219895   6.259   1.901   2.135
 6630TIP3    H119896   6.176   1.937   2.105
 6630TIP3    H219897   6.243   1.808   2.146
 6631TIP3   OH219898   2.221   4.544   0.501
 6631TIP3    H119899   2.244   4.534   0.594
 6631TIP3    H219900   2.133   4.507   0.494
 6632TIP3   OH219901   0.648   4.966   4.515
 6632TIP3    H119902   0.647   4.885   4.465
 6632TIP3    H219903   0.555   4.987   4.529
 6633TIP3   OH219904   0.868   3.586   1.415
 6633TIP3    H119905   0.787   3.608   1.462
 6633TIP3    H219906   0.876   3.655   1.349
 6634TIP3   OH219907   0.032   4.601   3.010
 6634TIP3    H119908   0.045   4.550   2.930
 6634TIP3    H219909   0.038   4.537   3.081
 6635TIP3   OH219910   4.668   3.456   1.323
 6635TIP3    H119911   4.694   3.373   1.281
 6635TIP3    H219912   4.596   3.431   1.382
 6636TIP3   OH219913   1.239   0.035   0.575
 6636TIP3    H119914   1.327   0.001   0.558
 6636TIP3    H219915   1.233   0.042   0.670
 6637TIP3   OH219916   2.091   0.985   4.106
 6637TIP3    H119917   2.097   1.076   4.078
 6637TIP3    H219918   2.108   0.935   4.027
 6638TIP3   OH219919   1.102   5.176   3.577
 6638TIP3    H119920   1.087   5.084   3.554
 6638TIP3    H219921   1.015   5.215   3.579
 6639TIP3   OH219922   0.940   6.007   0.050
 6639TIP3    H119923   0.932   6.043  -0.038
 6639TIP3    H219924   0.865   5.948   0.059
 6640TIP3   OH219925   1.258   1.318   0.696
 6640TIP3    H119926   1.336   1.365   0.668
 6640TIP3    H219927   1.185   1.372   0.665
 6641TIP3   OH219928   1.942   0.913   4.441
 6641TIP3    H119929   1.975   0.969   4.512
 6641TIP3    H219930   1.858   0.952   4.417
 6642TIP3   OH219931   4.729   3.814   2.950
 6642TIP3    H119932   4.823   3.812   2.930
 6642TIP3    H219933   4.725   3.838   3.042
 6643TIP3   OH219934   2.329   1.352   1.360
 6643TIP3    H119935   2.340   1.446   1.341
 6643TIP3    H219936   2.360   1.308   1.281
 6644TIP3   OH219937   4.138   1.117   0.495
 6644TIP3    H119938   4.227   1.085   0.480
 6644TIP3    H219939   4.149   1.199   0.542
 6645TIP3   OH219940   5.422   3.559   3.601
 6645TIP3    H119941   5.408   3.639   3.551
 6645TIP3    H219942   5.440   3.492   3.535
   6.33366   5.97143   5.17142   0.00000   0.00000  -2.11123   0.00000  -2.11123  -2.98572
