Title t= 455.00000 step= 227500
29212
    1ASP      N    1   3.229   1.928   2.295
    1ASP    HT1    2   3.148   1.959   2.238
    1ASP    HT2    3   3.304   1.929   2.223
    1ASP    HT3    4   3.243   1.993   2.375
    1ASP     CA    5   3.190   1.794   2.343
    1ASP     HA    6   3.160   1.735   2.258
    1ASP     CB    7   3.313   1.728   2.421
    1ASP    HB1    8   3.281   1.626   2.452
    1ASP    HB2    9   3.337   1.791   2.510
    1ASP     CG   10   3.449   1.724   2.351
    1ASP    OD1   11   3.449   1.776   2.232
    1ASP    OD2   12   3.548   1.676   2.406
    1ASP      C   13   3.075   1.810   2.437
    1ASP      O   14   3.032   1.926   2.457
    2GLY      N   15   3.022   1.694   2.495
    2GLY     HN   16   3.066   1.607   2.477
    2GLY     CA   17   2.895   1.706   2.571
    2GLY    HA1   18   2.923   1.782   2.643
    2GLY    HA2   19   2.888   1.603   2.604
    2GLY      C   20   2.765   1.731   2.497
    2GLY      O   21   2.766   1.805   2.396
    3ASP      N   22   2.654   1.669   2.543
    3ASP     HN   23   2.659   1.618   2.628
    3ASP     CA   24   2.527   1.689   2.497
    3ASP     HA   25   2.519   1.691   2.389
    3ASP     CB   26   2.434   1.581   2.561
    3ASP    HB1   27   2.328   1.615   2.565
    3ASP    HB2   28   2.473   1.556   2.662
    3ASP     CG   29   2.443   1.456   2.472
    3ASP    OD1   30   2.347   1.375   2.472
    3ASP    OD2   31   2.540   1.430   2.400
    3ASP      C   32   2.466   1.819   2.540
    3ASP      O   33   2.479   1.865   2.652
    4GLY      N   34   2.387   1.889   2.450
    4GLY     HN   35   2.373   1.838   2.365
    4GLY     CA   36   2.305   2.005   2.474
    4GLY    HA1   37   2.259   2.038   2.382
    4GLY    HA2   38   2.377   2.083   2.496
    4GLY      C   39   2.200   1.991   2.588
    4GLY      O   40   2.161   1.882   2.629
    5PRO      N   41   2.152   2.097   2.645
    5PRO     CD   42   2.200   2.233   2.610
    5PRO    HD1   43   2.166   2.253   2.506
    5PRO    HD2   44   2.310   2.245   2.616
    5PRO     CA   45   2.022   2.112   2.715
    5PRO     HA   46   2.041   2.085   2.818
    5PRO     CB   47   1.995   2.265   2.711
    5PRO    HB1   48   1.946   2.296   2.806
    5PRO    HB2   49   1.939   2.299   2.621
    5PRO     CG   50   2.131   2.325   2.710
    5PRO    HG1   51   2.132   2.430   2.675
    5PRO    HG2   52   2.174   2.312   2.812
    5PRO      C   53   1.908   2.023   2.665
    5PRO      O   54   1.887   2.027   2.545
    6GLY      N   55   1.825   1.951   2.751
    6GLY     HN   56   1.851   1.951   2.847
    6GLY     CA   57   1.698   1.876   2.716
    6GLY    HA1   58   1.683   1.803   2.794
    6GLY    HA2   59   1.706   1.829   2.620
    6GLY      C   60   1.580   1.969   2.710
    6GLY      O   61   1.596   2.086   2.664
    7ASP      N   62   1.461   1.918   2.744
    7ASP     HN   63   1.460   1.825   2.778
    7ASP     CA   64   1.337   1.991   2.730
    7ASP     HA   65   1.348   2.040   2.634
    7ASP     CB   66   1.221   1.886   2.719
    7ASP    HB1   67   1.123   1.940   2.725
    7ASP    HB2   68   1.231   1.800   2.788
    7ASP     CG   69   1.218   1.817   2.583
    7ASP    OD1   70   1.123   1.733   2.556
    7ASP    OD2   71   1.297   1.852   2.493
    7ASP      C   72   1.316   2.091   2.833
    7ASP      O   73   1.356   2.066   2.948
    8PRO      N   74   1.264   2.210   2.798
    8PRO     CD   75   1.253   2.257   2.658
    8PRO    HD1   76   1.176   2.189   2.615
    8PRO    HD2   77   1.353   2.251   2.610
    8PRO     CA   78   1.255   2.317   2.896
    8PRO     HA   79   1.331   2.306   2.972
    8PRO     CB   80   1.257   2.446   2.807
    8PRO    HB1   81   1.365   2.472   2.810
    8PRO    HB2   82   1.203   2.528   2.858
    8PRO     CG   83   1.203   2.403   2.669
    8PRO    HG1   84   1.093   2.418   2.669
    8PRO    HG2   85   1.235   2.468   2.585
    8PRO      C   86   1.119   2.301   2.953
    8PRO      O   87   1.062   2.401   2.992
    9GLY      N   88   1.070   2.180   2.980
    9GLY     HN   89   1.125   2.109   2.936
    9GLY     CA   90   0.946   2.149   3.045
    9GLY    HA1   91   0.921   2.045   3.030
    9GLY    HA2   92   0.867   2.210   3.005
    9GLY      C   93   0.949   2.184   3.194
    9GLY      O   94   1.058   2.179   3.254
   10ASP      N   95   0.832   2.215   3.251
   10ASP     HN   96   0.755   2.217   3.186
   10ASP     CA   97   0.800   2.231   3.391
   10ASP     HA   98   0.871   2.301   3.432
   10ASP     CB   99   0.655   2.277   3.413
   10ASP    HB1  100   0.622   2.277   3.519
   10ASP    HB2  101   0.586   2.210   3.358
   10ASP     CG  102   0.637   2.411   3.354
   10ASP    OD1  103   0.670   2.515   3.418
   10ASP    OD2  104   0.591   2.427   3.238
   10ASP      C  105   0.826   2.106   3.479
   10ASP      O  106   0.841   1.992   3.435
   11GLY      N  107   0.848   2.129   3.610
   11GLY     HN  108   0.836   2.223   3.642
   11GLY     CA  109   0.858   2.022   3.711
   11GLY    HA1  110   0.839   1.925   3.667
   11GLY    HA2  111   0.793   2.049   3.793
   11GLY      C  112   0.997   2.011   3.761
   11GLY    OT1  113   1.044   2.120   3.800
   11GLY    OT2  114   1.063   1.907   3.769
   12LIT    LIT  115   0.400   0.487   1.930
   13LIT    LIT  116   5.921   0.832   0.499
   14LIT    LIT  117   0.925   5.173   0.179
   15LIT    LIT  118   6.752   4.331   2.195
   16LIT    LIT  119   1.208   2.014   3.830
   17LIT    LIT  120   3.304   5.887   4.015
   18LIT    LIT  121   3.028   3.474   2.519
   19LIT    LIT  122   4.448   6.425   5.698
   20LIT    LIT  123   1.038   0.814   4.443
   21LIT    LIT  124   1.509   4.927   4.682
   22LIT    LIT  125   5.798   1.355   3.384
   23LIT    LIT  126   4.751   0.798   1.246
   24LIT    LIT  127   2.191   5.859   0.640
   25LIT    LIT  128   0.452   3.664   1.896
   26LIT    LIT  129   0.585   2.622   3.262
   27LIT    LIT  130   5.972   5.971   4.429
   28LIT    LIT  131   4.148   0.305   5.129
   29LIT    LIT  132   6.211   2.570   2.931
   30LIT    LIT  133   1.031   0.363   2.046
   31LIT    LIT  134   6.190   2.770   1.330
   32LIT    LIT  135   3.927   2.338   0.310
   33LIT    LIT  136   3.112   4.978   2.725
   34LIT    LIT  137   6.623   1.975   5.033
   35LIT    LIT  138   0.006   1.182   2.603
   36LIT    LIT  139   7.196   6.484   2.314
   37LIT    LIT  140   2.835   4.756   4.257
   38LIT    LIT  141   1.130   0.417   0.862
   39LIT    LIT  142   3.696   1.788   2.417
   40LIT    LIT  143   3.425   6.038   2.250
   41LIT    LIT  144   3.194   1.855   3.209
   42LIT    LIT  145   2.438   1.267   2.343
   43CLA    CLA  146   3.433   6.258   2.167
   44CLA    CLA  147   0.089   4.910   4.633
   45CLA    CLA  148   2.812   3.024   3.148
   46CLA    CLA  149   3.819   0.764   5.748
   47CLA    CLA  150   0.161   1.129   3.368
   48CLA    CLA  151   0.996   0.105   1.689
   49CLA    CLA  152   0.663   3.377   3.384
   50CLA    CLA  153   6.818   3.418   1.751
   51CLA    CLA  154   6.469   0.133   1.386
   52CLA    CLA  155   1.804   5.002   4.353
   53CLA    CLA  156   2.883   0.953   3.199
   54CLA    CLA  157   2.119   1.590   1.026
   55CLA    CLA  158   0.366   2.450   5.744
   56CLA    CLA  159   1.347   0.508   3.654
   57CLA    CLA  160   1.366   1.071   4.726
   58CLA    CLA  161   3.235   4.831   2.578
   59CLA    CLA  162   5.013   1.065   1.544
   60CLA    CLA  163   4.440   0.243   1.178
   61CLA    CLA  164   0.062   1.046   2.770
   62CLA    CLA  165   1.891   1.078   2.097
   63CLA    CLA  166   2.161   5.685   5.139
   64CLA    CLA  167   0.169   1.392   5.025
   65CLA    CLA  168   1.614   6.429   0.568
   66CLA    CLA  169   0.054   4.473   0.887
   67CLA    CLA  170   0.495   4.029   4.835
   68CLA    CLA  171   4.624   2.126   3.955
   69CLA    CLA  172   3.094   5.552   5.025
   70TIP3   OH2  173   1.703   3.847   2.557
   70TIP3    H1  174   1.782   3.792   2.554
   70TIP3    H2  175   1.713   3.898   2.637
   71TIP3   OH2  176   1.804   0.514   0.757
   71TIP3    H1  177   1.816   0.573   0.832
   71TIP3    H2  178   1.839   0.430   0.787
   72TIP3   OH2  179   0.677   5.915   5.497
   72TIP3    H1  180   0.669   5.936   5.590
   72TIP3    H2  181   0.630   5.832   5.488
   73TIP3   OH2  182   3.194   5.484   4.066
   73TIP3    H1  183   3.133   5.557   4.071
   73TIP3    H2  184   3.257   5.510   3.999
   74TIP3   OH2  185   2.176   4.240   4.552
   74TIP3    H1  186   2.258   4.281   4.525
   74TIP3    H2  187   2.201   4.183   4.625
   75TIP3   OH2  188   5.030   3.867   1.999
   75TIP3    H1  189   5.076   3.806   2.056
   75TIP3    H2  190   4.944   3.827   1.985
   76TIP3   OH2  191   3.248   4.301   5.831
   76TIP3    H1  192   3.184   4.363   5.865
   76TIP3    H2  193   3.275   4.338   5.747
   77TIP3   OH2  194   5.732   5.051   3.865
   77TIP3    H1  195   5.668   4.981   3.879
   77TIP3    H2  196   5.815   5.015   3.895
   78TIP3   OH2  197   5.333   1.928   4.290
   78TIP3    H1  198   5.362   1.897   4.204
   78TIP3    H2  199   5.346   1.852   4.348
   79TIP3   OH2  200   3.130   5.696   1.847
   79TIP3    H1  201   3.067   5.626   1.864
   79TIP3    H2  202   3.103   5.734   1.764
   80TIP3   OH2  203   1.712   0.465   4.072
   80TIP3    H1  204   1.723   0.538   4.133
   80TIP3    H2  205   1.696   0.507   3.987
   81TIP3   OH2  206   6.669   2.093   0.561
   81TIP3    H1  207   6.750   2.077   0.511
   81TIP3    H2  208   6.680   2.182   0.595
   82TIP3   OH2  209   2.956   2.868   5.186
   82TIP3    H1  210   2.930   2.880   5.094
   82TIP3    H2  211   3.051   2.865   5.184
   83TIP3   OH2  212   7.128   1.888   0.582
   83TIP3    H1  213   7.060   1.873   0.648
   83TIP3    H2  214   7.209   1.893   0.633
   84TIP3   OH2  215   0.803   5.966   5.248
   84TIP3    H1  216   0.763   5.945   5.333
   84TIP3    H2  217   0.805   5.883   5.201
   85TIP3   OH2  218   0.550   0.569   3.091
   85TIP3    H1  219   0.534   0.652   3.045
   85TIP3    H2  220   0.542   0.591   3.184
   86TIP3   OH2  221   0.778   6.016   1.176
   86TIP3    H1  222   0.852   6.066   1.142
   86TIP3    H2  223   0.813   5.968   1.250
   87TIP3   OH2  224   0.928   2.299   0.996
   87TIP3    H1  225   0.841   2.330   0.968
   87TIP3    H2  226   0.917   2.278   1.089
   88TIP3   OH2  227   1.036   4.105   5.292
   88TIP3    H1  228   0.960   4.138   5.341
   88TIP3    H2  229   1.111   4.121   5.350
   89TIP3   OH2  230   0.677   4.765   0.782
   89TIP3    H1  231   0.660   4.844   0.730
   89TIP3    H2  232   0.630   4.696   0.735
   90TIP3   OH2  233   2.470   2.750   2.941
   90TIP3    H1  234   2.477   2.840   2.973
   90TIP3    H2  235   2.523   2.699   3.003
   91TIP3   OH2  236   5.681   1.147   5.607
   91TIP3    H1  237   5.589   1.132   5.583
   91TIP3    H2  238   5.677   1.182   5.696
   92TIP3   OH2  239   5.227   3.658   5.425
   92TIP3    H1  240   5.231   3.567   5.454
   92TIP3    H2  241   5.213   3.653   5.331
   93TIP3   OH2  242   2.824   1.207   4.550
   93TIP3    H1  243   2.887   1.264   4.505
   93TIP3    H2  244   2.783   1.263   4.615
   94TIP3   OH2  245   1.047   1.414   5.543
   94TIP3    H1  246   1.013   1.412   5.632
   94TIP3    H2  247   1.031   1.503   5.513
   95TIP3   OH2  248   1.639   0.647   0.553
   95TIP3    H1  249   1.648   0.742   0.550
   95TIP3    H2  250   1.671   0.623   0.641
   96TIP3   OH2  251   5.039   3.945   4.203
   96TIP3    H1  252   5.123   3.980   4.174
   96TIP3    H2  253   5.004   4.013   4.261
   97TIP3   OH2  254   0.010   4.411   2.935
   97TIP3    H1  255   0.064   4.332   2.945
   97TIP3    H2  256  -0.078   4.378   2.921
   98TIP3   OH2  257   1.332   4.547   0.863
   98TIP3    H1  258   1.326   4.576   0.772
   98TIP3    H2  259   1.253   4.581   0.905
   99TIP3   OH2  260   1.284   3.593   3.203
   99TIP3    H1  261   1.228   3.517   3.187
   99TIP3    H2  262   1.223   3.663   3.225
  100TIP3   OH2  263   0.632   3.757   3.621
  100TIP3    H1  264   0.613   3.764   3.715
  100TIP3    H2  265   0.558   3.706   3.586
  101TIP3   OH2  266   4.897   2.777   0.207
  101TIP3    H1  267   4.816   2.743   0.245
  101TIP3    H2  268   4.967   2.735   0.257
  102TIP3   OH2  269   2.674   0.836   4.574
  102TIP3    H1  270   2.587   0.803   4.551
  102TIP3    H2  271   2.677   0.925   4.540
  103TIP3   OH2  272  -0.058   1.041   1.835
  103TIP3    H1  273  -0.004   1.056   1.758
  103TIP3    H2  274  -0.012   0.972   1.884
  104TIP3   OH2  275   0.606   2.699   2.507
  104TIP3    H1  276   0.697   2.728   2.514
  104TIP3    H2  277   0.579   2.725   2.419
  105TIP3   OH2  278   6.923   6.379   3.229
  105TIP3    H1  279   6.985   6.307   3.239
  105TIP3    H2  280   6.890   6.394   3.318
  106TIP3   OH2  281   3.071   3.209   1.354
  106TIP3    H1  282   3.000   3.233   1.293
  106TIP3    H2  283   3.025   3.186   1.435
  107TIP3   OH2  284   4.979   3.399   4.893
  107TIP3    H1  285   5.070   3.370   4.885
  107TIP3    H2  286   4.960   3.441   4.809
  108TIP3   OH2  287   2.391   4.816   0.836
  108TIP3    H1  288   2.479   4.838   0.804
  108TIP3    H2  289   2.376   4.877   0.908
  109TIP3   OH2  290   3.397   3.741   1.791
  109TIP3    H1  291   3.378   3.695   1.709
  109TIP3    H2  292   3.492   3.757   1.788
  110TIP3   OH2  293   6.528   5.527   3.888
  110TIP3    H1  294   6.555   5.435   3.887
  110TIP3    H2  295   6.510   5.548   3.797
  111TIP3   OH2  296   2.452   6.438   4.082
  111TIP3    H1  297   2.386   6.369   4.080
  111TIP3    H2  298   2.443   6.477   4.170
  112TIP3   OH2  299   4.878   5.335   3.467
  112TIP3    H1  300   4.843   5.255   3.427
  112TIP3    H2  301   4.949   5.361   3.408
  113TIP3   OH2  302   3.267   0.100   1.716
  113TIP3    H1  303   3.277   0.017   1.668
  113TIP3    H2  304   3.341   0.101   1.777
  114TIP3   OH2  305   3.476   4.287   1.697
  114TIP3    H1  306   3.561   4.314   1.661
  114TIP3    H2  307   3.419   4.363   1.684
  115TIP3   OH2  308   3.690   5.228   2.194
  115TIP3    H1  309   3.703   5.302   2.135
  115TIP3    H2  310   3.602   5.196   2.174
  116TIP3   OH2  311   5.823   6.110   4.524
  116TIP3    H1  312   5.834   6.137   4.615
  116TIP3    H2  313   5.736   6.141   4.500
  117TIP3   OH2  314   6.377   4.446   3.956
  117TIP3    H1  315   6.421   4.505   3.895
  117TIP3    H2  316   6.444   4.383   3.981
  118TIP3   OH2  317   0.715  -0.012   0.185
  118TIP3    H1  318   0.766   0.069   0.191
  118TIP3    H2  319   0.739  -0.049   0.100
  119TIP3   OH2  320   3.491   3.902   3.255
  119TIP3    H1  321   3.487   3.812   3.288
  119TIP3    H2  322   3.416   3.909   3.196
  120TIP3   OH2  323   6.791   0.629   1.958
  120TIP3    H1  324   6.719   0.646   1.897
  120TIP3    H2  325   6.850   0.703   1.947
  121TIP3   OH2  326   0.054   3.029   3.433
  121TIP3    H1  327   0.132   3.084   3.428
  121TIP3    H2  328   0.063   2.981   3.515
  122TIP3   OH2  329   3.779   4.927   3.088
  122TIP3    H1  330   3.818   4.840   3.084
  122TIP3    H2  331   3.821   4.976   3.017
  123TIP3   OH2  332   0.224   5.979   0.127
  123TIP3    H1  333   0.241   6.063   0.170
  123TIP3    H2  334   0.275   5.916   0.178
  124TIP3   OH2  335   6.675   1.024   3.155
  124TIP3    H1  336   6.755   1.066   3.187
  124TIP3    H2  337   6.691   0.930   3.168
  125TIP3   OH2  338   4.419   5.940   0.624
  125TIP3    H1  339   4.398   6.027   0.659
  125TIP3    H2  340   4.397   5.880   0.695
  126TIP3   OH2  341   3.162   5.672   2.426
  126TIP3    H1  342   3.172   5.613   2.351
  126TIP3    H2  343   3.082   5.642   2.470
  127TIP3   OH2  344   6.213   2.753   2.846
  127TIP3    H1  345   6.208   2.833   2.898
  127TIP3    H2  346   6.225   2.783   2.756
  128TIP3   OH2  347   0.694   2.288   5.326
  128TIP3    H1  348   0.674   2.295   5.232
  128TIP3    H2  349   0.622   2.237   5.362
  129TIP3   OH2  350   0.092   6.737   0.871
  129TIP3    H1  351   0.182   6.733   0.903
  129TIP3    H2  352   0.043   6.779   0.942
  130TIP3   OH2  353   2.091   1.724   0.283
  130TIP3    H1  354   2.049   1.639   0.274
  130TIP3    H2  355   2.028   1.786   0.246
  131TIP3   OH2  356   5.416   0.650   4.315
  131TIP3    H1  357   5.422   0.653   4.411
  131TIP3    H2  358   5.325   0.673   4.296
  132TIP3   OH2  359   5.694   1.775   3.066
  132TIP3    H1  360   5.649   1.857   3.046
  132TIP3    H2  361   5.684   1.764   3.161
  133TIP3   OH2  362   1.112   1.700   2.073
  133TIP3    H1  363   1.120   1.795   2.077
  133TIP3    H2  364   1.197   1.670   2.041
  134TIP3   OH2  365   3.222   2.230   4.273
  134TIP3    H1  366   3.312   2.201   4.283
  134TIP3    H2  367   3.185   2.225   4.362
  135TIP3   OH2  368   1.044   6.539   4.847
  135TIP3    H1  369   0.969   6.481   4.859
  135TIP3    H2  370   1.041   6.562   4.754
  136TIP3   OH2  371   2.093   3.570   1.535
  136TIP3    H1  372   2.069   3.658   1.565
  136TIP3    H2  373   2.095   3.518   1.615
  137TIP3   OH2  374   4.102   5.118   3.604
  137TIP3    H1  375   4.175   5.074   3.649
  137TIP3    H2  376   4.116   5.100   3.511
  138TIP3   OH2  377   7.184   5.180   5.414
  138TIP3    H1  378   7.244   5.145   5.348
  138TIP3    H2  379   7.097   5.154   5.383
  139TIP3   OH2  380   3.689   4.877   0.849
  139TIP3    H1  381   3.674   4.797   0.899
  139TIP3    H2  382   3.741   4.932   0.907
  140TIP3   OH2  383   2.630   3.680   2.430
  140TIP3    H1  384   2.562   3.732   2.473
  140TIP3    H2  385   2.674   3.634   2.502
  141TIP3   OH2  386   0.502   4.485   4.730
  141TIP3    H1  387   0.566   4.448   4.791
  141TIP3    H2  388   0.439   4.531   4.786
  142TIP3   OH2  389   1.328   6.229   1.378
  142TIP3    H1  390   1.268   6.157   1.358
  142TIP3    H2  391   1.414   6.187   1.382
  143TIP3   OH2  392   0.660   6.471   1.148
  143TIP3    H1  393   0.622   6.470   1.060
  143TIP3    H2  394   0.754   6.470   1.133
  144TIP3   OH2  395   6.330   4.980   5.431
  144TIP3    H1  396   6.280   4.987   5.349
  144TIP3    H2  397   6.417   4.951   5.403
  145TIP3   OH2  398   0.543   5.517   3.296
  145TIP3    H1  399   0.528   5.519   3.390
  145TIP3    H2  400   0.613   5.581   3.281
  146TIP3   OH2  401   0.173   5.251   0.073
  146TIP3    H1  402   0.147   5.198   0.148
  146TIP3    H2  403   0.095   5.302   0.050
  147TIP3   OH2  404   0.846   0.475   5.466
  147TIP3    H1  405   0.919   0.528   5.434
  147TIP3    H2  406   0.820   0.422   5.390
  148TIP3   OH2  407   3.033   1.982   5.693
  148TIP3    H1  408   3.128   1.975   5.682
  148TIP3    H2  409   3.018   2.075   5.710
  149TIP3   OH2  410   3.275   0.259   3.931
  149TIP3    H1  411   3.238   0.236   4.016
  149TIP3    H2  412   3.237   0.197   3.870
  150TIP3   OH2  413   4.549   0.438   2.553
  150TIP3    H1  414   4.455   0.435   2.567
  150TIP3    H2  415   4.562   0.396   2.468
  151TIP3   OH2  416   1.839   0.879   4.075
  151TIP3    H1  417   1.842   0.845   3.986
  151TIP3    H2  418   1.837   0.974   4.064
  152TIP3   OH2  419   2.016   2.972   5.140
  152TIP3    H1  420   1.973   3.043   5.093
  152TIP3    H2  421   2.110   2.987   5.126
  153TIP3   OH2  422   6.544   3.676   3.411
  153TIP3    H1  423   6.600   3.696   3.336
  153TIP3    H2  424   6.556   3.751   3.470
  154TIP3   OH2  425   5.821   0.694   2.126
  154TIP3    H1  426   5.814   0.614   2.074
  154TIP3    H2  427   5.801   0.764   2.064
  155TIP3   OH2  428   2.957   6.630   5.224
  155TIP3    H1  429   3.002   6.647   5.307
  155TIP3    H2  430   2.873   6.592   5.250
  156TIP3   OH2  431   0.255   4.292   4.419
  156TIP3    H1  432   0.298   4.274   4.336
  156TIP3    H2  433   0.319   4.268   4.486
  157TIP3   OH2  434   1.894   4.585   1.856
  157TIP3    H1  435   1.923   4.657   1.911
  157TIP3    H2  436   1.799   4.584   1.866
  158TIP3   OH2  437   0.037   6.708   4.375
  158TIP3    H1  438   0.063   6.735   4.287
  158TIP3    H2  439   0.114   6.661   4.409
  159TIP3   OH2  440   6.437   1.626   3.311
  159TIP3    H1  441   6.488   1.595   3.386
  159TIP3    H2  442   6.442   1.721   3.317
  160TIP3   OH2  443   2.199   4.265   0.832
  160TIP3    H1  444   2.261   4.334   0.808
  160TIP3    H2  445   2.164   4.234   0.748
  161TIP3   OH2  446   6.623   4.108   1.457
  161TIP3    H1  447   6.540   4.069   1.484
  161TIP3    H2  448   6.666   4.039   1.406
  162TIP3   OH2  449   6.655   0.244   5.492
  162TIP3    H1  450   6.580   0.256   5.433
  162TIP3    H2  451   6.634   0.165   5.542
  163TIP3   OH2  452   7.108   5.841   3.108
  163TIP3    H1  453   7.192   5.859   3.065
  163TIP3    H2  454   7.063   5.781   3.048
  164TIP3   OH2  455   4.327   5.414   0.953
  164TIP3    H1  456   4.235   5.435   0.971
  164TIP3    H2  457   4.329   5.319   0.943
  165TIP3   OH2  458   4.523   0.839   0.482
  165TIP3    H1  459   4.602   0.868   0.437
  165TIP3    H2  460   4.526   0.883   0.567
  166TIP3   OH2  461   0.467   0.776   4.834
  166TIP3    H1  462   0.530   0.707   4.849
  166TIP3    H2  463   0.516   0.857   4.845
  167TIP3   OH2  464   5.622   3.196   1.178
  167TIP3    H1  465   5.572   3.277   1.172
  167TIP3    H2  466   5.678   3.196   1.101
  168TIP3   OH2  467   4.570   4.835   4.400
  168TIP3    H1  468   4.482   4.820   4.436
  168TIP3    H2  469   4.625   4.770   4.443
  169TIP3   OH2  470   0.443   5.812   0.838
  169TIP3    H1  471   0.386   5.736   0.825
  169TIP3    H2  472   0.524   5.775   0.875
  170TIP3   OH2  473   1.823   6.656   2.551
  170TIP3    H1  474   1.782   6.574   2.576
  170TIP3    H2  475   1.751   6.709   2.515
  171TIP3   OH2  476   4.411   6.161   0.810
  171TIP3    H1  477   4.352   6.208   0.868
  171TIP3    H2  478   4.464   6.107   0.869
  172TIP3   OH2  479   0.058   5.520   1.726
  172TIP3    H1  480   0.045   5.481   1.639
  172TIP3    H2  481   0.090   5.449   1.780
  173TIP3   OH2  482   1.472   1.367   0.608
  173TIP3    H1  483   1.514   1.396   0.689
  173TIP3    H2  484   1.518   1.287   0.585
  174TIP3   OH2  485   4.258   5.654   2.245
  174TIP3    H1  486   4.229   5.565   2.265
  174TIP3    H2  487   4.351   5.654   2.268
  175TIP3   OH2  488   6.513   1.366   1.499
  175TIP3    H1  489   6.551   1.288   1.457
  175TIP3    H2  490   6.451   1.400   1.434
  176TIP3   OH2  491   0.797   0.187   3.044
  176TIP3    H1  492   0.887   0.205   3.072
  176TIP3    H2  493   0.792   0.092   3.039
  177TIP3   OH2  494   2.479   4.863   3.072
  177TIP3    H1  495   2.427   4.790   3.036
  177TIP3    H2  496   2.542   4.820   3.131
  178TIP3   OH2  497   3.669   3.845   2.174
  178TIP3    H1  498   3.653   3.779   2.106
  178TIP3    H2  499   3.762   3.866   2.165
  179TIP3   OH2  500   0.656   5.093   2.513
  179TIP3    H1  501   0.642   4.999   2.506
  179TIP3    H2  502   0.690   5.119   2.428
  180TIP3   OH2  503   4.741   3.888   0.920
  180TIP3    H1  504   4.733   3.829   0.845
  180TIP3    H2  505   4.757   3.974   0.881
  181TIP3   OH2  506   1.548   1.791   0.563
  181TIP3    H1  507   1.628   1.841   0.546
  181TIP3    H2  508   1.513   1.771   0.476
  182TIP3   OH2  509   5.089   5.591   1.141
  182TIP3    H1  510   5.007   5.541   1.143
  182TIP3    H2  511   5.061   5.682   1.131
  183TIP3   OH2  512   6.457   5.571   2.046
  183TIP3    H1  513   6.467   5.574   2.141
  183TIP3    H2  514   6.395   5.641   2.027
  184TIP3   OH2  515   4.073   5.682   3.570
  184TIP3    H1  516   4.126   5.606   3.592
  184TIP3    H2  517   4.048   5.719   3.654
  185TIP3   OH2  518   6.101   5.880   5.676
  185TIP3    H1  519   6.036   5.884   5.607
  185TIP3    H2  520   6.172   5.936   5.645
  186TIP3   OH2  521   4.909   1.980   1.355
  186TIP3    H1  522   4.907   2.076   1.353
  186TIP3    H2  523   4.878   1.957   1.442
  187TIP3   OH2  524   3.956   2.852   4.017
  187TIP3    H1  525   4.004   2.770   4.026
  187TIP3    H2  526   4.018   2.919   4.046
  188TIP3   OH2  527   5.410   5.280   3.495
  188TIP3    H1  528   5.492   5.302   3.452
  188TIP3    H2  529   5.430   5.206   3.552
  189TIP3   OH2  530   6.842   2.339   3.570
  189TIP3    H1  531   6.891   2.257   3.582
  189TIP3    H2  532   6.775   2.337   3.639
  190TIP3   OH2  533   1.528   2.777   0.688
  190TIP3    H1  534   1.577   2.858   0.705
  190TIP3    H2  535   1.463   2.774   0.758
  191TIP3   OH2  536   2.876   4.736   4.876
  191TIP3    H1  537   2.957   4.752   4.924
  191TIP3    H2  538   2.865   4.641   4.880
  192TIP3   OH2  539   3.157   0.331   4.945
  192TIP3    H1  540   3.074   0.317   4.989
  192TIP3    H2  541   3.152   0.277   4.866
  193TIP3   OH2  542   5.493   1.258   0.283
  193TIP3    H1  543   5.418   1.313   0.305
  193TIP3    H2  544   5.490   1.187   0.348
  194TIP3   OH2  545   4.909   3.817   2.791
  194TIP3    H1  546   4.983   3.757   2.803
  194TIP3    H2  547   4.869   3.824   2.878
  195TIP3   OH2  548   3.929   1.136   1.884
  195TIP3    H1  549   3.877   1.193   1.940
  195TIP3    H2  550   4.018   1.173   1.888
  196TIP3   OH2  551   4.030   3.343   1.953
  196TIP3    H1  552   3.992   3.273   2.005
  196TIP3    H2  553   4.124   3.328   1.956
  197TIP3   OH2  554   1.288   5.088   2.073
  197TIP3    H1  555   1.366   5.060   2.122
  197TIP3    H2  556   1.322   5.144   2.003
  198TIP3   OH2  557   1.297   5.787   3.633
  198TIP3    H1  558   1.242   5.863   3.616
  198TIP3    H2  559   1.240   5.727   3.682
  199TIP3   OH2  560   1.803   3.348   3.510
  199TIP3    H1  561   1.721   3.299   3.515
  199TIP3    H2  562   1.787   3.413   3.442
  200TIP3   OH2  563   3.290   1.411   4.919
  200TIP3    H1  564   3.364   1.356   4.944
  200TIP3    H2  565   3.313   1.498   4.951
  201TIP3   OH2  566   4.528   2.159   4.496
  201TIP3    H1  567   4.496   2.198   4.577
  201TIP3    H2  568   4.455   2.105   4.465
  202TIP3   OH2  569   2.815   0.159   0.676
  202TIP3    H1  570   2.818   0.070   0.642
  202TIP3    H2  571   2.875   0.208   0.620
  203TIP3   OH2  572   0.038   6.680   1.548
  203TIP3    H1  573   0.112   6.733   1.517
  203TIP3    H2  574   0.076   6.622   1.614
  204TIP3   OH2  575   0.950   0.365   0.889
  204TIP3    H1  576   0.903   0.351   0.807
  204TIP3    H2  577   0.888   0.340   0.957
  205TIP3   OH2  578   3.596   0.892   0.252
  205TIP3    H1  579   3.626   0.834   0.321
  205TIP3    H2  580   3.514   0.929   0.285
  206TIP3   OH2  581   6.075   3.822   2.496
  206TIP3    H1  582   6.074   3.793   2.588
  206TIP3    H2  583   5.983   3.823   2.470
  207TIP3   OH2  584   3.350   4.378   0.518
  207TIP3    H1  585   3.427   4.380   0.460
  207TIP3    H2  586   3.358   4.457   0.571
  208TIP3   OH2  587   6.888   5.676   5.115
  208TIP3    H1  588   6.902   5.769   5.100
  208TIP3    H2  589   6.817   5.652   5.055
  209TIP3   OH2  590   0.614   5.293   1.529
  209TIP3    H1  591   0.570   5.264   1.449
  209TIP3    H2  592   0.609   5.388   1.526
  210TIP3   OH2  593   0.230   5.481   1.137
  210TIP3    H1  594   0.167   5.409   1.140
  210TIP3    H2  595   0.197   5.539   1.069
  211TIP3   OH2  596   3.941   5.210   2.710
  211TIP3    H1  597   3.848   5.205   2.689
  211TIP3    H2  598   3.961   5.304   2.707
  212TIP3   OH2  599   3.889   1.673   3.270
  212TIP3    H1  600   3.867   1.655   3.179
  212TIP3    H2  601   3.858   1.763   3.285
  213TIP3   OH2  602   0.300   5.882   3.202
  213TIP3    H1  603   0.381   5.864   3.249
  213TIP3    H2  604   0.238   5.817   3.234
  214TIP3   OH2  605   0.535   1.442   1.552
  214TIP3    H1  606   0.441   1.439   1.569
  214TIP3    H2  607   0.573   1.474   1.633
  215TIP3   OH2  608   2.793   3.332   3.846
  215TIP3    H1  609   2.861   3.363   3.785
  215TIP3    H2  610   2.760   3.412   3.886
  216TIP3   OH2  611   7.032   0.192   5.009
  216TIP3    H1  612   7.056   0.234   5.091
  216TIP3    H2  613   6.943   0.159   5.024
  217TIP3   OH2  614   4.609   5.736   3.337
  217TIP3    H1  615   4.560   5.739   3.420
  217TIP3    H2  616   4.573   5.808   3.285
  218TIP3   OH2  617   2.712   1.990   2.213
  218TIP3    H1  618   2.713   1.944   2.297
  218TIP3    H2  619   2.672   1.928   2.152
  219TIP3   OH2  620   1.946   5.503   2.068
  219TIP3    H1  621   1.883   5.522   1.998
  219TIP3    H2  622   1.893   5.502   2.148
  220TIP3   OH2  623   5.219   3.744   0.246
  220TIP3    H1  624   5.309   3.765   0.222
  220TIP3    H2  625   5.214   3.763   0.339
  221TIP3   OH2  626   6.556   4.186   5.686
  221TIP3    H1  627   6.600   4.152   5.764
  221TIP3    H2  628   6.475   4.136   5.680
  222TIP3   OH2  629   1.408   2.423   0.807
  222TIP3    H1  630   1.440   2.367   0.736
  222TIP3    H2  631   1.483   2.433   0.866
  223TIP3   OH2  632   1.614   3.174   5.696
  223TIP3    H1  633   1.685   3.131   5.744
  223TIP3    H2  634   1.534   3.129   5.727
  224TIP3   OH2  635   1.612   2.064   5.814
  224TIP3    H1  636   1.601   2.140   5.757
  224TIP3    H2  637   1.665   2.097   5.887
  225TIP3   OH2  638   3.801   0.896   1.948
  225TIP3    H1  639   3.834   0.980   1.916
  225TIP3    H2  640   3.749   0.918   2.025
  226TIP3   OH2  641   2.544   2.961   0.582
  226TIP3    H1  642   2.533   2.985   0.490
  226TIP3    H2  643   2.624   3.007   0.609
  227TIP3   OH2  644   2.916   0.847   0.773
  227TIP3    H1  645   2.820   0.848   0.772
  227TIP3    H2  646   2.939   0.757   0.797
  228TIP3   OH2  647   6.445   5.517   4.680
  228TIP3    H1  648   6.418   5.446   4.739
  228TIP3    H2  649   6.496   5.473   4.612
  229TIP3   OH2  650   2.547   3.815   1.801
  229TIP3    H1  651   2.489   3.884   1.769
  229TIP3    H2  652   2.633   3.838   1.767
  230TIP3   OH2  653   5.663   2.540   2.817
  230TIP3    H1  654   5.585   2.507   2.772
  230TIP3    H2  655   5.683   2.623   2.774
  231TIP3   OH2  656   1.225   5.156   1.360
  231TIP3    H1  657   1.207   5.083   1.419
  231TIP3    H2  658   1.260   5.115   1.281
  232TIP3   OH2  659   6.582   2.353   1.690
  232TIP3    H1  660   6.574   2.416   1.761
  232TIP3    H2  661   6.621   2.275   1.731
  233TIP3   OH2  662   4.786   2.246   4.419
  233TIP3    H1  663   4.817   2.182   4.355
  233TIP3    H2  664   4.694   2.223   4.433
  234TIP3   OH2  665   1.597   3.435   2.123
  234TIP3    H1  666   1.685   3.431   2.087
  234TIP3    H2  667   1.587   3.353   2.171
  235TIP3   OH2  668   2.441   3.516   4.454
  235TIP3    H1  669   2.456   3.458   4.379
  235TIP3    H2  670   2.481   3.599   4.428
  236TIP3   OH2  671   0.554   2.284   1.169
  236TIP3    H1  672   0.554   2.189   1.161
  236TIP3    H2  673   0.515   2.301   1.255
  237TIP3   OH2  674   4.570   3.275   3.291
  237TIP3    H1  675   4.653   3.268   3.340
  237TIP3    H2  676   4.519   3.340   3.340
  238TIP3   OH2  677   2.753   6.204   1.003
  238TIP3    H1  678   2.663   6.231   1.023
  238TIP3    H2  679   2.745   6.157   0.919
  239TIP3   OH2  680   3.675   5.253   5.081
  239TIP3    H1  681   3.679   5.209   4.996
  239TIP3    H2  682   3.714   5.191   5.143
  240TIP3   OH2  683   2.827   2.458   4.765
  240TIP3    H1  684   2.770   2.464   4.842
  240TIP3    H2  685   2.797   2.379   4.719
  241TIP3   OH2  686   5.922   6.416   4.422
  241TIP3    H1  687   5.863   6.405   4.497
  241TIP3    H2  688   5.901   6.344   4.364
  242TIP3   OH2  689   6.756   1.682   0.059
  242TIP3    H1  690   6.828   1.736   0.091
  242TIP3    H2  691   6.725   1.635   0.136
  243TIP3   OH2  692   4.788   1.149   0.268
  243TIP3    H1  693   4.742   1.152   0.184
  243TIP3    H2  694   4.793   1.240   0.295
  244TIP3   OH2  695   1.204   0.778   2.857
  244TIP3    H1  696   1.141   0.846   2.838
  244TIP3    H2  697   1.261   0.816   2.925
  245TIP3   OH2  698  -0.027   3.004   3.162
  245TIP3    H1  699  -0.090   3.004   3.234
  245TIP3    H2  700   0.049   3.052   3.197
  246TIP3   OH2  701   6.975   5.966   0.249
  246TIP3    H1  702   6.895   6.013   0.224
  246TIP3    H2  703   7.046   6.023   0.220
  247TIP3   OH2  704   4.371   4.155   3.838
  247TIP3    H1  705   4.445   4.175   3.895
  247TIP3    H2  706   4.294   4.186   3.887
  248TIP3   OH2  707   5.645   5.511   0.711
  248TIP3    H1  708   5.552   5.526   0.692
  248TIP3    H2  709   5.647   5.494   0.805
  249TIP3   OH2  710   3.386   5.107   2.436
  249TIP3    H1  711   3.372   5.053   2.358
  249TIP3    H2  712   3.359   5.051   2.509
  250TIP3   OH2  713   4.053   1.569   4.438
  250TIP3    H1  714   4.146   1.547   4.444
  250TIP3    H2  715   4.008   1.487   4.459
  251TIP3   OH2  716   6.954   0.841   1.999
  251TIP3    H1  717   6.918   0.862   2.085
  251TIP3    H2  718   7.048   0.837   2.013
  252TIP3   OH2  719   0.075   1.292   0.484
  252TIP3    H1  720  -0.021   1.297   0.483
  252TIP3    H2  721   0.094   1.199   0.487
  253TIP3   OH2  722   2.573   5.035   2.272
  253TIP3    H1  723   2.559   5.024   2.366
  253TIP3    H2  724   2.654   4.987   2.255
  254TIP3   OH2  725   3.273   4.063   3.878
  254TIP3    H1  726   3.298   4.155   3.875
  254TIP3    H2  727   3.339   4.021   3.933
  255TIP3   OH2  728   0.434   4.194   0.078
  255TIP3    H1  729   0.453   4.208   0.171
  255TIP3    H2  730   0.481   4.265   0.033
  256TIP3   OH2  731   0.215   0.862   1.739
  256TIP3    H1  732   0.266   0.828   1.665
  256TIP3    H2  733   0.154   0.924   1.700
  257TIP3   OH2  734   3.076   4.156   1.567
  257TIP3    H1  735   3.148   4.105   1.606
  257TIP3    H2  736   3.012   4.091   1.540
  258TIP3   OH2  737   7.022   6.716   3.515
  258TIP3    H1  738   6.986   6.780   3.576
  258TIP3    H2  739   7.113   6.706   3.542
  259TIP3   OH2  740   3.026   0.309   4.456
  259TIP3    H1  741   3.101   0.355   4.419
  259TIP3    H2  742   3.056   0.218   4.465
  260TIP3   OH2  743   4.853   2.042   5.370
  260TIP3    H1  744   4.843   2.089   5.453
  260TIP3    H2  745   4.941   2.005   5.374
  261TIP3   OH2  746   4.275   2.348   3.648
  261TIP3    H1  747   4.222   2.426   3.668
  261TIP3    H2  748   4.365   2.379   3.655
  262TIP3   OH2  749   3.625   2.195   0.602
  262TIP3    H1  750   3.605   2.107   0.633
  262TIP3    H2  751   3.612   2.251   0.679
  263TIP3   OH2  752   5.436   6.026   4.608
  263TIP3    H1  753   5.471   6.094   4.666
  263TIP3    H2  754   5.365   6.069   4.561
  264TIP3   OH2  755   4.530   2.387   3.747
  264TIP3    H1  756   4.582   2.322   3.796
  264TIP3    H2  757   4.595   2.438   3.699
  265TIP3   OH2  758   1.716   0.686   0.989
  265TIP3    H1  759   1.801   0.681   1.032
  265TIP3    H2  760   1.654   0.702   1.060
  266TIP3   OH2  761   2.937   2.640   1.516
  266TIP3    H1  762   2.858   2.602   1.554
  266TIP3    H2  763   3.008   2.581   1.541
  267TIP3   OH2  764   6.861   6.136   0.613
  267TIP3    H1  765   6.776   6.092   0.613
  267TIP3    H2  766   6.905   6.103   0.691
  268TIP3   OH2  767   2.590   2.208   2.627
  268TIP3    H1  768   2.638   2.287   2.652
  268TIP3    H2  769   2.578   2.216   2.533
  269TIP3   OH2  770   7.255   5.293   1.068
  269TIP3    H1  771   7.264   5.210   1.021
  269TIP3    H2  772   7.184   5.339   1.023
  270TIP3   OH2  773   5.125   3.269   0.410
  270TIP3    H1  774   5.091   3.199   0.354
  270TIP3    H2  775   5.118   3.348   0.356
  271TIP3   OH2  776   1.424   6.022   2.653
  271TIP3    H1  777   1.359   5.955   2.631
  271TIP3    H2  778   1.424   6.025   2.749
  272TIP3   OH2  779   0.008   5.628   3.716
  272TIP3    H1  780   0.004   5.543   3.760
  272TIP3    H2  781   0.095   5.630   3.675
  273TIP3   OH2  782   4.893   5.798   2.796
  273TIP3    H1  783   4.876   5.883   2.756
  273TIP3    H2  784   4.962   5.815   2.860
  274TIP3   OH2  785   5.234   5.582   1.988
  274TIP3    H1  786   5.234   5.499   2.035
  274TIP3    H2  787   5.192   5.564   1.904
  275TIP3   OH2  788   7.161   3.147   2.718
  275TIP3    H1  789   7.129   3.231   2.685
  275TIP3    H2  790   7.202   3.105   2.643
  276TIP3   OH2  791   6.483   4.523   4.481
  276TIP3    H1  792   6.485   4.428   4.478
  276TIP3    H2  793   6.415   4.544   4.546
  277TIP3   OH2  794   1.303   2.046   1.592
  277TIP3    H1  795   1.255   2.129   1.590
  277TIP3    H2  796   1.269   2.000   1.669
  278TIP3   OH2  797   7.210   4.815   0.985
  278TIP3    H1  798   7.135   4.836   0.929
  278TIP3    H2  799   7.218   4.720   0.979
  279TIP3   OH2  800   2.842   1.967   4.564
  279TIP3    H1  801   2.828   1.885   4.516
  279TIP3    H2  802   2.866   1.940   4.652
  280TIP3   OH2  803   3.988   3.797   4.273
  280TIP3    H1  804   4.016   3.706   4.279
  280TIP3    H2  805   3.938   3.811   4.353
  281TIP3   OH2  806   0.894   0.550   4.989
  281TIP3    H1  807   0.943   0.620   5.032
  281TIP3    H2  808   0.888   0.481   5.055
  282TIP3   OH2  809   0.439   2.069   4.332
  282TIP3    H1  810   0.525   2.094   4.366
  282TIP3    H2  811   0.439   2.100   4.242
  283TIP3   OH2  812   3.330   1.379   2.646
  283TIP3    H1  813   3.418   1.381   2.609
  283TIP3    H2  814   3.342   1.408   2.737
  284TIP3   OH2  815   4.255   5.431   0.427
  284TIP3    H1  816   4.191   5.441   0.498
  284TIP3    H2  817   4.314   5.505   0.437
  285TIP3   OH2  818   5.966   1.659   2.574
  285TIP3    H1  819   5.894   1.637   2.633
  285TIP3    H2  820   5.927   1.715   2.508
  286TIP3   OH2  821   0.169   2.243   3.983
  286TIP3    H1  822   0.127   2.312   4.034
  286TIP3    H2  823   0.118   2.238   3.903
  287TIP3   OH2  824   6.973   0.383   1.654
  287TIP3    H1  825   6.940   0.466   1.619
  287TIP3    H2  826   6.922   0.370   1.734
  288TIP3   OH2  827   4.910   4.142   4.329
  288TIP3    H1  828   4.990   4.186   4.357
  288TIP3    H2  829   4.839   4.197   4.362
  289TIP3   OH2  830   5.518   3.492   3.302
  289TIP3    H1  831   5.471   3.409   3.303
  289TIP3    H2  832   5.562   3.494   3.217
  290TIP3   OH2  833   7.020   0.297   1.370
  290TIP3    H1  834   6.934   0.269   1.339
  290TIP3    H2  835   7.005   0.327   1.459
  291TIP3   OH2  836   5.772   1.180   4.011
  291TIP3    H1  837   5.766   1.105   3.952
  291TIP3    H2  838   5.781   1.142   4.098
  292TIP3   OH2  839   5.557   2.885   1.497
  292TIP3    H1  840   5.575   2.978   1.512
  292TIP3    H2  841   5.523   2.881   1.407
  293TIP3   OH2  842   4.972   2.175   3.875
  293TIP3    H1  843   4.903   2.143   3.816
  293TIP3    H2  844   5.003   2.097   3.921
  294TIP3   OH2  845   6.442   6.770   1.915
  294TIP3    H1  846   6.444   6.678   1.941
  294TIP3    H2  847   6.381   6.773   1.842
  295TIP3   OH2  848   3.487   4.003   1.494
  295TIP3    H1  849   3.557   4.065   1.474
  295TIP3    H2  850   3.525   3.944   1.559
  296TIP3   OH2  851   6.467   3.800   1.624
  296TIP3    H1  852   6.474   3.789   1.529
  296TIP3    H2  853   6.558   3.805   1.653
  297TIP3   OH2  854   0.849   1.118   4.576
  297TIP3    H1  855   0.832   1.213   4.572
  297TIP3    H2  856   0.852   1.090   4.485
  298TIP3   OH2  857   1.581   3.208   0.436
  298TIP3    H1  858   1.505   3.181   0.384
  298TIP3    H2  859   1.644   3.241   0.372
  299TIP3   OH2  860   5.251   4.838   2.969
  299TIP3    H1  861   5.218   4.810   2.884
  299TIP3    H2  862   5.256   4.757   3.021
  300TIP3   OH2  863   3.386   1.610   4.529
  300TIP3    H1  864   3.474   1.595   4.493
  300TIP3    H2  865   3.385   1.703   4.550
  301TIP3   OH2  866   4.192   3.245   3.773
  301TIP3    H1  867   4.179   3.157   3.739
  301TIP3    H2  868   4.104   3.282   3.779
  302TIP3   OH2  869   3.385   4.875   2.309
  302TIP3    H1  870   3.368   4.839   2.396
  302TIP3    H2  871   3.370   4.802   2.249
  303TIP3   OH2  872   0.233   3.330   5.393
  303TIP3    H1  873   0.211   3.257   5.450
  303TIP3    H2  874   0.224   3.296   5.305
  304TIP3   OH2  875   6.170   2.393   4.267
  304TIP3    H1  876   6.167   2.359   4.178
  304TIP3    H2  877   6.246   2.349   4.307
  305TIP3   OH2  878   0.135   4.544   0.478
  305TIP3    H1  879   0.146   4.478   0.409
  305TIP3    H2  880   0.176   4.505   0.555
  306TIP3   OH2  881   5.968   2.319   5.477
  306TIP3    H1  882   5.956   2.258   5.404
  306TIP3    H2  883   6.053   2.296   5.514
  307TIP3   OH2  884   4.634   3.327   4.614
  307TIP3    H1  885   4.588   3.399   4.657
  307TIP3    H2  886   4.571   3.294   4.549
  308TIP3   OH2  887   0.971   5.995   0.917
  308TIP3    H1  888   1.039   6.002   0.984
  308TIP3    H2  889   1.009   5.936   0.851
  309TIP3   OH2  890   0.673   6.365   5.721
  309TIP3    H1  891   0.585   6.331   5.706
  309TIP3    H2  892   0.714   6.364   5.634
  310TIP3   OH2  893   1.850   4.330   0.525
  310TIP3    H1  894   1.871   4.340   0.618
  310TIP3    H2  895   1.755   4.338   0.520
  311TIP3   OH2  896   2.145   5.447   3.234
  311TIP3    H1  897   2.064   5.396   3.238
  311TIP3    H2  898   2.158   5.478   3.323
  312TIP3   OH2  899   5.701   6.486   0.423
  312TIP3    H1  900   5.788   6.517   0.449
  312TIP3    H2  901   5.690   6.404   0.471
  313TIP3   OH2  902   6.987   2.619   5.005
  313TIP3    H1  903   6.979   2.673   5.084
  313TIP3    H2  904   7.012   2.680   4.936
  314TIP3   OH2  905   6.773   1.909   4.182
  314TIP3    H1  906   6.815   1.926   4.266
  314TIP3    H2  907   6.742   1.995   4.153
  315TIP3   OH2  908   2.464   4.470   3.891
  315TIP3    H1  909   2.476   4.379   3.862
  315TIP3    H2  910   2.373   4.490   3.870
  316TIP3   OH2  911   4.400   4.141   0.714
  316TIP3    H1  912   4.319   4.175   0.676
  316TIP3    H2  913   4.464   4.145   0.643
  317TIP3   OH2  914   0.923   1.428   5.828
  317TIP3    H1  915   0.885   1.340   5.825
  317TIP3    H2  916   0.853   1.485   5.795
  318TIP3   OH2  917   5.190   2.483   0.095
  318TIP3    H1  918   5.191   2.445   0.183
  318TIP3    H2  919   5.237   2.565   0.105
  319TIP3   OH2  920   3.786   5.634   0.797
  319TIP3    H1  921   3.836   5.712   0.820
  319TIP3    H2  922   3.801   5.622   0.703
  320TIP3   OH2  923   6.247   0.195   0.643
  320TIP3    H1  924   6.295   0.182   0.561
  320TIP3    H2  925   6.160   0.159   0.626
  321TIP3   OH2  926   5.333   2.890   1.028
  321TIP3    H1  927   5.300   2.980   1.017
  321TIP3    H2  928   5.372   2.869   0.943
  322TIP3   OH2  929   5.897   5.028   4.700
  322TIP3    H1  930   5.883   4.936   4.675
  322TIP3    H2  931   5.834   5.043   4.771
  323TIP3   OH2  932   6.590   4.826   5.380
  323TIP3    H1  933   6.623   4.791   5.297
  323TIP3    H2  934   6.598   4.753   5.441
  324TIP3   OH2  935   4.279   6.314   3.416
  324TIP3    H1  936   4.335   6.240   3.440
  324TIP3    H2  937   4.194   6.274   3.396
  325TIP3   OH2  938   5.578   4.399   0.007
  325TIP3    H1  939   5.551   4.377   0.096
  325TIP3    H2  940   5.496   4.401  -0.042
  326TIP3   OH2  941   4.799   0.168   4.485
  326TIP3    H1  942   4.809   0.177   4.580
  326TIP3    H2  943   4.774   0.077   4.471
  327TIP3   OH2  944   2.657   3.653   1.505
  327TIP3    H1  945   2.672   3.603   1.585
  327TIP3    H2  946   2.699   3.737   1.521
  328TIP3   OH2  947   3.827   4.153   0.071
  328TIP3    H1  948   3.778   4.180   0.149
  328TIP3    H2  949   3.804   4.218   0.005
  329TIP3   OH2  950   3.375   3.518   2.238
  329TIP3    H1  951   3.465   3.503   2.211
  329TIP3    H2  952   3.358   3.453   2.305
  330TIP3   OH2  953   3.316   0.678   4.065
  330TIP3    H1  954   3.276   0.667   3.979
  330TIP3    H2  955   3.397   0.727   4.048
  331TIP3   OH2  956   1.808   0.053   4.761
  331TIP3    H1  957   1.861   0.029   4.837
  331TIP3    H2  958   1.866   0.107   4.707
  332TIP3   OH2  959   3.256   2.612   1.536
  332TIP3    H1  960   3.259   2.551   1.463
  332TIP3    H2  961   3.199   2.571   1.600
  333TIP3   OH2  962   3.685   4.063   5.589
  333TIP3    H1  963   3.660   3.987   5.641
  333TIP3    H2  964   3.777   4.049   5.568
  334TIP3   OH2  965   5.174   5.373   3.161
  334TIP3    H1  966   5.228   5.304   3.122
  334TIP3    H2  967   5.167   5.349   3.253
  335TIP3   OH2  968   2.765   2.913   2.616
  335TIP3    H1  969   2.760   2.974   2.690
  335TIP3    H2  970   2.728   2.832   2.650
  336TIP3   OH2  971   4.419   2.427   5.544
  336TIP3    H1  972   4.352   2.458   5.483
  336TIP3    H2  973   4.467   2.506   5.570
  337TIP3   OH2  974   1.318   1.364   1.199
  337TIP3    H1  975   1.352   1.449   1.225
  337TIP3    H2  976   1.224   1.369   1.217
  338TIP3   OH2  977   6.173   5.420   3.357
  338TIP3    H1  978   6.130   5.489   3.306
  338TIP3    H2  979   6.266   5.429   3.337
  339TIP3   OH2  980   2.010   5.944   2.601
  339TIP3    H1  981   1.990   5.899   2.683
  339TIP3    H2  982   2.011   5.874   2.535
  340TIP3   OH2  983   1.303   1.935   1.855
  340TIP3    H1  984   1.220   1.983   1.852
  340TIP3    H2  985   1.313   1.911   1.947
  341TIP3   OH2  986   6.773   4.285   3.357
  341TIP3    H1  987   6.802   4.369   3.392
  341TIP3    H2  988   6.784   4.223   3.430
  342TIP3   OH2  989   5.026   2.483   5.262
  342TIP3    H1  990   4.941   2.509   5.227
  342TIP3    H2  991   5.057   2.414   5.202
  343TIP3   OH2  992   0.432   0.657   2.636
  343TIP3    H1  993   0.493   0.715   2.590
  343TIP3    H2  994   0.472   0.570   2.629
  344TIP3   OH2  995   2.053   0.519   3.867
  344TIP3    H1  996   2.045   0.517   3.963
  344TIP3    H2  997   2.126   0.579   3.851
  345TIP3   OH2  998   5.957   0.395   4.460
  345TIP3    H1  999   5.928   0.305   4.472
  345TIP3    H2 1000   5.979   0.400   4.367
  346TIP3   OH2 1001   6.199   3.794   2.229
  346TIP3    H1 1002   6.164   3.817   2.316
  346TIP3    H2 1003   6.126   3.810   2.169
  347TIP3   OH2 1004   4.313   3.505   2.552
  347TIP3    H1 1005   4.276   3.493   2.464
  347TIP3    H2 1006   4.255   3.456   2.609
  348TIP3   OH2 1007   0.232   5.703   3.407
  348TIP3    H1 1008   0.248   5.609   3.414
  348TIP3    H2 1009   0.300   5.744   3.460
  349TIP3   OH2 1010   3.614   4.668   1.000
  349TIP3    H1 1011   3.518   4.673   1.002
  349TIP3    H2 1012   3.633   4.574   1.011
  350TIP3   OH2 1013   4.139   1.110   5.171
  350TIP3    H1 1014   4.091   1.042   5.216
  350TIP3    H2 1015   4.214   1.065   5.132
  351TIP3   OH2 1016   2.727   3.199   0.072
  351TIP3    H1 1017   2.776   3.123   0.040
  351TIP3    H2 1018   2.636   3.181   0.049
  352TIP3   OH2 1019   2.195   4.791   1.752
  352TIP3    H1 1020   2.143   4.718   1.785
  352TIP3    H2 1021   2.159   4.868   1.797
  353TIP3   OH2 1022   1.162   5.648   5.581
  353TIP3    H1 1023   1.133   5.736   5.608
  353TIP3    H2 1024   1.119   5.634   5.497
  354TIP3   OH2 1025   3.449   5.857   5.170
  354TIP3    H1 1026   3.496   5.924   5.219
  354TIP3    H2 1027   3.362   5.895   5.155
  355TIP3   OH2 1028   5.187   6.082   1.183
  355TIP3    H1 1029   5.184   6.124   1.269
  355TIP3    H2 1030   5.236   6.143   1.128
  356TIP3   OH2 1031   2.057   2.808   3.260
  356TIP3    H1 1032   2.104   2.880   3.303
  356TIP3    H2 1033   2.123   2.767   3.204
  357TIP3   OH2 1034   3.615   2.377   0.026
  357TIP3    H1 1035   3.633   2.427  -0.054
  357TIP3    H2 1036   3.684   2.403   0.087
  358TIP3   OH2 1037   1.179   6.023   0.600
  358TIP3    H1 1038   1.245   6.050   0.664
  358TIP3    H2 1039   1.203   5.933   0.578
  359TIP3   OH2 1040   2.509   5.803   0.876
  359TIP3    H1 1041   2.567   5.832   0.947
  359TIP3    H2 1042   2.568   5.789   0.802
  360TIP3   OH2 1043   2.881   1.092   2.490
  360TIP3    H1 1044   2.828   1.170   2.475
  360TIP3    H2 1045   2.942   1.117   2.560
  361TIP3   OH2 1046   0.778   1.029   5.122
  361TIP3    H1 1047   0.793   1.121   5.145
  361TIP3    H2 1048   0.726   1.033   5.041
  362TIP3   OH2 1049   3.769   1.385   0.766
  362TIP3    H1 1050   3.853   1.407   0.727
  362TIP3    H2 1051   3.734   1.468   0.798
  363TIP3   OH2 1052   5.863   0.890   0.679
  363TIP3    H1 1053   5.893   0.874   0.768
  363TIP3    H2 1054   5.768   0.898   0.687
  364TIP3   OH2 1055   0.193   3.984   4.072
  364TIP3    H1 1056   0.098   3.982   4.081
  364TIP3    H2 1057   0.215   3.899   4.034
  365TIP3   OH2 1058   6.206   5.007   1.926
  365TIP3    H1 1059   6.224   5.097   1.953
  365TIP3    H2 1060   6.285   4.980   1.880
  366TIP3   OH2 1061   4.147   1.243   3.854
  366TIP3    H1 1062   4.082   1.290   3.803
  366TIP3    H2 1063   4.106   1.159   3.875
  367TIP3   OH2 1064   2.562   3.167   3.223
  367TIP3    H1 1065   2.653   3.138   3.214
  367TIP3    H2 1066   2.523   3.106   3.286
  368TIP3   OH2 1067   3.160   1.526   0.045
  368TIP3    H1 1068   3.102   1.458   0.079
  368TIP3    H2 1069   3.162   1.593   0.114
  369TIP3   OH2 1070   0.726   3.769   4.165
  369TIP3    H1 1071   0.706   3.680   4.136
  369TIP3    H2 1072   0.781   3.757   4.243
  370TIP3   OH2 1073   3.380   0.513   4.536
  370TIP3    H1 1074   3.362   0.518   4.442
  370TIP3    H2 1075   3.364   0.601   4.569
  371TIP3   OH2 1076   1.781   3.011   1.637
  371TIP3    H1 1077   1.832   2.953   1.693
  371TIP3    H2 1078   1.780   2.967   1.552
  372TIP3   OH2 1079   6.042   1.006   5.722
  372TIP3    H1 1080   6.119   0.952   5.741
  372TIP3    H2 1081   6.021   1.048   5.805
  373TIP3   OH2 1082   5.939   2.920   4.987
  373TIP3    H1 1083   5.951   2.872   4.906
  373TIP3    H2 1084   5.929   2.852   5.054
  374TIP3   OH2 1085   1.009   3.960   4.004
  374TIP3    H1 1086   0.973   3.927   3.921
  374TIP3    H2 1087   0.934   3.995   4.051
  375TIP3   OH2 1088   6.057   2.055   1.272
  375TIP3    H1 1089   5.976   2.106   1.261
  375TIP3    H2 1090   6.125   2.110   1.232
  376TIP3   OH2 1091   7.051   5.457   4.200
  376TIP3    H1 1092   7.017   5.539   4.236
  376TIP3    H2 1093   7.074   5.404   4.276
  377TIP3   OH2 1094   7.125   1.062   5.575
  377TIP3    H1 1095   7.087   1.068   5.487
  377TIP3    H2 1096   7.214   1.095   5.564
  378TIP3   OH2 1097   5.608   3.002   3.427
  378TIP3    H1 1098   5.628   2.965   3.341
  378TIP3    H2 1099   5.687   2.985   3.480
  379TIP3   OH2 1100   0.042   4.633   4.786
  379TIP3    H1 1101   0.057   4.724   4.761
  379TIP3    H2 1102   0.037   4.586   4.702
  380TIP3   OH2 1103   1.495   2.358   3.470
  380TIP3    H1 1104   1.422   2.386   3.415
  380TIP3    H2 1105   1.545   2.438   3.487
  381TIP3   OH2 1106   1.548   2.052   3.818
  381TIP3    H1 1107   1.578   1.988   3.882
  381TIP3    H2 1108   1.552   2.135   3.864
  382TIP3   OH2 1109   2.574   0.111   2.572
  382TIP3    H1 1110   2.592   0.107   2.478
  382TIP3    H2 1111   2.481   0.135   2.578
  383TIP3   OH2 1112   1.893   3.936   5.326
  383TIP3    H1 1113   1.933   3.993   5.260
  383TIP3    H2 1114   1.910   3.847   5.296
  384TIP3   OH2 1115   2.849   2.333   5.380
  384TIP3    H1 1116   2.938   2.350   5.412
  384TIP3    H2 1117   2.830   2.244   5.410
  385TIP3   OH2 1118   0.570   2.288   5.598
  385TIP3    H1 1119   0.497   2.319   5.651
  385TIP3    H2 1120   0.533   2.218   5.545
  386TIP3   OH2 1121   1.737   2.902   4.457
  386TIP3    H1 1122   1.714   2.809   4.459
  386TIP3    H2 1123   1.667   2.944   4.407
  387TIP3   OH2 1124   6.516   2.130   5.307
  387TIP3    H1 1125   6.593   2.074   5.316
  387TIP3    H2 1126   6.489   2.149   5.397
  388TIP3   OH2 1127   6.884   4.361   2.040
  388TIP3    H1 1128   6.971   4.321   2.035
  388TIP3    H2 1129   6.873   4.403   1.955
  389TIP3   OH2 1130   1.517   0.311   1.847
  389TIP3    H1 1131   1.552   0.309   1.936
  389TIP3    H2 1132   1.593   0.299   1.791
  390TIP3   OH2 1133   0.586   2.787   3.380
  390TIP3    H1 1134   0.642   2.829   3.446
  390TIP3    H2 1135   0.499   2.825   3.395
  391TIP3   OH2 1136   1.643   0.786   0.257
  391TIP3    H1 1137   1.651   0.802   0.351
  391TIP3    H2 1138   1.556   0.747   0.247
  392TIP3   OH2 1139   5.432   0.192   0.154
  392TIP3    H1 1140   5.472   0.279   0.152
  392TIP3    H2 1141   5.372   0.195   0.228
  393TIP3   OH2 1142   2.009   2.800   1.757
  393TIP3    H1 1143   1.945   2.768   1.821
  393TIP3    H2 1144   2.032   2.722   1.706
  394TIP3   OH2 1145   5.971   5.423   5.553
  394TIP3    H1 1146   6.029   5.367   5.604
  394TIP3    H2 1147   5.919   5.470   5.618
  395TIP3   OH2 1148   0.780   6.403   4.915
  395TIP3    H1 1149   0.805   6.370   5.001
  395TIP3    H2 1150   0.784   6.327   4.858
  396TIP3   OH2 1151   3.147   6.195   3.482
  396TIP3    H1 1152   3.240   6.212   3.466
  396TIP3    H2 1153   3.118   6.144   3.407
  397TIP3   OH2 1154   3.046   5.298   3.740
  397TIP3    H1 1155   2.970   5.356   3.731
  397TIP3    H2 1156   3.092   5.330   3.818
  398TIP3   OH2 1157   6.899   0.560   3.343
  398TIP3    H1 1158   6.992   0.573   3.361
  398TIP3    H2 1159   6.868   0.645   3.313
  399TIP3   OH2 1160   1.872   4.352   5.508
  399TIP3    H1 1161   1.943   4.287   5.507
  399TIP3    H2 1162   1.796   4.303   5.540
  400TIP3   OH2 1163   5.643   5.405   3.661
  400TIP3    H1 1164   5.706   5.334   3.653
  400TIP3    H2 1165   5.641   5.445   3.574
  401TIP3   OH2 1166   0.569   0.186   1.664
  401TIP3    H1 1167   0.534   0.101   1.638
  401TIP3    H2 1168   0.619   0.215   1.587
  402TIP3   OH2 1169   2.572   0.939   3.182
  402TIP3    H1 1170   2.529   0.896   3.256
  402TIP3    H2 1171   2.665   0.941   3.207
  403TIP3   OH2 1172   3.849   4.546   5.885
  403TIP3    H1 1173   3.794   4.602   5.830
  403TIP3    H2 1174   3.836   4.458   5.849
  404TIP3   OH2 1175   7.137   4.620   2.298
  404TIP3    H1 1176   7.167   4.529   2.293
  404TIP3    H2 1177   7.129   4.638   2.391
  405TIP3   OH2 1178   6.550   6.001   2.413
  405TIP3    H1 1179   6.633   5.955   2.398
  405TIP3    H2 1180   6.545   6.066   2.343
  406TIP3   OH2 1181   2.157   6.721   3.425
  406TIP3    H1 1182   2.099   6.794   3.449
  406TIP3    H2 1183   2.163   6.668   3.504
  407TIP3   OH2 1184   1.234   6.629   1.724
  407TIP3    H1 1185   1.315   6.585   1.699
  407TIP3    H2 1186   1.184   6.562   1.771
  408TIP3   OH2 1187   6.403   2.163   3.609
  408TIP3    H1 1188   6.483   2.124   3.646
  408TIP3    H2 1189   6.342   2.090   3.602
  409TIP3   OH2 1190   0.804   2.451   3.708
  409TIP3    H1 1191   0.724   2.499   3.685
  409TIP3    H2 1192   0.801   2.445   3.804
  410TIP3   OH2 1193   1.329   2.484   2.028
  410TIP3    H1 1194   1.311   2.467   2.121
  410TIP3    H2 1195   1.355   2.399   1.992
  411TIP3   OH2 1196   4.202   2.485   3.066
  411TIP3    H1 1197   4.202   2.514   3.157
  411TIP3    H2 1198   4.109   2.471   3.046
  412TIP3   OH2 1199   2.176   4.360   3.852
  412TIP3    H1 1200   2.093   4.339   3.893
  412TIP3    H2 1201   2.153   4.414   3.776
  413TIP3   OH2 1202   3.727   4.375   1.625
  413TIP3    H1 1203   3.716   4.470   1.638
  413TIP3    H2 1204   3.789   4.348   1.692
  414TIP3   OH2 1205   3.078   1.156   0.298
  414TIP3    H1 1206   3.015   1.204   0.352
  414TIP3    H2 1207   3.023   1.102   0.240
  415TIP3   OH2 1208   5.445   1.235   3.227
  415TIP3    H1 1209   5.438   1.197   3.315
  415TIP3    H2 1210   5.525   1.287   3.230
  416TIP3   OH2 1211   5.014   2.761   3.117
  416TIP3    H1 1212   4.995   2.792   3.029
  416TIP3    H2 1213   4.994   2.834   3.175
  417TIP3   OH2 1214   1.639   6.273   1.721
  417TIP3    H1 1215   1.717   6.219   1.730
  417TIP3    H2 1216   1.628   6.314   1.807
  418TIP3   OH2 1217   6.248   3.001   5.324
  418TIP3    H1 1218   6.301   2.946   5.382
  418TIP3    H2 1219   6.237   2.950   5.245
  419TIP3   OH2 1220   4.616   1.117   2.399
  419TIP3    H1 1221   4.666   1.140   2.321
  419TIP3    H2 1222   4.608   1.198   2.448
  420TIP3   OH2 1223   1.264   0.681   5.016
  420TIP3    H1 1224   1.284   0.694   4.924
  420TIP3    H2 1225   1.338   0.719   5.063
  421TIP3   OH2 1226   5.188   4.226   2.674
  421TIP3    H1 1227   5.115   4.171   2.645
  421TIP3    H2 1228   5.168   4.247   2.765
  422TIP3   OH2 1229   0.318   1.151   5.728
  422TIP3    H1 1230   0.349   1.129   5.816
  422TIP3    H2 1231   0.227   1.177   5.740
  423TIP3   OH2 1232   2.658   6.612   0.230
  423TIP3    H1 1233   2.750   6.586   0.239
  423TIP3    H2 1234   2.633   6.645   0.316
  424TIP3   OH2 1235   5.442   5.954   1.305
  424TIP3    H1 1236   5.348   5.956   1.286
  424TIP3    H2 1237   5.449   5.897   1.382
  425TIP3   OH2 1238   3.289   3.223   2.431
  425TIP3    H1 1239   3.353   3.195   2.365
  425TIP3    H2 1240   3.290   3.153   2.497
  426TIP3   OH2 1241   0.634   4.759   4.644
  426TIP3    H1 1242   0.630   4.685   4.704
  426TIP3    H2 1243   0.546   4.796   4.646
  427TIP3   OH2 1244   6.155   0.665   3.128
  427TIP3    H1 1245   6.113   0.722   3.064
  427TIP3    H2 1246   6.117   0.579   3.112
  428TIP3   OH2 1247   5.658   5.496   0.977
  428TIP3    H1 1248   5.734   5.473   1.030
  428TIP3    H2 1249   5.627   5.579   1.013
  429TIP3   OH2 1250   0.333   4.942   0.466
  429TIP3    H1 1251   0.363   4.998   0.395
  429TIP3    H2 1252   0.299   4.864   0.423
  430TIP3   OH2 1253   2.640   5.708   0.653
  430TIP3    H1 1254   2.710   5.683   0.712
  430TIP3    H2 1255   2.684   5.740   0.575
  431TIP3   OH2 1256   2.530   3.340   4.237
  431TIP3    H1 1257   2.570   3.266   4.283
  431TIP3    H2 1258   2.537   3.317   4.145
  432TIP3   OH2 1259   2.591   6.812   3.756
  432TIP3    H1 1260   2.662   6.769   3.804
  432TIP3    H2 1261   2.552   6.743   3.703
  433TIP3   OH2 1262   5.638   3.607   5.355
  433TIP3    H1 1263   5.594   3.641   5.433
  433TIP3    H2 1264   5.578   3.542   5.319
  434TIP3   OH2 1265   4.493   2.543   3.966
  434TIP3    H1 1266   4.504   2.480   3.895
  434TIP3    H2 1267   4.474   2.626   3.922
  435TIP3   OH2 1268   1.597   1.778   5.702
  435TIP3    H1 1269   1.605   1.869   5.731
  435TIP3    H2 1270   1.613   1.782   5.608
  436TIP3   OH2 1271   1.364   5.659   5.106
  436TIP3    H1 1272   1.347   5.579   5.154
  436TIP3    H2 1273   1.447   5.691   5.141
  437TIP3   OH2 1274   1.464   6.138   2.383
  437TIP3    H1 1275   1.373   6.109   2.383
  437TIP3    H2 1276   1.496   6.117   2.471
  438TIP3   OH2 1277   5.308   0.438   1.710
  438TIP3    H1 1278   5.391   0.390   1.713
  438TIP3    H2 1279   5.243   0.371   1.691
  439TIP3   OH2 1280   5.524   6.835   5.679
  439TIP3    H1 1281   5.462   6.843   5.606
  439TIP3    H2 1282   5.470   6.805   5.753
  440TIP3   OH2 1283   2.037   1.210   2.835
  440TIP3    H1 1284   2.082   1.277   2.783
  440TIP3    H2 1285   2.018   1.253   2.918
  441TIP3   OH2 1286   1.472   2.512   2.490
  441TIP3    H1 1287   1.527   2.469   2.556
  441TIP3    H2 1288   1.461   2.446   2.421
  442TIP3   OH2 1289   0.578   3.787   1.314
  442TIP3    H1 1290   0.664   3.774   1.354
  442TIP3    H2 1291   0.536   3.701   1.319
  443TIP3   OH2 1292   5.909   4.306   2.037
  443TIP3    H1 1293   5.951   4.389   2.058
  443TIP3    H2 1294   5.863   4.322   1.954
  444TIP3   OH2 1295   0.318   2.899   4.205
  444TIP3    H1 1296   0.265   2.961   4.254
  444TIP3    H2 1297   0.291   2.910   4.114
  445TIP3   OH2 1298   3.204   6.270   4.801
  445TIP3    H1 1299   3.123   6.317   4.818
  445TIP3    H2 1300   3.261   6.293   4.874
  446TIP3   OH2 1301   4.046   4.307   2.081
  446TIP3    H1 1302   4.039   4.240   2.149
  446TIP3    H2 1303   3.955   4.328   2.059
  447TIP3   OH2 1304   4.372   3.446   3.760
  447TIP3    H1 1305   4.316   3.369   3.768
  447TIP3    H2 1306   4.311   3.516   3.735
  448TIP3   OH2 1307   0.118   5.985   1.863
  448TIP3    H1 1308   0.133   6.027   1.778
  448TIP3    H2 1309   0.052   5.917   1.845
  449TIP3   OH2 1310   0.138   1.104   2.153
  449TIP3    H1 1311   0.219   1.151   2.174
  449TIP3    H2 1312   0.076   1.173   2.131
  450TIP3   OH2 1313   0.444   0.400   1.772
  450TIP3    H1 1314   0.503   0.325   1.764
  450TIP3    H2 1315   0.430   0.429   1.681
  451TIP3   OH2 1316   3.854   5.674   0.501
  451TIP3    H1 1317   3.775   5.627   0.475
  451TIP3    H2 1318   3.831   5.767   0.493
  452TIP3   OH2 1319   4.747   0.737   4.168
  452TIP3    H1 1320   4.791   0.665   4.122
  452TIP3    H2 1321   4.725   0.702   4.254
  453TIP3   OH2 1322   0.241   1.598   2.920
  453TIP3    H1 1323   0.288   1.524   2.958
  453TIP3    H2 1324   0.233   1.576   2.827
  454TIP3   OH2 1325   0.056   2.596   1.432
  454TIP3    H1 1326  -0.020   2.552   1.470
  454TIP3    H2 1327   0.026   2.627   1.347
  455TIP3   OH2 1328   4.267   5.628   4.810
  455TIP3    H1 1329   4.207   5.700   4.793
  455TIP3    H2 1330   4.215   5.565   4.861
  456TIP3   OH2 1331   4.842   5.635   3.245
  456TIP3    H1 1332   4.900   5.647   3.320
  456TIP3    H2 1333   4.756   5.660   3.278
  457TIP3   OH2 1334   2.097   1.909   3.064
  457TIP3    H1 1335   2.082   1.860   3.145
  457TIP3    H2 1336   2.018   1.962   3.054
  458TIP3   OH2 1337   6.434   4.551   1.081
  458TIP3    H1 1338   6.486   4.470   1.079
  458TIP3    H2 1339   6.387   4.547   1.165
  459TIP3   OH2 1340   1.044   6.492   3.641
  459TIP3    H1 1341   1.000   6.577   3.651
  459TIP3    H2 1342   0.983   6.429   3.679
  460TIP3   OH2 1343   0.280   0.964   3.612
  460TIP3    H1 1344   0.256   1.017   3.536
  460TIP3    H2 1345   0.374   0.953   3.605
  461TIP3   OH2 1346   2.089   0.784   1.697
  461TIP3    H1 1347   2.133   0.797   1.613
  461TIP3    H2 1348   2.019   0.721   1.678
  462TIP3   OH2 1349   0.734   6.388   4.561
  462TIP3    H1 1350   0.641   6.377   4.543
  462TIP3    H2 1351   0.761   6.304   4.600
  463TIP3   OH2 1352   3.327   6.338   1.813
  463TIP3    H1 1353   3.334   6.433   1.799
  463TIP3    H2 1354   3.398   6.317   1.873
  464TIP3   OH2 1355   1.173   5.377   5.001
  464TIP3    H1 1356   1.179   5.450   4.940
  464TIP3    H2 1357   1.223   5.406   5.078
  465TIP3   OH2 1358   4.994   4.013   5.753
  465TIP3    H1 1359   5.018   4.037   5.843
  465TIP3    H2 1360   5.025   4.086   5.699
  466TIP3   OH2 1361   7.087   2.897   0.486
  466TIP3    H1 1362   7.017   2.960   0.470
  466TIP3    H2 1363   7.111   2.910   0.578
  467TIP3   OH2 1364   5.116   6.778   3.243
  467TIP3    H1 1365   5.206   6.745   3.238
  467TIP3    H2 1366   5.098   6.783   3.337
  468TIP3   OH2 1367   3.105   3.418   1.027
  468TIP3    H1 1368   3.158   3.345   1.058
  468TIP3    H2 1369   3.020   3.408   1.071
  469TIP3   OH2 1370   5.327   4.432   5.133
  469TIP3    H1 1371   5.257   4.497   5.140
  469TIP3    H2 1372   5.404   4.482   5.105
  470TIP3   OH2 1373   7.180   1.330   2.217
  470TIP3    H1 1374   7.091   1.319   2.250
  470TIP3    H2 1375   7.222   1.390   2.280
  471TIP3   OH2 1376   6.635   0.897   4.290
  471TIP3    H1 1377   6.659   0.809   4.319
  471TIP3    H2 1378   6.638   0.950   4.370
  472TIP3   OH2 1379   5.801   4.774   4.703
  472TIP3    H1 1380   5.712   4.763   4.669
  472TIP3    H2 1381   5.846   4.692   4.680
  473TIP3   OH2 1382   3.809   5.817   1.696
  473TIP3    H1 1383   3.815   5.841   1.604
  473TIP3    H2 1384   3.756   5.887   1.735
  474TIP3   OH2 1385   4.679   5.578   2.980
  474TIP3    H1 1386   4.725   5.503   2.942
  474TIP3    H2 1387   4.748   5.642   2.998
  475TIP3   OH2 1388   2.709   1.506   2.777
  475TIP3    H1 1389   2.681   1.414   2.777
  475TIP3    H2 1390   2.633   1.553   2.811
  476TIP3   OH2 1391   1.022   5.121   0.335
  476TIP3    H1 1392   1.095   5.059   0.326
  476TIP3    H2 1393   1.000   5.119   0.428
  477TIP3   OH2 1394   4.823   4.432   5.088
  477TIP3    H1 1395   4.898   4.423   5.029
  477TIP3    H2 1396   4.747   4.417   5.032
  478TIP3   OH2 1397   2.939   5.936   0.318
  478TIP3    H1 1398   2.943   6.031   0.301
  478TIP3    H2 1399   3.031   5.911   0.332
  479TIP3   OH2 1400   3.144   6.775   1.061
  479TIP3    H1 1401   3.133   6.843   1.128
  479TIP3    H2 1402   3.137   6.823   0.978
  480TIP3   OH2 1403   6.516  -0.056   4.092
  480TIP3    H1 1404   6.422  -0.065   4.078
  480TIP3    H2 1405   6.540   0.024   4.046
  481TIP3   OH2 1406   0.358   2.334   4.923
  481TIP3    H1 1407   0.310   2.374   4.851
  481TIP3    H2 1408   0.310   2.253   4.942
  482TIP3   OH2 1409   0.141   1.864   0.082
  482TIP3    H1 1410   0.166   1.787   0.031
  482TIP3    H2 1411   0.136   1.832   0.172
  483TIP3   OH2 1412   0.898   2.246   4.431
  483TIP3    H1 1413   0.971   2.282   4.381
  483TIP3    H2 1414   0.847   2.322   4.458
  484TIP3   OH2 1415   4.138   5.545   0.190
  484TIP3    H1 1416   4.051   5.550   0.230
  484TIP3    H2 1417   4.188   5.488   0.249
  485TIP3   OH2 1418   2.418   5.541   4.168
  485TIP3    H1 1419   2.423   5.465   4.110
  485TIP3    H2 1420   2.325   5.553   4.184
  486TIP3   OH2 1421   4.609   6.454   2.994
  486TIP3    H1 1422   4.668   6.380   3.012
  486TIP3    H2 1423   4.665   6.519   2.952
  487TIP3   OH2 1424   6.840   6.162   3.021
  487TIP3    H1 1425   6.755   6.118   3.030
  487TIP3    H2 1426   6.877   6.163   3.109
  488TIP3   OH2 1427   7.088   2.693   4.650
  488TIP3    H1 1428   7.057   2.739   4.572
  488TIP3    H2 1429   7.070   2.752   4.723
  489TIP3   OH2 1430   2.481   3.599   4.111
  489TIP3    H1 1431   2.480   3.517   4.160
  489TIP3    H2 1432   2.434   3.578   4.030
  490TIP3   OH2 1433   5.629   0.945   5.086
  490TIP3    H1 1434   5.538   0.948   5.115
  490TIP3    H2 1435   5.678   0.913   5.161
  491TIP3   OH2 1436   4.589   3.810   5.050
  491TIP3    H1 1437   4.553   3.851   4.971
  491TIP3    H2 1438   4.658   3.752   5.018
  492TIP3   OH2 1439   1.533   5.178   0.993
  492TIP3    H1 1440   1.454   5.227   1.015
  492TIP3    H2 1441   1.555   5.207   0.905
  493TIP3   OH2 1442   4.851   2.541   4.359
  493TIP3    H1 1443   4.806   2.553   4.276
  493TIP3    H2 1444   4.861   2.446   4.368
  494TIP3   OH2 1445   3.364   0.800   4.581
  494TIP3    H1 1446   3.280   0.825   4.620
  494TIP3    H2 1447   3.401   0.882   4.549
  495TIP3   OH2 1448   4.266   1.484   1.658
  495TIP3    H1 1449   4.352   1.451   1.687
  495TIP3    H2 1450   4.237   1.420   1.593
  496TIP3   OH2 1451   3.440   3.424   2.674
  496TIP3    H1 1452   3.509   3.375   2.631
  496TIP3    H2 1453   3.482   3.464   2.750
  497TIP3   OH2 1454   2.975   3.602   0.096
  497TIP3    H1 1455   2.919   3.629   0.023
  497TIP3    H2 1456   2.999   3.511   0.076
  498TIP3   OH2 1457   1.440   4.320   2.557
  498TIP3    H1 1458   1.454   4.227   2.543
  498TIP3    H2 1459   1.384   4.325   2.634
  499TIP3   OH2 1460   6.017   2.153   3.649
  499TIP3    H1 1461   5.995   2.149   3.742
  499TIP3    H2 1462   6.021   2.247   3.629
  500TIP3   OH2 1463   3.045   3.921   1.015
  500TIP3    H1 1464   2.970   3.863   0.997
  500TIP3    H2 1465   3.116   3.861   1.037
  501TIP3   OH2 1466   0.907   1.963   5.595
  501TIP3    H1 1467   0.987   1.912   5.608
  501TIP3    H2 1468   0.938   2.048   5.564
  502TIP3   OH2 1469   1.888   0.623   1.353
  502TIP3    H1 1470   1.827   0.549   1.352
  502TIP3    H2 1471   1.971   0.585   1.323
  503TIP3   OH2 1472   3.493   4.539   4.205
  503TIP3    H1 1473   3.516   4.574   4.291
  503TIP3    H2 1474   3.460   4.451   4.223
  504TIP3   OH2 1475   4.571   2.938   1.823
  504TIP3    H1 1476   4.486   2.919   1.781
  504TIP3    H2 1477   4.628   2.965   1.751
  505TIP3   OH2 1478   0.237   0.946   2.988
  505TIP3    H1 1479   0.311   0.928   2.930
  505TIP3    H2 1480   0.165   0.969   2.929
  506TIP3   OH2 1481   0.832   4.790   0.202
  506TIP3    H1 1482   0.737   4.797   0.205
  506TIP3    H2 1483   0.856   4.756   0.289
  507TIP3   OH2 1484   4.738   3.351   2.552
  507TIP3    H1 1485   4.784   3.433   2.565
  507TIP3    H2 1486   4.662   3.356   2.610
  508TIP3   OH2 1487   0.763   2.058   1.447
  508TIP3    H1 1488   0.836   2.106   1.487
  508TIP3    H2 1489   0.802   2.016   1.370
  509TIP3   OH2 1490   4.769   5.577   1.528
  509TIP3    H1 1491   4.798   5.629   1.603
  509TIP3    H2 1492   4.768   5.638   1.454
  510TIP3   OH2 1493   5.621   4.019   5.661
  510TIP3    H1 1494   5.613   4.019   5.565
  510TIP3    H2 1495   5.625   4.112   5.685
  511TIP3   OH2 1496   4.976   6.505   0.322
  511TIP3    H1 1497   4.917   6.575   0.350
  511TIP3    H2 1498   4.943   6.427   0.368
  512TIP3   OH2 1499   1.035   5.980   4.997
  512TIP3    H1 1500   1.076   5.951   5.079
  512TIP3    H2 1501   1.102   6.033   4.954
  513TIP3   OH2 1502   7.080   5.572   0.612
  513TIP3    H1 1503   7.115   5.661   0.606
  513TIP3    H2 1504   7.096   5.535   0.525
  514TIP3   OH2 1505   5.648   2.424   4.564
  514TIP3    H1 1506   5.684   2.504   4.604
  514TIP3    H2 1507   5.694   2.353   4.608
  515TIP3   OH2 1508   6.504   3.751   0.562
  515TIP3    H1 1509   6.558   3.729   0.485
  515TIP3    H2 1510   6.430   3.800   0.526
  516TIP3   OH2 1511   3.588   0.413   1.684
  516TIP3    H1 1512   3.561   0.372   1.602
  516TIP3    H2 1513   3.667   0.367   1.709
  517TIP3   OH2 1514   1.325   2.720   1.484
  517TIP3    H1 1515   1.283   2.792   1.436
  517TIP3    H2 1516   1.289   2.641   1.444
  518TIP3   OH2 1517   6.514   4.887   2.636
  518TIP3    H1 1518   6.443   4.824   2.629
  518TIP3    H2 1519   6.542   4.901   2.545
  519TIP3   OH2 1520   6.584   2.259   5.861
  519TIP3    H1 1521   6.668   2.245   5.904
  519TIP3    H2 1522   6.543   2.330   5.910
  520TIP3   OH2 1523   1.230   5.321   4.053
  520TIP3    H1 1524   1.208   5.236   4.015
  520TIP3    H2 1525   1.316   5.308   4.093
  521TIP3   OH2 1526   3.791   0.174   1.610
  521TIP3    H1 1527   3.848   0.239   1.569
  521TIP3    H2 1528   3.824   0.090   1.579
  522TIP3   OH2 1529   0.185   3.160   4.299
  522TIP3    H1 1530   0.197   3.228   4.366
  522TIP3    H2 1531   0.162   3.082   4.349
  523TIP3   OH2 1532   0.975   6.719   5.199
  523TIP3    H1 1533   0.964   6.767   5.117
  523TIP3    H2 1534   1.066   6.737   5.225
  524TIP3   OH2 1535   3.685   6.296   0.890
  524TIP3    H1 1536   3.718   6.249   0.814
  524TIP3    H2 1537   3.638   6.229   0.941
  525TIP3   OH2 1538   0.956   5.251   3.504
  525TIP3    H1 1539   1.020   5.302   3.553
  525TIP3    H2 1540   0.970   5.160   3.531
  526TIP3   OH2 1541   1.581   5.645   2.513
  526TIP3    H1 1542   1.597   5.642   2.418
  526TIP3    H2 1543   1.500   5.595   2.525
  527TIP3   OH2 1544   4.246   4.598   1.286
  527TIP3    H1 1545   4.151   4.595   1.275
  527TIP3    H2 1546   4.270   4.511   1.318
  528TIP3   OH2 1547   3.302   4.088   3.588
  528TIP3    H1 1548   3.303   4.050   3.676
  528TIP3    H2 1549   3.257   4.023   3.535
  529TIP3   OH2 1550   3.325   2.815   3.937
  529TIP3    H1 1551   3.303   2.901   3.901
  529TIP3    H2 1552   3.326   2.756   3.862
  530TIP3   OH2 1553   5.264   3.643   2.721
  530TIP3    H1 1554   5.311   3.628   2.802
  530TIP3    H2 1555   5.238   3.735   2.725
  531TIP3   OH2 1556   6.160   3.256   5.272
  531TIP3    H1 1557   6.202   3.173   5.292
  531TIP3    H2 1558   6.097   3.235   5.202
  532TIP3   OH2 1559   1.857   4.412   5.242
  532TIP3    H1 1560   1.807   4.355   5.184
  532TIP3    H2 1561   1.821   4.393   5.329
  533TIP3   OH2 1562   2.799   5.450   1.204
  533TIP3    H1 1563   2.795   5.358   1.232
  533TIP3    H2 1564   2.708   5.481   1.209
  534TIP3   OH2 1565   4.329   0.802   4.929
  534TIP3    H1 1566   4.367   0.722   4.892
  534TIP3    H2 1567   4.261   0.827   4.867
  535TIP3   OH2 1568   5.807   3.757   5.203
  535TIP3    H1 1569   5.755   3.708   5.267
  535TIP3    H2 1570   5.855   3.821   5.256
  536TIP3   OH2 1571   3.867   5.536   1.735
  536TIP3    H1 1572   3.950   5.547   1.782
  536TIP3    H2 1573   3.828   5.623   1.735
  537TIP3   OH2 1574   3.887   2.884   1.127
  537TIP3    H1 1575   3.866   2.810   1.070
  537TIP3    H2 1576   3.803   2.926   1.145
  538TIP3   OH2 1577   2.408   1.342   1.191
  538TIP3    H1 1578   2.452   1.286   1.254
  538TIP3    H2 1579   2.315   1.330   1.208
  539TIP3   OH2 1580   5.716   5.710   4.566
  539TIP3    H1 1581   5.672   5.783   4.522
  539TIP3    H2 1582   5.700   5.635   4.509
  540TIP3   OH2 1583   2.099   4.203   0.289
  540TIP3    H1 1584   2.037   4.132   0.302
  540TIP3    H2 1585   2.176   4.177   0.339
  541TIP3   OH2 1586   6.780   0.820   3.562
  541TIP3    H1 1587   6.876   0.816   3.568
  541TIP3    H2 1588   6.761   0.913   3.553
  542TIP3   OH2 1589   4.075   4.296   0.976
  542TIP3    H1 1590   4.095   4.383   0.940
  542TIP3    H2 1591   4.160   4.262   1.004
  543TIP3   OH2 1592   2.538   3.995   0.193
  543TIP3    H1 1593   2.595   3.992   0.116
  543TIP3    H2 1594   2.544   4.086   0.223
  544TIP3   OH2 1595   3.470   1.103   1.088
  544TIP3    H1 1596   3.546   1.102   1.031
  544TIP3    H2 1597   3.464   1.013   1.121
  545TIP3   OH2 1598   3.350   2.952   0.159
  545TIP3    H1 1599   3.391   2.886   0.102
  545TIP3    H2 1600   3.363   2.917   0.248
  546TIP3   OH2 1601   3.318   0.104   4.987
  546TIP3    H1 1602   3.260   0.179   4.982
  546TIP3    H2 1603   3.311   0.062   4.901
  547TIP3   OH2 1604   4.609   1.296   5.049
  547TIP3    H1 1605   4.633   1.240   5.123
  547TIP3    H2 1606   4.692   1.334   5.020
  548TIP3   OH2 1607   0.296   3.720   2.533
  548TIP3    H1 1608   0.257   3.633   2.526
  548TIP3    H2 1609   0.227   3.775   2.570
  549TIP3   OH2 1610   0.833   1.656   2.075
  549TIP3    H1 1611   0.882   1.574   2.084
  549TIP3    H2 1612   0.899   1.725   2.074
  550TIP3   OH2 1613   0.862   0.729   2.522
  550TIP3    H1 1614   0.908   0.682   2.453
  550TIP3    H2 1615   0.927   0.792   2.555
  551TIP3   OH2 1616   0.666   4.368   1.044
  551TIP3    H1 1617   0.643   4.426   1.117
  551TIP3    H2 1618   0.761   4.355   1.053
  552TIP3   OH2 1619   4.066   1.181   4.468
  552TIP3    H1 1620   4.121   1.188   4.390
  552TIP3    H2 1621   4.119   1.221   4.537
  553TIP3   OH2 1622   1.233   4.465   1.249
  553TIP3    H1 1623   1.204   4.376   1.267
  553TIP3    H2 1624   1.327   4.458   1.235
  554TIP3   OH2 1625   3.103   3.365   4.233
  554TIP3    H1 1626   3.167   3.312   4.185
  554TIP3    H2 1627   3.018   3.335   4.200
  555TIP3   OH2 1628   6.414   5.295   3.027
  555TIP3    H1 1629   6.332   5.245   3.022
  555TIP3    H2 1630   6.464   5.266   2.951
  556TIP3   OH2 1631   1.506   2.295   1.287
  556TIP3    H1 1632   1.508   2.233   1.361
  556TIP3    H2 1633   1.480   2.378   1.326
  557TIP3   OH2 1634   1.403   5.290   1.522
  557TIP3    H1 1635   1.455   5.229   1.574
  557TIP3    H2 1636   1.314   5.254   1.523
  558TIP3   OH2 1637   4.948   1.900   3.194
  558TIP3    H1 1638   4.913   1.968   3.137
  558TIP3    H2 1639   4.906   1.915   3.278
  559TIP3   OH2 1640   1.993   5.629   4.361
  559TIP3    H1 1641   1.932   5.587   4.421
  559TIP3    H2 1642   2.075   5.634   4.411
  560TIP3   OH2 1643   3.536   4.456   2.099
  560TIP3    H1 1644   3.491   4.375   2.122
  560TIP3    H2 1645   3.476   4.500   2.038
  561TIP3   OH2 1646   5.015   2.717   0.437
  561TIP3    H1 1647   5.014   2.622   0.435
  561TIP3    H2 1648   4.937   2.741   0.487
  562TIP3   OH2 1649   4.905   4.831   2.186
  562TIP3    H1 1650   4.984   4.835   2.132
  562TIP3    H2 1651   4.937   4.837   2.276
  563TIP3   OH2 1652   6.090   4.853   5.901
  563TIP3    H1 1653   6.095   4.800   5.821
  563TIP3    H2 1654   6.003   4.894   5.896
  564TIP3   OH2 1655   0.128   2.012   4.883
  564TIP3    H1 1656   0.202   2.039   4.938
  564TIP3    H2 1657   0.150   1.923   4.856
  565TIP3   OH2 1658   6.110   3.861   5.810
  565TIP3    H1 1659   6.116   3.843   5.904
  565TIP3    H2 1660   6.015   3.867   5.794
  566TIP3   OH2 1661   3.383   1.495   1.765
  566TIP3    H1 1662   3.458   1.507   1.706
  566TIP3    H2 1663   3.379   1.577   1.815
  567TIP3   OH2 1664   5.645   4.294   5.718
  567TIP3    H1 1665   5.703   4.357   5.761
  567TIP3    H2 1666   5.623   4.336   5.634
  568TIP3   OH2 1667   3.429   0.533   0.239
  568TIP3    H1 1668   3.418   0.628   0.238
  568TIP3    H2 1669   3.368   0.501   0.172
  569TIP3   OH2 1670   2.109   3.716   4.334
  569TIP3    H1 1671   2.164   3.774   4.386
  569TIP3    H2 1672   2.020   3.729   4.368
  570TIP3   OH2 1673   6.810   3.053   1.432
  570TIP3    H1 1674   6.793   3.087   1.520
  570TIP3    H2 1675   6.883   2.992   1.443
  571TIP3   OH2 1676   0.968   3.815   5.276
  571TIP3    H1 1677   0.874   3.831   5.283
  571TIP3    H2 1678   1.009   3.895   5.308
  572TIP3   OH2 1679   5.231   1.656   1.217
  572TIP3    H1 1680   5.292   1.667   1.289
  572TIP3    H2 1681   5.287   1.656   1.139
  573TIP3   OH2 1682   1.670   4.198   5.772
  573TIP3    H1 1683   1.734   4.233   5.835
  573TIP3    H2 1684   1.677   4.103   5.780
  574TIP3   OH2 1685   7.194   2.129   1.857
  574TIP3    H1 1686   7.221   2.173   1.776
  574TIP3    H2 1687   7.143   2.053   1.828
  575TIP3   OH2 1688   4.995   6.720   3.001
  575TIP3    H1 1689   5.040   6.724   3.086
  575TIP3    H2 1690   4.952   6.806   2.994
  576TIP3   OH2 1691   2.658   0.217   1.120
  576TIP3    H1 1692   2.568   0.201   1.092
  576TIP3    H2 1693   2.694   0.129   1.136
  577TIP3   OH2 1694   4.026   5.342   5.866
  577TIP3    H1 1695   3.981   5.259   5.850
  577TIP3    H2 1696   4.104   5.338   5.811
  578TIP3   OH2 1697   6.282   2.239   5.192
  578TIP3    H1 1698   6.349   2.184   5.233
  578TIP3    H2 1699   6.199   2.199   5.217
  579TIP3   OH2 1700   3.766   2.255   0.233
  579TIP3    H1 1701   3.674   2.232   0.222
  579TIP3    H2 1702   3.810   2.217   0.157
  580TIP3   OH2 1703   4.922   5.590   5.884
  580TIP3    H1 1704   4.976   5.525   5.839
  580TIP3    H2 1705   4.985   5.656   5.916
  581TIP3   OH2 1706   5.091   5.178   0.592
  581TIP3    H1 1707   5.020   5.116   0.610
  581TIP3    H2 1708   5.155   5.126   0.542
  582TIP3   OH2 1709   4.167   1.374   2.037
  582TIP3    H1 1710   4.161   1.284   2.067
  582TIP3    H2 1711   4.097   1.420   2.083
  583TIP3   OH2 1712   2.180   1.509   4.162
  583TIP3    H1 1713   2.166   1.443   4.230
  583TIP3    H2 1714   2.181   1.592   4.209
  584TIP3   OH2 1715   0.144   3.223   5.128
  584TIP3    H1 1716   0.091   3.212   5.050
  584TIP3    H2 1717   0.198   3.143   5.131
  585TIP3   OH2 1718   3.740   3.790   0.513
  585TIP3    H1 1719   3.678   3.747   0.454
  585TIP3    H2 1720   3.774   3.864   0.463
  586TIP3   OH2 1721   4.747   0.785   3.862
  586TIP3    H1 1722   4.719   0.770   3.772
  586TIP3    H2 1723   4.670   0.762   3.915
  587TIP3   OH2 1724   2.200   3.966   3.309
  587TIP3    H1 1725   2.128   3.982   3.248
  587TIP3    H2 1726   2.233   3.880   3.285
  588TIP3   OH2 1727   0.906   3.202   3.370
  588TIP3    H1 1728   0.824   3.250   3.364
  588TIP3    H2 1729   0.883   3.113   3.343
  589TIP3   OH2 1730   2.315   1.276   0.940
  589TIP3    H1 1731   2.386   1.313   0.888
  589TIP3    H2 1732   2.333   1.303   1.030
  590TIP3   OH2 1733   4.551   4.349   3.236
  590TIP3    H1 1734   4.476   4.296   3.264
  590TIP3    H2 1735   4.571   4.405   3.311
  591TIP3   OH2 1736   4.963   0.308   1.936
  591TIP3    H1 1737   4.977   0.254   1.859
  591TIP3    H2 1738   5.031   0.375   1.932
  592TIP3   OH2 1739   5.049   3.419   1.809
  592TIP3    H1 1740   5.031   3.325   1.800
  592TIP3    H2 1741   4.996   3.446   1.884
  593TIP3   OH2 1742   0.783   0.950   0.973
  593TIP3    H1 1743   0.762   0.878   1.033
  593TIP3    H2 1744   0.813   1.021   1.030
  594TIP3   OH2 1745   6.968   2.185   1.400
  594TIP3    H1 1746   6.873   2.182   1.390
  594TIP3    H2 1747   7.002   2.176   1.311
  595TIP3   OH2 1748   6.515   0.665   4.597
  595TIP3    H1 1749   6.530   0.597   4.662
  595TIP3    H2 1750   6.571   0.640   4.523
  596TIP3   OH2 1751   3.770   0.712   3.396
  596TIP3    H1 1752   3.713   0.639   3.370
  596TIP3    H2 1753   3.728   0.789   3.358
  597TIP3   OH2 1754   5.721   2.597   3.818
  597TIP3    H1 1755   5.712   2.592   3.723
  597TIP3    H2 1756   5.652   2.657   3.845
  598TIP3   OH2 1757   0.620   3.732   4.845
  598TIP3    H1 1758   0.593   3.823   4.861
  598TIP3    H2 1759   0.539   3.682   4.849
  599TIP3   OH2 1760   6.379   3.809   1.919
  599TIP3    H1 1761   6.462   3.782   1.958
  599TIP3    H2 1762   6.403   3.839   1.831
  600TIP3   OH2 1763   0.508   4.812   2.003
  600TIP3    H1 1764   0.413   4.818   2.005
  600TIP3    H2 1765   0.527   4.723   2.034
  601TIP3   OH2 1766   4.953   3.506   4.146
  601TIP3    H1 1767   4.943   3.582   4.204
  601TIP3    H2 1768   4.889   3.443   4.178
  602TIP3   OH2 1769   3.338   0.602   3.305
  602TIP3    H1 1770   3.250   0.565   3.305
  602TIP3    H2 1771   3.339   0.663   3.231
  603TIP3   OH2 1772   4.468   2.119   3.319
  603TIP3    H1 1773   4.478   2.042   3.375
  603TIP3    H2 1774   4.526   2.184   3.357
  604TIP3   OH2 1775   6.865   3.082   0.419
  604TIP3    H1 1776   6.818   3.007   0.382
  604TIP3    H2 1777   6.832   3.157   0.370
  605TIP3   OH2 1778   1.863   1.852   0.168
  605TIP3    H1 1779   1.860   1.851   0.073
  605TIP3    H2 1780   1.815   1.774   0.195
  606TIP3   OH2 1781   5.098   2.573   5.733
  606TIP3    H1 1782   5.082   2.548   5.824
  606TIP3    H2 1783   5.173   2.633   5.737
  607TIP3   OH2 1784   6.294   2.256   2.126
  607TIP3    H1 1785   6.280   2.193   2.196
  607TIP3    H2 1786   6.209   2.264   2.084
  608TIP3   OH2 1787   4.328   5.625   1.857
  608TIP3    H1 1788   4.317   5.675   1.776
  608TIP3    H2 1789   4.419   5.597   1.855
  609TIP3   OH2 1790  -0.003   3.502   3.216
  609TIP3    H1 1791  -0.074   3.566   3.214
  609TIP3    H2 1792   0.037   3.509   3.129
  610TIP3   OH2 1793   4.427   2.124   2.058
  610TIP3    H1 1794   4.477   2.097   1.981
  610TIP3    H2 1795   4.494   2.155   2.119
  611TIP3   OH2 1796   6.526   4.264   4.069
  611TIP3    H1 1797   6.470   4.186   4.075
  611TIP3    H2 1798   6.612   4.233   4.099
  612TIP3   OH2 1799   6.676   5.073   5.481
  612TIP3    H1 1800   6.646   4.993   5.439
  612TIP3    H2 1801   6.596   5.117   5.511
  613TIP3   OH2 1802   5.702   1.257   3.771
  613TIP3    H1 1803   5.724   1.266   3.864
  613TIP3    H2 1804   5.676   1.165   3.762
  614TIP3   OH2 1805   6.922   5.139   4.898
  614TIP3    H1 1806   7.010   5.107   4.915
  614TIP3    H2 1807   6.883   5.073   4.840
  615TIP3   OH2 1808   1.196   5.539   3.256
  615TIP3    H1 1809   1.180   5.481   3.182
  615TIP3    H2 1810   1.281   5.579   3.237
  616TIP3   OH2 1811   0.071   5.245   0.548
  616TIP3    H1 1812   0.042   5.321   0.497
  616TIP3    H2 1813   0.125   5.195   0.487
  617TIP3   OH2 1814   5.108   2.034   1.146
  617TIP3    H1 1815   5.056   2.027   1.225
  617TIP3    H2 1816   5.191   1.991   1.168
  618TIP3   OH2 1817   0.847   5.164   1.423
  618TIP3    H1 1818   0.760   5.183   1.459
  618TIP3    H2 1819   0.869   5.242   1.372
  619TIP3   OH2 1820   5.021   1.163   5.412
  619TIP3    H1 1821   5.078   1.088   5.428
  619TIP3    H2 1822   4.937   1.125   5.388
  620TIP3   OH2 1823   6.840   2.130   5.328
  620TIP3    H1 1824   6.874   2.218   5.342
  620TIP3    H2 1825   6.811   2.102   5.415
  621TIP3   OH2 1826   4.356   6.148   0.338
  621TIP3    H1 1827   4.303   6.074   0.311
  621TIP3    H2 1828   4.311   6.184   0.415
  622TIP3   OH2 1829   5.776   0.705   1.689
  622TIP3    H1 1830   5.694   0.673   1.651
  622TIP3    H2 1831   5.820   0.626   1.721
  623TIP3   OH2 1832   1.680   6.430   2.619
  623TIP3    H1 1833   1.591   6.461   2.631
  623TIP3    H2 1834   1.696   6.374   2.696
  624TIP3   OH2 1835   4.354   2.103   4.110
  624TIP3    H1 1836   4.378   2.088   4.201
  624TIP3    H2 1837   4.438   2.108   4.064
  625TIP3   OH2 1838   5.132   3.015   1.595
  625TIP3    H1 1839   5.092   3.099   1.617
  625TIP3    H2 1840   5.122   3.007   1.500
  626TIP3   OH2 1841   6.903   0.474   4.339
  626TIP3    H1 1842   6.968   0.413   4.374
  626TIP3    H2 1843   6.847   0.422   4.282
  627TIP3   OH2 1844   3.394   5.700   1.622
  627TIP3    H1 1845   3.382   5.606   1.638
  627TIP3    H2 1846   3.309   5.730   1.592
  628TIP3   OH2 1847   4.031   5.688   2.925
  628TIP3    H1 1848   4.001   5.744   2.853
  628TIP3    H2 1849   4.123   5.712   2.938
  629TIP3   OH2 1850   1.923   4.037   5.082
  629TIP3    H1 1851   1.894   3.967   5.025
  629TIP3    H2 1852   1.993   4.081   5.033
  630TIP3   OH2 1853   7.156   1.875   2.736
  630TIP3    H1 1854   7.180   1.964   2.762
  630TIP3    H2 1855   7.177   1.822   2.812
  631TIP3   OH2 1856   6.540   0.105   0.144
  631TIP3    H1 1857   6.595   0.183   0.137
  631TIP3    H2 1858   6.576   0.043   0.081
  632TIP3   OH2 1859   7.153   3.024   1.718
  632TIP3    H1 1860   7.130   3.099   1.663
  632TIP3    H2 1861   7.119   2.949   1.671
  633TIP3   OH2 1862   2.054   5.034   1.292
  633TIP3    H1 1863   2.140   5.006   1.322
  633TIP3    H2 1864   2.069   5.075   1.207
  634TIP3   OH2 1865   7.219   6.297   4.924
  634TIP3    H1 1866   7.193   6.382   4.958
  634TIP3    H2 1867   7.154   6.236   4.957
  635TIP3   OH2 1868   2.116   4.527   5.787
  635TIP3    H1 1869   2.148   4.603   5.835
  635TIP3    H2 1870   2.023   4.546   5.771
  636TIP3   OH2 1871  -0.035   6.593   0.173
  636TIP3    H1 1872   0.025   6.557   0.237
  636TIP3    H2 1873  -0.011   6.686   0.168
  637TIP3   OH2 1874   5.084   4.052   1.824
  637TIP3    H1 1875   5.166   4.090   1.856
  637TIP3    H2 1876   5.063   3.983   1.888
  638TIP3   OH2 1877   1.827   5.491   1.358
  638TIP3    H1 1878   1.776   5.535   1.290
  638TIP3    H2 1879   1.905   5.545   1.368
  639TIP3   OH2 1880   4.855   0.532   3.673
  639TIP3    H1 1881   4.859   0.467   3.603
  639TIP3    H2 1882   4.898   0.490   3.748
  640TIP3   OH2 1883   4.411   1.890   0.213
  640TIP3    H1 1884   4.426   1.805   0.171
  640TIP3    H2 1885   4.482   1.899   0.276
  641TIP3   OH2 1886   1.618   4.845   5.737
  641TIP3    H1 1887   1.626   4.791   5.658
  641TIP3    H2 1888   1.704   4.840   5.778
  642TIP3   OH2 1889   5.991   5.057   0.216
  642TIP3    H1 1890   5.907   5.048   0.171
  642TIP3    H2 1891   5.998   4.977   0.268
  643TIP3   OH2 1892   2.296   0.887   0.551
  643TIP3    H1 1893   2.237   0.813   0.537
  643TIP3    H2 1894   2.238   0.963   0.559
  644TIP3   OH2 1895   3.878   3.707   4.535
  644TIP3    H1 1896   3.814   3.647   4.574
  644TIP3    H2 1897   3.958   3.691   4.586
  645TIP3   OH2 1898   4.286   0.754   0.796
  645TIP3    H1 1899   4.332   0.833   0.766
  645TIP3    H2 1900   4.353   0.686   0.794
  646TIP3   OH2 1901   1.699   1.198   0.555
  646TIP3    H1 1902   1.743   1.248   0.486
  646TIP3    H2 1903   1.768   1.174   0.616
  647TIP3   OH2 1904   5.124   0.707   4.588
  647TIP3    H1 1905   5.104   0.614   4.594
  647TIP3    H2 1906   5.216   0.714   4.615
  648TIP3   OH2 1907   0.216   5.434   4.317
  648TIP3    H1 1908   0.152   5.363   4.324
  648TIP3    H2 1909   0.282   5.413   4.384
  649TIP3   OH2 1910   7.064   4.863   4.094
  649TIP3    H1 1911   7.121   4.867   4.017
  649TIP3    H2 1912   7.061   4.770   4.117
  650TIP3   OH2 1913   1.555   2.832   0.382
  650TIP3    H1 1914   1.508   2.839   0.465
  650TIP3    H2 1915   1.589   2.743   0.381
  651TIP3   OH2 1916   4.731   0.277   0.543
  651TIP3    H1 1917   4.801   0.328   0.501
  651TIP3    H2 1918   4.652   0.330   0.531
  652TIP3   OH2 1919   5.055   2.211   1.403
  652TIP3    H1 1920   5.100   2.275   1.347
  652TIP3    H2 1921   5.125   2.154   1.435
  653TIP3   OH2 1922   5.834   0.973   4.172
  653TIP3    H1 1923   5.802   0.883   4.166
  653TIP3    H2 1924   5.867   0.981   4.261
  654TIP3   OH2 1925   6.822   0.241   0.709
  654TIP3    H1 1926   6.852   0.193   0.632
  654TIP3    H2 1927   6.845   0.185   0.783
  655TIP3   OH2 1928   1.217   5.559   1.721
  655TIP3    H1 1929   1.235   5.653   1.714
  655TIP3    H2 1930   1.202   5.532   1.631
  656TIP3   OH2 1931   0.964   0.642   3.478
  656TIP3    H1 1932   1.026   0.659   3.548
  656TIP3    H2 1933   0.947   0.728   3.438
  657TIP3   OH2 1934   5.240   4.264   4.699
  657TIP3    H1 1935   5.289   4.213   4.763
  657TIP3    H2 1936   5.298   4.337   4.677
  658TIP3   OH2 1937   2.605   5.332   3.482
  658TIP3    H1 1938   2.647   5.257   3.524
  658TIP3    H2 1939   2.638   5.332   3.393
  659TIP3   OH2 1940   4.833   3.333   3.576
  659TIP3    H1 1941   4.774   3.320   3.650
  659TIP3    H2 1942   4.917   3.357   3.615
  660TIP3   OH2 1943   4.596   6.526   5.226
  660TIP3    H1 1944   4.564   6.452   5.277
  660TIP3    H2 1945   4.530   6.594   5.239
  661TIP3   OH2 1946   5.503   2.050   1.128
  661TIP3    H1 1947   5.433   2.114   1.112
  661TIP3    H2 1948   5.517   2.007   1.044
  662TIP3   OH2 1949   3.596   0.069   5.330
  662TIP3    H1 1950   3.684   0.048   5.360
  662TIP3    H2 1951   3.538   0.020   5.388
  663TIP3   OH2 1952   1.270   0.268   3.388
  663TIP3    H1 1953   1.316   0.343   3.426
  663TIP3    H2 1954   1.200   0.307   3.336
  664TIP3   OH2 1955   6.708   1.635   5.615
  664TIP3    H1 1956   6.777   1.599   5.559
  664TIP3    H2 1957   6.633   1.646   5.556
  665TIP3   OH2 1958   7.206   3.810   0.508
  665TIP3    H1 1959   7.212   3.797   0.603
  665TIP3    H2 1960   7.132   3.755   0.481
  666TIP3   OH2 1961   1.084   5.579   3.703
  666TIP3    H1 1962   1.095   5.600   3.796
  666TIP3    H2 1963   1.120   5.491   3.695
  667TIP3   OH2 1964   0.437   4.773   5.130
  667TIP3    H1 1965   0.531   4.768   5.112
  667TIP3    H2 1966   0.403   4.833   5.063
  668TIP3   OH2 1967   2.055   5.454  -0.014
  668TIP3    H1 1968   2.040   5.520   0.053
  668TIP3    H2 1969   2.149   5.441  -0.016
  669TIP3   OH2 1970   1.970   5.391   1.708
  669TIP3    H1 1971   2.063   5.377   1.690
  669TIP3    H2 1972   1.946   5.319   1.766
  670TIP3   OH2 1973   2.081   5.234   1.943
  670TIP3    H1 1974   2.169   5.248   1.976
  670TIP3    H2 1975   2.024   5.273   2.009
  671TIP3   OH2 1976   2.232   2.949   1.829
  671TIP3    H1 1977   2.205   2.985   1.914
  671TIP3    H2 1978   2.152   2.911   1.792
  672TIP3   OH2 1979   0.478   0.343   1.127
  672TIP3    H1 1980   0.473   0.437   1.108
  672TIP3    H2 1981   0.401   0.305   1.085
  673TIP3   OH2 1982   2.660   5.202   5.063
  673TIP3    H1 1983   2.727   5.168   5.003
  673TIP3    H2 1984   2.701   5.276   5.106
  674TIP3   OH2 1985   4.230   0.698   0.065
  674TIP3    H1 1986   4.161   0.670   0.125
  674TIP3    H2 1987   4.253   0.786   0.094
  675TIP3   OH2 1988   0.034   4.715   0.674
  675TIP3    H1 1989   0.029   4.654   0.747
  675TIP3    H2 1990   0.067   4.662   0.601
  676TIP3   OH2 1991   3.861   5.585   4.213
  676TIP3    H1 1992   3.818   5.667   4.186
  676TIP3    H2 1993   3.807   5.553   4.285
  677TIP3   OH2 1994   3.388   0.053   2.259
  677TIP3    H1 1995   3.438   0.086   2.334
  677TIP3    H2 1996   3.370  -0.038   2.280
  678TIP3   OH2 1997   3.922   2.556   3.270
  678TIP3    H1 1998   3.976   2.586   3.343
  678TIP3    H2 1999   3.913   2.633   3.213
  679TIP3   OH2 2000   5.221   2.087   0.044
  679TIP3    H1 2001   5.223   1.998   0.010
  679TIP3    H2 2002   5.130   2.115   0.034
  680TIP3   OH2 2003   2.437   5.546   0.473
  680TIP3    H1 2004   2.484   5.567   0.554
  680TIP3    H2 2005   2.475   5.604   0.408
  681TIP3   OH2 2006   0.768   5.218   1.112
  681TIP3    H1 2007   0.711   5.146   1.140
  681TIP3    H2 2008   0.730   5.296   1.151
  682TIP3   OH2 2009   3.774   2.858   3.428
  682TIP3    H1 2010   3.763   2.764   3.439
  682TIP3    H2 2011   3.685   2.891   3.414
  683TIP3   OH2 2012   1.250   3.864   3.682
  683TIP3    H1 2013   1.233   3.957   3.667
  683TIP3    H2 2014   1.168   3.820   3.659
  684TIP3   OH2 2015   2.175   1.114   3.696
  684TIP3    H1 2016   2.228   1.110   3.775
  684TIP3    H2 2017   2.196   1.034   3.648
  685TIP3   OH2 2018   0.349   1.047   2.694
  685TIP3    H1 2019   0.342   0.976   2.630
  685TIP3    H2 2020   0.265   1.044   2.741
  686TIP3   OH2 2021   6.525   1.435   1.025
  686TIP3    H1 2022   6.554   1.344   1.015
  686TIP3    H2 2023   6.435   1.435   0.996
  687TIP3   OH2 2024   2.611   5.525   3.809
  687TIP3    H1 2025   2.562   5.607   3.823
  687TIP3    H2 2026   2.594   5.503   3.718
  688TIP3   OH2 2027   0.167   3.874   3.703
  688TIP3    H1 2028   0.075   3.899   3.707
  688TIP3    H2 2029   0.181   3.821   3.782
  689TIP3   OH2 2030   2.002   2.483   1.161
  689TIP3    H1 2031   1.997   2.389   1.142
  689TIP3    H2 2032   1.977   2.525   1.079
  690TIP3   OH2 2033   3.905   0.694   2.866
  690TIP3    H1 2034   3.932   0.754   2.797
  690TIP3    H2 2035   3.840   0.743   2.916
  691TIP3   OH2 2036   3.828   4.203   1.043
  691TIP3    H1 2037   3.899   4.260   1.015
  691TIP3    H2 2038   3.853   4.116   1.011
  692TIP3   OH2 2039   6.069   0.696   3.406
  692TIP3    H1 2040   6.120   0.775   3.421
  692TIP3    H2 2041   6.101   0.663   3.322
  693TIP3   OH2 2042   1.095   2.833   0.824
  693TIP3    H1 2043   1.057   2.858   0.908
  693TIP3    H2 2044   1.166   2.773   0.846
  694TIP3   OH2 2045   3.810   6.099   1.240
  694TIP3    H1 2046   3.718   6.124   1.234
  694TIP3    H2 2047   3.809   6.021   1.296
  695TIP3   OH2 2048   5.261   4.584   2.323
  695TIP3    H1 2049   5.282   4.678   2.320
  695TIP3    H2 2050   5.222   4.571   2.409
  696TIP3   OH2 2051   3.540   2.368   4.972
  696TIP3    H1 2052   3.613   2.332   5.024
  696TIP3    H2 2053   3.582   2.425   4.909
  697TIP3   OH2 2054   5.854   4.360   4.306
  697TIP3    H1 2055   5.899   4.321   4.231
  697TIP3    H2 2056   5.843   4.287   4.368
  698TIP3   OH2 2057   5.439   1.140   3.480
  698TIP3    H1 2058   5.354   1.184   3.484
  698TIP3    H2 2059   5.440   1.081   3.556
  699TIP3   OH2 2060   3.615   3.895   1.711
  699TIP3    H1 2061   3.633   3.982   1.746
  699TIP3    H2 2062   3.692   3.843   1.735
  700TIP3   OH2 2063   1.073   1.055   2.962
  700TIP3    H1 2064   1.004   0.988   2.964
  700TIP3    H2 2065   1.065   1.101   3.045
  701TIP3   OH2 2066   0.624   0.200   1.389
  701TIP3    H1 2067   0.543   0.173   1.346
  701TIP3    H2 2068   0.679   0.122   1.388
  702TIP3   OH2 2069   6.964   6.077   1.416
  702TIP3    H1 2070   6.955   6.172   1.418
  702TIP3    H2 2071   6.876   6.044   1.433
  703TIP3   OH2 2072   4.673   1.942   1.530
  703TIP3    H1 2073   4.619   1.896   1.465
  703TIP3    H2 2074   4.746   1.882   1.546
  704TIP3   OH2 2075   3.367   6.355   4.988
  704TIP3    H1 2076   3.343   6.438   5.030
  704TIP3    H2 2077   3.449   6.330   5.030
  705TIP3   OH2 2078   4.796   0.028   2.745
  705TIP3    H1 2079   4.891   0.018   2.740
  705TIP3    H2 2080   4.762  -0.029   2.676
  706TIP3   OH2 2081   0.771   3.773   2.243
  706TIP3    H1 2082   0.805   3.695   2.286
  706TIP3    H2 2083   0.692   3.796   2.291
  707TIP3   OH2 2084   0.082   0.749   0.586
  707TIP3    H1 2085   0.032   0.769   0.665
  707TIP3    H2 2086   0.026   0.691   0.535
  708TIP3   OH2 2087   6.795   2.162   5.611
  708TIP3    H1 2088   6.767   2.254   5.614
  708TIP3    H2 2089   6.808   2.138   5.702
  709TIP3   OH2 2090   3.845   1.454   3.936
  709TIP3    H1 2091   3.847   1.409   3.851
  709TIP3    H2 2092   3.892   1.395   3.995
  710TIP3   OH2 2093   0.363   5.499   4.553
  710TIP3    H1 2094   0.288   5.498   4.612
  710TIP3    H2 2095   0.430   5.447   4.597
  711TIP3   OH2 2096   4.184   5.400   2.333
  711TIP3    H1 2097   4.108   5.343   2.342
  711TIP3    H2 2098   4.258   5.339   2.331
  712TIP3   OH2 2099   0.529   4.503   5.732
  712TIP3    H1 2100   0.622   4.483   5.734
  712TIP3    H2 2101   0.496   4.456   5.655
  713TIP3   OH2 2102   0.726   5.761   2.240
  713TIP3    H1 2103   0.811   5.742   2.279
  713TIP3    H2 2104   0.744   5.770   2.146
  714TIP3   OH2 2105   0.075   5.923   2.175
  714TIP3    H1 2106   0.013   5.863   2.217
  714TIP3    H2 2107   0.142   5.866   2.137
  715TIP3   OH2 2108   5.411   1.505   2.224
  715TIP3    H1 2109   5.506   1.511   2.228
  715TIP3    H2 2110   5.382   1.504   2.315
  716TIP3   OH2 2111   0.031   0.190   5.459
  716TIP3    H1 2112   0.120   0.177   5.493
  716TIP3    H2 2113   0.022   0.124   5.390
  717TIP3   OH2 2114   3.622   1.154   0.696
  717TIP3    H1 2115   3.645   1.101   0.772
  717TIP3    H2 2116   3.676   1.233   0.703
  718TIP3   OH2 2117   0.982   5.461   4.798
  718TIP3    H1 2118   1.026   5.379   4.820
  718TIP3    H2 2119   0.982   5.464   4.702
  719TIP3   OH2 2120   2.129   2.917   5.824
  719TIP3    H1 2121   2.208   2.899   5.874
  719TIP3    H2 2122   2.062   2.861   5.863
  720TIP3   OH2 2123   1.950   0.513   1.644
  720TIP3    H1 2124   1.879   0.557   1.598
  720TIP3    H2 2125   1.922   0.510   1.735
  721TIP3   OH2 2126   1.773   3.680   4.002
  721TIP3    H1 2127   1.868   3.682   4.015
  721TIP3    H2 2128   1.752   3.765   3.963
  722TIP3   OH2 2129   0.320   4.258   2.923
  722TIP3    H1 2130   0.336   4.280   3.014
  722TIP3    H2 2131   0.407   4.235   2.889
  723TIP3   OH2 2132   3.838   5.600   4.896
  723TIP3    H1 2133   3.750   5.634   4.909
  723TIP3    H2 2134   3.890   5.638   4.967
  724TIP3   OH2 2135   4.755   3.166   5.690
  724TIP3    H1 2136   4.802   3.243   5.724
  724TIP3    H2 2137   4.824   3.110   5.655
  725TIP3   OH2 2138   1.642   2.149   1.056
  725TIP3    H1 2139   1.597   2.210   1.116
  725TIP3    H2 2140   1.679   2.082   1.113
  726TIP3   OH2 2141   5.570   4.095   4.898
  726TIP3    H1 2142   5.558   4.000   4.903
  726TIP3    H2 2143   5.655   4.106   4.856
  727TIP3   OH2 2144   3.644   0.399   4.578
  727TIP3    H1 2145   3.550   0.419   4.573
  727TIP3    H2 2146   3.658   0.373   4.669
  728TIP3   OH2 2147   3.902   1.778   4.977
  728TIP3    H1 2148   3.908   1.701   4.921
  728TIP3    H2 2149   3.841   1.752   5.046
  729TIP3   OH2 2150   6.114   2.822   4.593
  729TIP3    H1 2151   6.041   2.883   4.604
  729TIP3    H2 2152   6.182   2.873   4.550
  730TIP3   OH2 2153   5.510   6.355   0.684
  730TIP3    H1 2154   5.598   6.324   0.664
  730TIP3    H2 2155   5.521   6.449   0.699
  731TIP3   OH2 2156   4.322   2.374   1.325
  731TIP3    H1 2157   4.322   2.413   1.238
  731TIP3    H2 2158   4.370   2.292   1.315
  732TIP3   OH2 2159   3.493   1.131   2.042
  732TIP3    H1 2160   3.417   1.187   2.027
  732TIP3    H2 2161   3.489   1.066   1.972
  733TIP3   OH2 2162   6.175   6.348   2.557
  733TIP3    H1 2163   6.116   6.279   2.526
  733TIP3    H2 2164   6.236   6.362   2.484
  734TIP3   OH2 2165   5.887   4.329   1.170
  734TIP3    H1 2166   5.935   4.370   1.242
  734TIP3    H2 2167   5.933   4.358   1.091
  735TIP3   OH2 2168   1.164   1.627   3.047
  735TIP3    H1 2169   1.180   1.605   3.138
  735TIP3    H2 2170   1.236   1.686   3.024
  736TIP3   OH2 2171   3.069   2.449   0.842
  736TIP3    H1 2172   2.993   2.423   0.895
  736TIP3    H2 2173   3.142   2.452   0.904
  737TIP3   OH2 2174   3.720   4.633   3.687
  737TIP3    H1 2175   3.668   4.586   3.752
  737TIP3    H2 2176   3.707   4.726   3.709
  738TIP3   OH2 2177   0.870   4.279   0.570
  738TIP3    H1 2178   0.927   4.319   0.635
  738TIP3    H2 2179   0.900   4.188   0.564
  739TIP3   OH2 2180   3.005   2.599   1.925
  739TIP3    H1 2181   2.986   2.576   2.016
  739TIP3    H2 2182   2.933   2.657   1.900
  740TIP3   OH2 2183   2.537   4.537   5.284
  740TIP3    H1 2184   2.515   4.592   5.359
  740TIP3    H2 2185   2.515   4.448   5.312
  741TIP3   OH2 2186   6.303   3.742   4.273
  741TIP3    H1 2187   6.218   3.780   4.249
  741TIP3    H2 2188   6.309   3.662   4.220
  742TIP3   OH2 2189   4.708  -0.007   0.781
  742TIP3    H1 2190   4.724  -0.018   0.687
  742TIP3    H2 2191   4.761   0.069   0.806
  743TIP3   OH2 2192   3.528   0.721   1.633
  743TIP3    H1 2193   3.475   0.714   1.553
  743TIP3    H2 2194   3.609   0.676   1.612
  744TIP3   OH2 2195   6.221   2.175   1.807
  744TIP3    H1 2196   6.218   2.093   1.856
  744TIP3    H2 2197   6.178   2.238   1.865
  745TIP3   OH2 2198   6.867   3.045   1.077
  745TIP3    H1 2199   6.956   3.027   1.108
  745TIP3    H2 2200   6.836   2.962   1.041
  746TIP3   OH2 2201   2.801   3.634   2.210
  746TIP3    H1 2202   2.788   3.541   2.227
  746TIP3    H2 2203   2.735   3.678   2.263
  747TIP3   OH2 2204   3.005   3.931   4.584
  747TIP3    H1 2205   2.912   3.911   4.578
  747TIP3    H2 2206   3.018   3.957   4.675
  748TIP3   OH2 2207   1.850   1.374   2.322
  748TIP3    H1 2208   1.944   1.352   2.326
  748TIP3    H2 2209   1.813   1.331   2.400
  749TIP3   OH2 2210   1.066   3.179   1.426
  749TIP3    H1 2211   1.045   3.186   1.519
  749TIP3    H2 2212   1.118   3.257   1.407
  750TIP3   OH2 2213   4.714   5.961   3.770
  750TIP3    H1 2214   4.712   5.958   3.866
  750TIP3    H2 2215   4.676   6.046   3.748
  751TIP3   OH2 2216   6.055   5.871   2.393
  751TIP3    H1 2217   6.074   5.892   2.302
  751TIP3    H2 2218   6.136   5.834   2.427
  752TIP3   OH2 2219   4.923   0.616   5.130
  752TIP3    H1 2220   4.840   0.649   5.096
  752TIP3    H2 2221   4.901   0.579   5.215
  753TIP3   OH2 2222   4.145   0.673   5.344
  753TIP3    H1 2223   4.097   0.637   5.418
  753TIP3    H2 2224   4.109   0.762   5.333
  754TIP3   OH2 2225   5.224   6.446   0.437
  754TIP3    H1 2226   5.160   6.470   0.370
  754TIP3    H2 2227   5.300   6.502   0.418
  755TIP3   OH2 2228   0.893   6.328   4.300
  755TIP3    H1 2229   0.870   6.257   4.360
  755TIP3    H2 2230   0.809   6.363   4.271
  756TIP3   OH2 2231   0.761   4.466   2.620
  756TIP3    H1 2232   0.810   4.479   2.539
  756TIP3    H2 2233   0.670   4.454   2.590
  757TIP3   OH2 2234   4.601   5.534   4.604
  757TIP3    H1 2235   4.650   5.521   4.685
  757TIP3    H2 2236   4.522   5.481   4.616
  758TIP3   OH2 2237   4.770   1.535   1.675
  758TIP3    H1 2238   4.711   1.464   1.649
  758TIP3    H2 2239   4.811   1.504   1.756
  759TIP3   OH2 2240   4.073   6.781   5.574
  759TIP3    H1 2241   4.049   6.792   5.482
  759TIP3    H2 2242   4.061   6.687   5.591
  760TIP3   OH2 2243   2.173   0.879   5.351
  760TIP3    H1 2244   2.082   0.900   5.369
  760TIP3    H2 2245   2.172   0.789   5.320
  761TIP3   OH2 2246   3.519   4.104   2.706
  761TIP3    H1 2247   3.477   4.111   2.620
  761TIP3    H2 2248   3.585   4.173   2.706
  762TIP3   OH2 2249   1.565   6.057   4.827
  762TIP3    H1 2250   1.578   6.094   4.739
  762TIP3    H2 2251   1.653   6.034   4.857
  763TIP3   OH2 2252   4.887   3.239   2.373
  763TIP3    H1 2253   4.937   3.167   2.410
  763TIP3    H2 2254   4.817   3.255   2.437
  764TIP3   OH2 2255   0.940   6.733   0.851
  764TIP3    H1 2256   0.854   6.728   0.891
  764TIP3    H2 2257   0.982   6.651   0.875
  765TIP3   OH2 2258   5.246   1.199   2.401
  765TIP3    H1 2259   5.161   1.160   2.421
  765TIP3    H2 2260   5.243   1.286   2.440
  766TIP3   OH2 2261   1.352   5.155   3.195
  766TIP3    H1 2262   1.431   5.200   3.225
  766TIP3    H2 2263   1.337   5.088   3.261
  767TIP3   OH2 2264   5.990   1.832   1.787
  767TIP3    H1 2265   6.084   1.847   1.800
  767TIP3    H2 2266   5.986   1.751   1.734
  768TIP3   OH2 2267   1.342   0.787   0.730
  768TIP3    H1 2268   1.330   0.878   0.702
  768TIP3    H2 2269   1.413   0.792   0.794
  769TIP3   OH2 2270   4.191   3.328   0.246
  769TIP3    H1 2271   4.123   3.317   0.178
  769TIP3    H2 2272   4.156   3.282   0.322
  770TIP3   OH2 2273   6.939   1.607   0.724
  770TIP3    H1 2274   6.894   1.522   0.726
  770TIP3    H2 2275   6.884   1.664   0.779
  771TIP3   OH2 2276   3.142   2.219   5.086
  771TIP3    H1 2277   3.235   2.216   5.064
  771TIP3    H2 2278   3.129   2.143   5.142
  772TIP3   OH2 2279   4.149   0.663   5.073
  772TIP3    H1 2280   4.158   0.672   5.168
  772TIP3    H2 2281   4.205   0.731   5.037
  773TIP3   OH2 2282   2.513   0.769   0.409
  773TIP3    H1 2283   2.422   0.769   0.437
  773TIP3    H2 2284   2.533   0.677   0.389
  774TIP3   OH2 2285   2.733   1.919   3.485
  774TIP3    H1 2286   2.767   1.875   3.407
  774TIP3    H2 2287   2.777   1.876   3.558
  775TIP3   OH2 2288   1.121   5.040   0.945
  775TIP3    H1 2289   1.079   5.124   0.928
  775TIP3    H2 2290   1.135   5.039   1.040
  776TIP3   OH2 2291   6.058   4.366   3.301
  776TIP3    H1 2292   5.988   4.408   3.250
  776TIP3    H2 2293   6.089   4.435   3.359
  777TIP3   OH2 2294   6.070   6.192   3.913
  777TIP3    H1 2295   6.043   6.101   3.925
  777TIP3    H2 2296   5.994   6.236   3.875
  778TIP3   OH2 2297   1.351   3.943   3.193
  778TIP3    H1 2298   1.439   3.945   3.156
  778TIP3    H2 2299   1.339   3.853   3.223
  779TIP3   OH2 2300   7.137   2.574   0.144
  779TIP3    H1 2301   7.058   2.592   0.093
  779TIP3    H2 2302   7.164   2.660   0.177
  780TIP3   OH2 2303   2.084   4.464   1.668
  780TIP3    H1 2304   2.064   4.390   1.610
  780TIP3    H2 2305   1.999   4.488   1.705
  781TIP3   OH2 2306   3.179   0.655   2.420
  781TIP3    H1 2307   3.271   0.666   2.395
  781TIP3    H2 2308   3.139   0.740   2.401
  782TIP3   OH2 2309   6.775   4.776   2.729
  782TIP3    H1 2310   6.688   4.810   2.709
  782TIP3    H2 2311   6.834   4.833   2.679
  783TIP3   OH2 2312   1.515   1.217   1.386
  783TIP3    H1 2313   1.447   1.261   1.335
  783TIP3    H2 2314   1.496   1.242   1.477
  784TIP3   OH2 2315   2.753   5.044   3.067
  784TIP3    H1 2316   2.847   5.061   3.058
  784TIP3    H2 2317   2.726   5.012   2.980
  785TIP3   OH2 2318   5.671   4.933   1.381
  785TIP3    H1 2319   5.759   4.964   1.358
  785TIP3    H2 2320   5.680   4.901   1.471
  786TIP3   OH2 2321   2.766   3.847   5.447
  786TIP3    H1 2322   2.728   3.773   5.399
  786TIP3    H2 2323   2.821   3.891   5.383
  787TIP3   OH2 2324   3.767   2.551   4.960
  787TIP3    H1 2325   3.709   2.627   4.951
  787TIP3    H2 2326   3.816   2.547   4.878
  788TIP3   OH2 2327   4.405   0.320   5.921
  788TIP3    H1 2328   4.397   0.298   5.828
  788TIP3    H2 2329   4.442   0.408   5.922
  789TIP3   OH2 2330   0.257   4.291   3.707
  789TIP3    H1 2331   0.320   4.219   3.701
  789TIP3    H2 2332   0.214   4.277   3.791
  790TIP3   OH2 2333   2.714   3.586   0.173
  790TIP3    H1 2334   2.701   3.538   0.254
  790TIP3    H2 2335   2.767   3.662   0.198
  791TIP3   OH2 2336   7.088   1.282   1.392
  791TIP3    H1 2337   7.036   1.313   1.466
  791TIP3    H2 2338   7.026   1.230   1.340
  792TIP3   OH2 2339   4.668   2.258   2.870
  792TIP3    H1 2340   4.638   2.176   2.907
  792TIP3    H2 2341   4.601   2.322   2.895
  793TIP3   OH2 2342   3.927   2.668   2.007
  793TIP3    H1 2343   3.987   2.694   2.078
  793TIP3    H2 2344   3.983   2.621   1.945
  794TIP3   OH2 2345   2.983   4.812   4.620
  794TIP3    H1 2346   2.903   4.790   4.668
  794TIP3    H2 2347   3.041   4.737   4.634
  795TIP3   OH2 2348   5.483   2.949   1.250
  795TIP3    H1 2349   5.520   3.036   1.234
  795TIP3    H2 2350   5.427   2.933   1.174
  796TIP3   OH2 2351   1.724   5.964   1.482
  796TIP3    H1 2352   1.807   5.965   1.529
  796TIP3    H2 2353   1.711   6.054   1.454
  797TIP3   OH2 2354   0.447   5.432   0.358
  797TIP3    H1 2355   0.383   5.457   0.424
  797TIP3    H2 2356   0.532   5.444   0.401
  798TIP3   OH2 2357   2.578   6.342   0.565
  798TIP3    H1 2358   2.581   6.434   0.538
  798TIP3    H2 2359   2.515   6.341   0.637
  799TIP3   OH2 2360   3.362   2.595   0.809
  799TIP3    H1 2361   3.424   2.666   0.788
  799TIP3    H2 2362   3.283   2.641   0.839
  800TIP3   OH2 2363   4.115   6.717   2.272
  800TIP3    H1 2364   4.139   6.697   2.182
  800TIP3    H2 2365   4.051   6.649   2.296
  801TIP3   OH2 2366   1.561   2.900   3.950
  801TIP3    H1 2367   1.623   2.846   3.998
  801TIP3    H2 2368   1.562   2.864   3.861
  802TIP3   OH2 2369   4.906   0.008   4.092
  802TIP3    H1 2370   4.998   0.033   4.100
  802TIP3    H2 2371   4.858   0.087   4.114
  803TIP3   OH2 2372   7.012   2.080   3.548
  803TIP3    H1 2373   7.072   2.119   3.485
  803TIP3    H2 2374   7.022   1.985   3.535
  804TIP3   OH2 2375   2.153   6.739   4.775
  804TIP3    H1 2376   2.241   6.730   4.811
  804TIP3    H2 2377   2.126   6.828   4.799
  805TIP3   OH2 2378   4.403   5.205   3.621
  805TIP3    H1 2379   4.433   5.274   3.681
  805TIP3    H2 2380   4.387   5.129   3.678
  806TIP3   OH2 2381   4.476   6.338   1.438
  806TIP3    H1 2382   4.455   6.260   1.490
  806TIP3    H2 2383   4.391   6.380   1.423
  807TIP3   OH2 2384   5.231   1.527   3.336
  807TIP3    H1 2385   5.153   1.570   3.370
  807TIP3    H2 2386   5.303   1.563   3.389
  808TIP3   OH2 2387   4.889   0.738   2.224
  808TIP3    H1 2388   4.890   0.648   2.258
  808TIP3    H2 2389   4.819   0.781   2.273
  809TIP3   OH2 2390   7.168   6.441   0.579
  809TIP3    H1 2391   7.089   6.386   0.571
  809TIP3    H2 2392   7.218   6.401   0.650
  810TIP3   OH2 2393   3.621   4.411   1.117
  810TIP3    H1 2394   3.638   4.433   1.209
  810TIP3    H2 2395   3.681   4.338   1.099
  811TIP3   OH2 2396   4.297   5.334   5.745
  811TIP3    H1 2397   4.314   5.240   5.735
  811TIP3    H2 2398   4.384   5.375   5.736
  812TIP3   OH2 2399   1.633   6.236   5.778
  812TIP3    H1 2400   1.563   6.174   5.800
  812TIP3    H2 2401   1.641   6.292   5.855
  813TIP3   OH2 2402   3.770   6.659   4.632
  813TIP3    H1 2403   3.704   6.702   4.686
  813TIP3    H2 2404   3.719   6.615   4.563
  814TIP3   OH2 2405   3.665   4.867   2.383
  814TIP3    H1 2406   3.637   4.840   2.471
  814TIP3    H2 2407   3.584   4.890   2.338
  815TIP3   OH2 2408   4.891   3.460   5.261
  815TIP3    H1 2409   4.884   3.553   5.284
  815TIP3    H2 2410   4.818   3.418   5.306
  816TIP3   OH2 2411   7.042   3.328   2.044
  816TIP3    H1 2412   6.970   3.375   2.002
  816TIP3    H2 2413   7.021   3.328   2.137
  817TIP3   OH2 2414   6.004   0.882   5.107
  817TIP3    H1 2415   5.962   0.800   5.134
  817TIP3    H2 2416   6.077   0.892   5.169
  818TIP3   OH2 2417   2.165   2.465   4.283
  818TIP3    H1 2418   2.240   2.433   4.233
  818TIP3    H2 2419   2.164   2.559   4.267
  819TIP3   OH2 2420   6.167   3.462   5.465
  819TIP3    H1 2421   6.180   3.390   5.403
  819TIP3    H2 2422   6.207   3.538   5.422
  820TIP3   OH2 2423   1.657   6.046   3.047
  820TIP3    H1 2424   1.586   6.035   2.984
  820TIP3    H2 2425   1.697   5.960   3.054
  821TIP3   OH2 2426   5.902   6.454   2.354
  821TIP3    H1 2427   5.860   6.395   2.292
  821TIP3    H2 2428   5.934   6.398   2.425
  822TIP3   OH2 2429   3.117   5.317   5.478
  822TIP3    H1 2430   3.101   5.405   5.511
  822TIP3    H2 2431   3.212   5.308   5.474
  823TIP3   OH2 2432   1.528   1.993   5.180
  823TIP3    H1 2433   1.470   2.064   5.208
  823TIP3    H2 2434   1.477   1.946   5.114
  824TIP3   OH2 2435   3.787   0.335   0.585
  824TIP3    H1 2436   3.833   0.306   0.664
  824TIP3    H2 2437   3.840   0.303   0.512
  825TIP3   OH2 2438   2.377   3.567   3.863
  825TIP3    H1 2439   2.432   3.546   3.788
  825TIP3    H2 2440   2.353   3.658   3.851
  826TIP3   OH2 2441   2.488   0.546   2.620
  826TIP3    H1 2442   2.571   0.582   2.649
  826TIP3    H2 2443   2.455   0.497   2.695
  827TIP3   OH2 2444   3.153   4.551   2.474
  827TIP3    H1 2445   3.232   4.501   2.453
  827TIP3    H2 2446   3.186   4.639   2.492
  828TIP3   OH2 2447   0.051   3.307   1.875
  828TIP3    H1 2448  -0.009   3.321   1.802
  828TIP3    H2 2449  -0.005   3.309   1.952
  829TIP3   OH2 2450   5.267   5.558   5.552
  829TIP3    H1 2451   5.350   5.512   5.546
  829TIP3    H2 2452   5.291   5.647   5.577
  830TIP3   OH2 2453   2.417   4.899   5.790
  830TIP3    H1 2454   2.447   4.896   5.699
  830TIP3    H2 2455   2.476   4.961   5.833
  831TIP3   OH2 2456   0.852   3.453   1.141
  831TIP3    H1 2457   0.940   3.421   1.121
  831TIP3    H2 2458   0.802   3.440   1.060
  832TIP3   OH2 2459   0.245   2.121   5.856
  832TIP3    H1 2460   0.287   2.041   5.887
  832TIP3    H2 2461   0.315   2.187   5.858
  833TIP3   OH2 2462   1.307   0.383   4.385
  833TIP3    H1 2463   1.231   0.387   4.327
  833TIP3    H2 2464   1.275   0.415   4.469
  834TIP3   OH2 2465   2.187   0.971   2.706
  834TIP3    H1 2466   2.153   1.056   2.732
  834TIP3    H2 2467   2.118   0.908   2.729
  835TIP3   OH2 2468   0.717   5.267   4.468
  835TIP3    H1 2469   0.721   5.247   4.375
  835TIP3    H2 2470   0.773   5.344   4.479
  836TIP3   OH2 2471   2.291   0.694   3.814
  836TIP3    H1 2472   2.319   0.784   3.830
  836TIP3    H2 2473   2.324   0.674   3.727
  837TIP3   OH2 2474   0.467   5.707   2.616
  837TIP3    H1 2475   0.524   5.641   2.577
  837TIP3    H2 2476   0.426   5.662   2.690
  838TIP3   OH2 2477   1.328   3.564   1.081
  838TIP3    H1 2478   1.386   3.527   1.014
  838TIP3    H2 2479   1.386   3.581   1.155
  839TIP3   OH2 2480   5.164   0.345   2.872
  839TIP3    H1 2481   5.239   0.299   2.908
  839TIP3    H2 2482   5.194   0.435   2.859
  840TIP3   OH2 2483   4.684   4.656   4.588
  840TIP3    H1 2484   4.667   4.678   4.680
  840TIP3    H2 2485   4.748   4.585   4.592
  841TIP3   OH2 2486   0.594   1.956   4.109
  841TIP3    H1 2487   0.644   1.985   4.185
  841TIP3    H2 2488   0.549   2.034   4.078
  842TIP3   OH2 2489   0.954   5.543   2.178
  842TIP3    H1 2490   0.974   5.557   2.086
  842TIP3    H2 2491   0.907   5.460   2.181
  843TIP3   OH2 2492   5.548   0.653   3.198
  843TIP3    H1 2493   5.605   0.730   3.192
  843TIP3    H2 2494   5.602   0.580   3.168
  844TIP3   OH2 2495   5.137   2.091   1.704
  844TIP3    H1 2496   5.191   2.056   1.633
  844TIP3    H2 2497   5.155   2.185   1.703
  845TIP3   OH2 2498   2.580   0.644   1.408
  845TIP3    H1 2499   2.587   0.695   1.328
  845TIP3    H2 2500   2.641   0.571   1.397
  846TIP3   OH2 2501   1.881   0.072   1.567
  846TIP3    H1 2502   1.898   0.132   1.494
  846TIP3    H2 2503   1.894  -0.015   1.529
  847TIP3   OH2 2504   3.027   5.809   5.797
  847TIP3    H1 2505   2.950   5.802   5.741
  847TIP3    H2 2506   3.002   5.767   5.879
  848TIP3   OH2 2507   4.362   4.459   5.227
  848TIP3    H1 2508   4.428   4.526   5.206
  848TIP3    H2 2509   4.320   4.492   5.306
  849TIP3   OH2 2510   0.434   6.027   4.555
  849TIP3    H1 2511   0.373   6.047   4.626
  849TIP3    H2 2512   0.442   5.931   4.556
  850TIP3   OH2 2513   5.921   2.181   2.399
  850TIP3    H1 2514   5.841   2.171   2.451
  850TIP3    H2 2515   5.961   2.094   2.399
  851TIP3   OH2 2516   2.501   0.403   5.708
  851TIP3    H1 2517   2.483   0.368   5.621
  851TIP3    H2 2518   2.591   0.375   5.727
  852TIP3   OH2 2519   5.629   4.312   4.479
  852TIP3    H1 2520   5.692   4.378   4.452
  852TIP3    H2 2521   5.559   4.362   4.522
  853TIP3   OH2 2522   3.280   1.095   5.148
  853TIP3    H1 2523   3.218   1.151   5.194
  853TIP3    H2 2524   3.355   1.152   5.131
  854TIP3   OH2 2525   2.000   3.833   1.612
  854TIP3    H1 2526   1.995   3.880   1.695
  854TIP3    H2 2527   1.916   3.849   1.570
  855TIP3   OH2 2528   5.891   6.309   2.123
  855TIP3    H1 2529   5.947   6.231   2.123
  855TIP3    H2 2530   5.858   6.314   2.033
  856TIP3   OH2 2531   6.710   0.448   5.664
  856TIP3    H1 2532   6.739   0.504   5.592
  856TIP3    H2 2533   6.678   0.368   5.621
  857TIP3   OH2 2534   7.055   0.021   3.039
  857TIP3    H1 2535   6.986   0.062   2.987
  857TIP3    H2 2536   7.128   0.082   3.033
  858TIP3   OH2 2537   4.654   1.780   3.002
  858TIP3    H1 2538   4.639   1.863   3.048
  858TIP3    H2 2539   4.567   1.749   2.980
  859TIP3   OH2 2540   1.216   5.848   1.756
  859TIP3    H1 2541   1.150   5.914   1.738
  859TIP3    H2 2542   1.299   5.890   1.734
  860TIP3   OH2 2543   4.086   3.975   5.201
  860TIP3    H1 2544   4.097   3.983   5.296
  860TIP3    H2 2545   4.118   3.887   5.180
  861TIP3   OH2 2546   2.102   2.282   1.365
  861TIP3    H1 2547   2.080   2.366   1.325
  861TIP3    H2 2548   2.189   2.262   1.331
  862TIP3   OH2 2549   0.330   4.853   0.032
  862TIP3    H1 2550   0.235   4.849   0.043
  862TIP3    H2 2551   0.345   4.840  -0.061
  863TIP3   OH2 2552   1.646   4.762   1.266
  863TIP3    H1 2553   1.739   4.747   1.251
  863TIP3    H2 2554   1.611   4.777   1.178
  864TIP3   OH2 2555   3.093   2.224   4.805
  864TIP3    H1 2556   3.076   2.310   4.843
  864TIP3    H2 2557   3.148   2.180   4.869
  865TIP3   OH2 2558   0.336   5.097   2.009
  865TIP3    H1 2559   0.358   5.161   1.940
  865TIP3    H2 2560   0.302   5.151   2.081
  866TIP3   OH2 2561   3.055   4.628   1.966
  866TIP3    H1 2562   3.006   4.707   1.941
  866TIP3    H2 2563   3.006   4.556   1.928
  867TIP3   OH2 2564   6.494   0.590   5.433
  867TIP3    H1 2565   6.461   0.512   5.477
  867TIP3    H2 2566   6.538   0.641   5.502
  868TIP3   OH2 2567   3.330   5.075   3.850
  868TIP3    H1 2568   3.248   5.066   3.897
  868TIP3    H2 2569   3.390   5.014   3.893
  869TIP3   OH2 2570   1.873   4.834   5.842
  869TIP3    H1 2571   1.884   4.927   5.861
  869TIP3    H2 2572   1.956   4.808   5.802
  870TIP3   OH2 2573   6.450   5.860   4.381
  870TIP3    H1 2574   6.442   5.951   4.410
  870TIP3    H2 2575   6.429   5.863   4.287
  871TIP3   OH2 2576   0.707   5.155   4.936
  871TIP3    H1 2577   0.748   5.119   4.857
  871TIP3    H2 2578   0.771   5.218   4.968
  872TIP3   OH2 2579   4.305   6.535   1.159
  872TIP3    H1 2580   4.261   6.475   1.219
  872TIP3    H2 2581   4.388   6.555   1.202
  873TIP3   OH2 2582   7.077   2.053   5.218
  873TIP3    H1 2583   7.086   2.084   5.128
  873TIP3    H2 2584   6.986   2.072   5.240
  874TIP3   OH2 2585   5.163   3.858   3.574
  874TIP3    H1 2586   5.091   3.829   3.518
  874TIP3    H2 2587   5.241   3.813   3.540
  875TIP3   OH2 2588   3.890   2.748   4.568
  875TIP3    H1 2589   3.901   2.803   4.645
  875TIP3    H2 2590   3.884   2.659   4.602
  876TIP3   OH2 2591   6.608   3.403   1.540
  876TIP3    H1 2592   6.579   3.312   1.532
  876TIP3    H2 2593   6.669   3.402   1.614
  877TIP3   OH2 2594   2.155   1.085   0.109
  877TIP3    H1 2595   2.150   1.083   0.013
  877TIP3    H2 2596   2.157   1.178   0.132
  878TIP3   OH2 2597   4.083   1.876   4.373
  878TIP3    H1 2598   4.101   1.897   4.464
  878TIP3    H2 2599   4.063   1.782   4.373
  879TIP3   OH2 2600   2.992   5.319   1.683
  879TIP3    H1 2601   2.922   5.299   1.622
  879TIP3    H2 2602   3.028   5.234   1.708
  880TIP3   OH2 2603   4.221   1.291   4.662
  880TIP3    H1 2604   4.268   1.345   4.726
  880TIP3    H2 2605   4.180   1.222   4.714
  881TIP3   OH2 2606   5.255   0.654   3.994
  881TIP3    H1 2607   5.187   0.685   3.934
  881TIP3    H2 2608   5.297   0.582   3.947
  882TIP3   OH2 2609   6.496   6.169   0.862
  882TIP3    H1 2610   6.426   6.227   0.833
  882TIP3    H2 2611   6.540   6.142   0.781
  883TIP3   OH2 2612   5.549   3.142   5.836
  883TIP3    H1 2613   5.487   3.155   5.765
  883TIP3    H2 2614   5.605   3.219   5.834
  884TIP3   OH2 2615   1.048   6.002   5.385
  884TIP3    H1 2616   1.089   5.937   5.328
  884TIP3    H2 2617   0.961   6.016   5.347
  885TIP3   OH2 2618   6.258   0.509   3.555
  885TIP3    H1 2619   6.336   0.467   3.520
  885TIP3    H2 2620   6.216   0.548   3.478
  886TIP3   OH2 2621   1.491   5.654   1.586
  886TIP3    H1 2622   1.583   5.627   1.592
  886TIP3    H2 2623   1.490   5.746   1.613
  887TIP3   OH2 2624   5.762   2.521   2.233
  887TIP3    H1 2625   5.849   2.558   2.247
  887TIP3    H2 2626   5.779   2.432   2.202
  888TIP3   OH2 2627   2.292   3.786   3.530
  888TIP3    H1 2628   2.293   3.771   3.436
  888TIP3    H2 2629   2.235   3.717   3.564
  889TIP3   OH2 2630   1.967   2.236   1.066
  889TIP3    H1 2631   1.901   2.169   1.049
  889TIP3    H2 2632   2.050   2.187   1.066
  890TIP3   OH2 2633   5.657   2.919   4.656
  890TIP3    H1 2634   5.604   2.975   4.600
  890TIP3    H2 2635   5.636   2.947   4.745
  891TIP3   OH2 2636   2.748   5.373   4.746
  891TIP3    H1 2637   2.710   5.455   4.775
  891TIP3    H2 2638   2.811   5.350   4.814
  892TIP3   OH2 2639   0.124   4.942   1.872
  892TIP3    H1 2640   0.117   5.009   1.804
  892TIP3    H2 2641   0.184   4.981   1.937
  893TIP3   OH2 2642   6.743   4.020   0.092
  893TIP3    H1 2643   6.781   4.096   0.136
  893TIP3    H2 2644   6.744   4.042  -0.001
  894TIP3   OH2 2645   6.950   3.442   3.461
  894TIP3    H1 2646   6.931   3.376   3.395
  894TIP3    H2 2647   7.038   3.421   3.491
  895TIP3   OH2 2648   0.148   5.048   0.950
  895TIP3    H1 2649   0.112   4.959   0.953
  895TIP3    H2 2650   0.178   5.059   0.860
  896TIP3   OH2 2651   1.494   5.687   0.296
  896TIP3    H1 2652   1.401   5.692   0.275
  896TIP3    H2 2653   1.497   5.693   0.392
  897TIP3   OH2 2654   2.073   3.132   4.548
  897TIP3    H1 2655   2.073   3.186   4.627
  897TIP3    H2 2656   2.150   3.162   4.498
  898TIP3   OH2 2657   3.961   6.603   3.079
  898TIP3    H1 2658   3.872   6.632   3.059
  898TIP3    H2 2659   3.985   6.652   3.158
  899TIP3   OH2 2660   2.225   3.296   0.257
  899TIP3    H1 2661   2.192   3.291   0.347
  899TIP3    H2 2662   2.161   3.348   0.210
  900TIP3   OH2 2663   1.951   4.842   4.619
  900TIP3    H1 2664   1.893   4.766   4.622
  900TIP3    H2 2665   1.923   4.891   4.542
  901TIP3   OH2 2666   4.961   6.200   1.506
  901TIP3    H1 2667   5.049   6.184   1.539
  901TIP3    H2 2668   4.953   6.296   1.506
  902TIP3   OH2 2669   4.445   3.396   0.902
  902TIP3    H1 2670   4.534   3.423   0.920
  902TIP3    H2 2671   4.412   3.459   0.838
  903TIP3   OH2 2672   4.309   6.133   5.304
  903TIP3    H1 2673   4.322   6.057   5.247
  903TIP3    H2 2674   4.227   6.172   5.273
  904TIP3   OH2 2675   4.013   2.587   1.047
  904TIP3    H1 2676   3.952   2.514   1.042
  904TIP3    H2 2677   3.999   2.636   0.966
  905TIP3   OH2 2678   2.515   5.807   1.366
  905TIP3    H1 2679   2.561   5.884   1.333
  905TIP3    H2 2680   2.422   5.826   1.351
  906TIP3   OH2 2681   1.830   2.994   4.850
  906TIP3    H1 2682   1.836   3.061   4.918
  906TIP3    H2 2683   1.765   3.028   4.789
  907TIP3   OH2 2684   4.355   3.552   0.239
  907TIP3    H1 2685   4.310   3.468   0.241
  907TIP3    H2 2686   4.284   3.617   0.234
  908TIP3   OH2 2687   6.298   3.864   0.451
  908TIP3    H1 2688   6.248   3.931   0.497
  908TIP3    H2 2689   6.260   3.861   0.363
  909TIP3   OH2 2690   5.413   2.476   4.429
  909TIP3    H1 2691   5.381   2.386   4.431
  909TIP3    H2 2692   5.499   2.471   4.471
  910TIP3   OH2 2693   6.254   5.309   5.392
  910TIP3    H1 2694   6.221   5.228   5.433
  910TIP3    H2 2695   6.263   5.370   5.465
  911TIP3   OH2 2696   0.441   5.134   0.291
  911TIP3    H1 2697   0.407   5.218   0.323
  911TIP3    H2 2698   0.485   5.156   0.209
  912TIP3   OH2 2699   4.573   4.141   0.506
  912TIP3    H1 2700   4.655   4.127   0.458
  912TIP3    H2 2701   4.505   4.132   0.439
  913TIP3   OH2 2702   3.598   3.345   4.509
  913TIP3    H1 2703   3.685   3.341   4.468
  913TIP3    H2 2704   3.587   3.260   4.550
  914TIP3   OH2 2705   0.851   5.044   5.490
  914TIP3    H1 2706   0.837   4.961   5.445
  914TIP3    H2 2707   0.766   5.065   5.528
  915TIP3   OH2 2708   0.851   1.261   2.729
  915TIP3    H1 2709   0.846   1.166   2.738
  915TIP3    H2 2710   0.945   1.280   2.726
  916TIP3   OH2 2711   3.523   2.788   3.713
  916TIP3    H1 2712   3.567   2.855   3.766
  916TIP3    H2 2713   3.588   2.720   3.699
  917TIP3   OH2 2714   1.458   3.888   4.311
  917TIP3    H1 2715   1.502   3.911   4.393
  917TIP3    H2 2716   1.512   3.820   4.272
  918TIP3   OH2 2717   6.667   1.864   5.784
  918TIP3    H1 2718   6.736   1.928   5.799
  918TIP3    H2 2719   6.712   1.787   5.750
  919TIP3   OH2 2720   3.053   5.264   5.764
  919TIP3    H1 2721   3.114   5.322   5.719
  919TIP3    H2 2722   2.966   5.291   5.733
  920TIP3   OH2 2723   1.153   4.677   3.314
  920TIP3    H1 2724   1.136   4.707   3.224
  920TIP3    H2 2725   1.066   4.668   3.353
  921TIP3   OH2 2726   0.822   5.181   2.705
  921TIP3    H1 2727   0.740   5.174   2.753
  921TIP3    H2 2728   0.806   5.137   2.622
  922TIP3   OH2 2729   7.104   4.356   2.291
  922TIP3    H1 2730   7.128   4.282   2.347
  922TIP3    H2 2731   7.081   4.315   2.207
  923TIP3   OH2 2732   2.281   3.888   2.921
  923TIP3    H1 2733   2.335   3.966   2.911
  923TIP3    H2 2734   2.285   3.868   3.015
  924TIP3   OH2 2735   6.036   0.502   1.257
  924TIP3    H1 2736   6.003   0.511   1.346
  924TIP3    H2 2737   6.131   0.496   1.268
  925TIP3   OH2 2738   1.479   4.651   3.991
  925TIP3    H1 2739   1.535   4.714   4.037
  925TIP3    H2 2740   1.395   4.696   3.983
  926TIP3   OH2 2741   4.401   6.818   4.843
  926TIP3    H1 2742   4.332   6.753   4.831
  926TIP3    H2 2743   4.379   6.862   4.925
  927TIP3   OH2 2744   5.239   1.369   0.668
  927TIP3    H1 2745   5.149   1.371   0.699
  927TIP3    H2 2746   5.236   1.318   0.587
  928TIP3   OH2 2747   3.142   0.149   2.112
  928TIP3    H1 2748   3.146   0.202   2.192
  928TIP3    H2 2749   3.233   0.143   2.083
  929TIP3   OH2 2750   6.535   3.447   4.494
  929TIP3    H1 2751   6.579   3.381   4.548
  929TIP3    H2 2752   6.453   3.465   4.541
  930TIP3   OH2 2753   4.809   3.990   5.185
  930TIP3    H1 2754   4.738   4.055   5.187
  930TIP3    H2 2755   4.837   3.988   5.094
  931TIP3   OH2 2756   1.330   6.323   4.557
  931TIP3    H1 2757   1.421   6.308   4.531
  931TIP3    H2 2758   1.323   6.419   4.562
  932TIP3   OH2 2759   0.054   0.750   2.862
  932TIP3    H1 2760   0.053   0.749   2.958
  932TIP3    H2 2761   0.026   0.839   2.839
  933TIP3   OH2 2762   1.181   2.071   2.400
  933TIP3    H1 2763   1.189   1.987   2.447
  933TIP3    H2 2764   1.095   2.067   2.358
  934TIP3   OH2 2765   1.719   3.076   2.062
  934TIP3    H1 2766   1.672   3.121   2.132
  934TIP3    H2 2767   1.663   3.087   1.985
  935TIP3   OH2 2768   5.230   4.699   4.830
  935TIP3    H1 2769   5.317   4.684   4.868
  935TIP3    H2 2770   5.231   4.791   4.805
  936TIP3   OH2 2771   2.697   4.906   4.279
  936TIP3    H1 2772   2.652   4.927   4.361
  936TIP3    H2 2773   2.678   4.980   4.222
  937TIP3   OH2 2774   6.672   3.834   2.517
  937TIP3    H1 2775   6.657   3.904   2.581
  937TIP3    H2 2776   6.631   3.866   2.436
  938TIP3   OH2 2777   1.953   2.826   5.372
  938TIP3    H1 2778   1.874   2.874   5.397
  938TIP3    H2 2779   1.992   2.878   5.302
  939TIP3   OH2 2780   2.113   0.688   0.816
  939TIP3    H1 2781   2.111   0.603   0.772
  939TIP3    H2 2782   2.109   0.752   0.745
  940TIP3   OH2 2783   5.640   2.018   1.378
  940TIP3    H1 2784   5.578   2.023   1.305
  940TIP3    H2 2785   5.595   1.965   1.444
  941TIP3   OH2 2786   2.305   5.763   4.041
  941TIP3    H1 2787   2.278   5.682   3.999
  941TIP3    H2 2788   2.354   5.736   4.118
  942TIP3   OH2 2789   6.476   2.838   3.535
  942TIP3    H1 2790   6.392   2.864   3.498
  942TIP3    H2 2791   6.536   2.909   3.511
  943TIP3   OH2 2792   0.694   3.941   3.140
  943TIP3    H1 2793   0.638   3.902   3.207
  943TIP3    H2 2794   0.651   3.921   3.057
  944TIP3   OH2 2795   0.133   5.492   2.661
  944TIP3    H1 2796   0.140   5.586   2.677
  944TIP3    H2 2797   0.039   5.475   2.655
  945TIP3   OH2 2798   7.171   0.339   2.789
  945TIP3    H1 2799   7.124   0.378   2.862
  945TIP3    H2 2800   7.227   0.409   2.756
  946TIP3   OH2 2801   2.859   6.531   1.041
  946TIP3    H1 2802   2.883   6.466   1.108
  946TIP3    H2 2803   2.892   6.494   0.959
  947TIP3   OH2 2804   1.221   3.099   0.974
  947TIP3    H1 2805   1.143   3.046   0.958
  947TIP3    H2 2806   1.213   3.172   0.913
  948TIP3   OH2 2807   4.946   1.432   3.608
  948TIP3    H1 2808   4.879   1.499   3.594
  948TIP3    H2 2809   4.935   1.372   3.534
  949TIP3   OH2 2810   2.367   1.342   2.168
  949TIP3    H1 2811   2.356   1.366   2.076
  949TIP3    H2 2812   2.281   1.312   2.195
  950TIP3   OH2 2813   2.138   3.128   2.060
  950TIP3    H1 2814   2.070   3.151   1.997
  950TIP3    H2 2815   2.091   3.106   2.140
  951TIP3   OH2 2816   0.980   4.228   3.093
  951TIP3    H1 2817   1.053   4.205   3.150
  951TIP3    H2 2818   0.990   4.169   3.018
  952TIP3   OH2 2819   1.659   6.635   4.857
  952TIP3    H1 2820   1.580   6.668   4.900
  952TIP3    H2 2821   1.693   6.711   4.809
  953TIP3   OH2 2822   3.432   1.162   3.596
  953TIP3    H1 2823   3.496   1.201   3.536
  953TIP3    H2 2824   3.483   1.142   3.674
  954TIP3   OH2 2825   6.985   3.809   4.587
  954TIP3    H1 2826   6.995   3.904   4.595
  954TIP3    H2 2827   7.007   3.776   4.674
  955TIP3   OH2 2828   6.639   2.889   1.233
  955TIP3    H1 2829   6.723   2.920   1.268
  955TIP3    H2 2830   6.576   2.955   1.260
  956TIP3   OH2 2831   6.845   5.941   5.030
  956TIP3    H1 2832   6.751   5.936   5.015
  956TIP3    H2 2833   6.883   5.938   4.942
  957TIP3   OH2 2834   4.793   4.220   5.441
  957TIP3    H1 2835   4.768   4.129   5.454
  957TIP3    H2 2836   4.886   4.218   5.422
  958TIP3   OH2 2837   7.111   3.322   2.330
  958TIP3    H1 2838   7.102   3.364   2.415
  958TIP3    H2 2839   7.048   3.250   2.332
  959TIP3   OH2 2840   3.740   0.630   3.660
  959TIP3    H1 2841   3.789   0.552   3.636
  959TIP3    H2 2842   3.769   0.697   3.598
  960TIP3   OH2 2843   3.526   0.311   3.827
  960TIP3    H1 2844   3.440   0.277   3.853
  960TIP3    H2 2845   3.540   0.274   3.740
  961TIP3   OH2 2846   0.936   2.384   2.109
  961TIP3    H1 2847   0.938   2.469   2.152
  961TIP3    H2 2848   0.965   2.401   2.019
  962TIP3   OH2 2849   5.277   0.264   0.393
  962TIP3    H1 2850   5.252   0.342   0.345
  962TIP3    H2 2851   5.335   0.296   0.462
  963TIP3   OH2 2852   5.141   3.487   0.223
  963TIP3    H1 2853   5.106   3.575   0.208
  963TIP3    H2 2854   5.236   3.498   0.222
  964TIP3   OH2 2855   1.971   0.770   1.033
  964TIP3    H1 2856   2.028   0.763   1.110
  964TIP3    H2 2857   2.021   0.729   0.962
  965TIP3   OH2 2858   3.523   1.258   4.394
  965TIP3    H1 2859   3.470   1.188   4.433
  965TIP3    H2 2860   3.613   1.239   4.421
  966TIP3   OH2 2861   6.968   2.450   5.869
  966TIP3    H1 2862   6.936   2.460   5.780
  966TIP3    H2 2863   7.034   2.382   5.864
  967TIP3   OH2 2864   0.854   3.240   4.211
  967TIP3    H1 2865   0.841   3.191   4.130
  967TIP3    H2 2866   0.912   3.312   4.187
  968TIP3   OH2 2867   1.953   0.788   2.218
  968TIP3    H1 2868   1.964   0.806   2.311
  968TIP3    H2 2869   1.939   0.874   2.178
  969TIP3   OH2 2870   6.180   6.704   2.587
  969TIP3    H1 2871   6.166   6.618   2.548
  969TIP3    H2 2872   6.225   6.686   2.670
  970TIP3   OH2 2873   6.541   5.391   4.443
  970TIP3    H1 2874   6.634   5.370   4.445
  970TIP3    H2 2875   6.536   5.474   4.396
  971TIP3   OH2 2876   3.666   1.879   0.334
  971TIP3    H1 2877   3.734   1.878   0.267
  971TIP3    H2 2878   3.714   1.897   0.415
  972TIP3   OH2 2879   6.099   6.413   5.290
  972TIP3    H1 2880   6.139   6.489   5.247
  972TIP3    H2 2881   6.171   6.351   5.302
  973TIP3   OH2 2882   4.803   0.419   2.130
  973TIP3    H1 2883   4.840   0.396   2.216
  973TIP3    H2 2884   4.875   0.404   2.068
  974TIP3   OH2 2885   4.579   1.573   5.188
  974TIP3    H1 2886   4.613   1.540   5.106
  974TIP3    H2 2887   4.516   1.640   5.163
  975TIP3   OH2 2888   5.347   2.924   1.725
  975TIP3    H1 2889   5.308   2.973   1.798
  975TIP3    H2 2890   5.292   2.945   1.650
  976TIP3   OH2 2891   2.317   2.069   1.296
  976TIP3    H1 2892   2.293   2.058   1.388
  976TIP3    H2 2893   2.365   1.989   1.273
  977TIP3   OH2 2894   0.045   3.757   5.687
  977TIP3    H1 2895   0.078   3.833   5.638
  977TIP3    H2 2896   0.007   3.700   5.620
  978TIP3   OH2 2897   3.365   2.424   4.016
  978TIP3    H1 2898   3.455   2.395   4.002
  978TIP3    H2 2899   3.352   2.417   4.110
  979TIP3   OH2 2900   3.601   4.539   2.632
  979TIP3    H1 2901   3.628   4.454   2.667
  979TIP3    H2 2902   3.506   4.540   2.643
  980TIP3   OH2 2903   0.886   5.646   4.335
  980TIP3    H1 2904   0.930   5.619   4.254
  980TIP3    H2 2905   0.803   5.684   4.306
  981TIP3   OH2 2906   0.103   5.080   0.299
  981TIP3    H1 2907   0.135   5.005   0.249
  981TIP3    H2 2908   0.010   5.060   0.314
  982TIP3   OH2 2909   4.961   3.527   5.544
  982TIP3    H1 2910   5.006   3.492   5.467
  982TIP3    H2 2911   5.020   3.596   5.576
  983TIP3   OH2 2912   7.187   5.310   1.985
  983TIP3    H1 2913   7.142   5.350   1.910
  983TIP3    H2 2914   7.280   5.322   1.967
  984TIP3   OH2 2915   2.237   3.359   2.248
  984TIP3    H1 2916   2.198   3.275   2.223
  984TIP3    H2 2917   2.301   3.376   2.179
  985TIP3   OH2 2918   4.785   4.966   4.869
  985TIP3    H1 2919   4.751   5.042   4.822
  985TIP3    H2 2920   4.851   5.002   4.929
  986TIP3   OH2 2921   3.843   0.987   5.533
  986TIP3    H1 2922   3.818   0.908   5.582
  986TIP3    H2 2923   3.784   1.055   5.566
  987TIP3   OH2 2924   2.253   6.636   1.711
  987TIP3    H1 2925   2.292   6.604   1.792
  987TIP3    H2 2926   2.159   6.619   1.721
  988TIP3   OH2 2927   4.797   1.868   4.746
  988TIP3    H1 2928   4.746   1.865   4.666
  988TIP3    H2 2929   4.736   1.898   4.813
  989TIP3   OH2 2930   5.444   4.199   2.284
  989TIP3    H1 2931   5.414   4.126   2.338
  989TIP3    H2 2932   5.515   4.162   2.232
  990TIP3   OH2 2933   2.844   5.044   5.240
  990TIP3    H1 2934   2.752   5.017   5.245
  990TIP3    H2 2935   2.859   5.062   5.147
  991TIP3   OH2 2936   4.183   6.462   2.145
  991TIP3    H1 2937   4.251   6.453   2.078
  991TIP3    H2 2938   4.232   6.460   2.228
  992TIP3   OH2 2939   4.627   2.031   0.354
  992TIP3    H1 2940   4.695   2.054   0.291
  992TIP3    H2 2941   4.594   2.116   0.385
  993TIP3   OH2 2942   3.046   3.324   2.415
  993TIP3    H1 2943   3.129   3.277   2.420
  993TIP3    H2 2944   2.992   3.272   2.355
  994TIP3   OH2 2945   1.815   5.435   5.376
  994TIP3    H1 2946   1.902   5.472   5.358
  994TIP3    H2 2947   1.800   5.374   5.304
  995TIP3   OH2 2948   0.555   2.490   4.104
  995TIP3    H1 2949   0.463   2.493   4.079
  995TIP3    H2 2950   0.583   2.582   4.106
  996TIP3   OH2 2951   3.833   3.822   1.297
  996TIP3    H1 2952   3.792   3.780   1.223
  996TIP3    H2 2953   3.805   3.772   1.373
  997TIP3   OH2 2954   6.114   5.316   5.136
  997TIP3    H1 2955   6.030   5.335   5.178
  997TIP3    H2 2956   6.170   5.288   5.208
  998TIP3   OH2 2957   1.523   0.814   1.161
  998TIP3    H1 2958   1.499   0.883   1.222
  998TIP3    H2 2959   1.444   0.762   1.151
  999TIP3   OH2 2960   1.748   6.218   3.272
  999TIP3    H1 2961   1.816   6.151   3.278
  999TIP3    H2 2962   1.688   6.185   3.204
 1000TIP3   OH2 2963   3.704   4.303   2.752
 1000TIP3    H1 2964   3.792   4.294   2.717
 1000TIP3    H2 2965   3.717   4.317   2.846
 1001TIP3   OH2 2966   6.635   4.573   4.910
 1001TIP3    H1 2967   6.555   4.523   4.893
 1001TIP3    H2 2968   6.702   4.528   4.858
 1002TIP3   OH2 2969   2.552   3.053   0.326
 1002TIP3    H1 2970   2.640   3.017   0.323
 1002TIP3    H2 2971   2.529   3.067   0.234
 1003TIP3   OH2 2972   5.368   2.615   0.470
 1003TIP3    H1 2973   5.433   2.664   0.419
 1003TIP3    H2 2974   5.385   2.641   0.561
 1004TIP3   OH2 2975   5.729   1.404   5.112
 1004TIP3    H1 2976   5.732   1.402   5.207
 1004TIP3    H2 2977   5.807   1.355   5.084
 1005TIP3   OH2 2978   5.033   3.470   0.823
 1005TIP3    H1 2979   4.993   3.556   0.832
 1005TIP3    H2 2980   5.106   3.482   0.762
 1006TIP3   OH2 2981   6.647   4.376   5.511
 1006TIP3    H1 2982   6.665   4.349   5.421
 1006TIP3    H2 2983   6.602   4.301   5.550
 1007TIP3   OH2 2984   5.518   1.509   3.059
 1007TIP3    H1 2985   5.428   1.540   3.047
 1007TIP3    H2 2986   5.572   1.587   3.044
 1008TIP3   OH2 2987   5.961   1.836   5.063
 1008TIP3    H1 2988   5.897   1.777   5.102
 1008TIP3    H2 2989   6.044   1.789   5.069
 1009TIP3   OH2 2990   6.800   3.232   4.315
 1009TIP3    H1 2991   6.861   3.294   4.275
 1009TIP3    H2 2992   6.732   3.219   4.249
 1010TIP3   OH2 2993   7.101   6.361   2.621
 1010TIP3    H1 2994   7.057   6.363   2.536
 1010TIP3    H2 2995   7.032   6.337   2.683
 1011TIP3   OH2 2996   4.548   0.440   5.204
 1011TIP3    H1 2997   4.509   0.519   5.241
 1011TIP3    H2 2998   4.544   0.455   5.109
 1012TIP3   OH2 2999   4.238   5.201   1.388
 1012TIP3    H1 3000   4.319   5.213   1.338
 1012TIP3    H2 3001   4.260   5.135   1.454
 1013TIP3   OH2 3002   4.943   5.334   5.474
 1013TIP3    H1 3003   4.995   5.401   5.430
 1013TIP3    H2 3004   4.867   5.381   5.509
 1014TIP3   OH2 3005   0.595   3.675   0.708
 1014TIP3    H1 3006   0.517   3.632   0.742
 1014TIP3    H2 3007   0.564   3.756   0.669
 1015TIP3   OH2 3008   6.478   6.028   1.407
 1015TIP3    H1 3009   6.508   6.114   1.437
 1015TIP3    H2 3010   6.416   6.047   1.337
 1016TIP3   OH2 3011   1.648   5.832   0.118
 1016TIP3    H1 3012   1.679   5.914   0.158
 1016TIP3    H2 3013   1.594   5.792   0.186
 1017TIP3   OH2 3014   3.343   6.233   1.530
 1017TIP3    H1 3015   3.358   6.245   1.624
 1017TIP3    H2 3016   3.258   6.275   1.514
 1018TIP3   OH2 3017   5.709   4.681   0.829
 1018TIP3    H1 3018   5.803   4.697   0.831
 1018TIP3    H2 3019   5.673   4.741   0.894
 1019TIP3   OH2 3020   2.266   4.622   1.552
 1019TIP3    H1 3021   2.236   4.689   1.613
 1019TIP3    H2 3022   2.200   4.552   1.559
 1020TIP3   OH2 3023   0.235   4.700   1.965
 1020TIP3    H1 3024   0.176   4.768   1.931
 1020TIP3    H2 3025   0.221   4.702   2.060
 1021TIP3   OH2 3026   0.525   0.757   2.893
 1021TIP3    H1 3027   0.468   0.726   2.822
 1021TIP3    H2 3028   0.613   0.732   2.866
 1022TIP3   OH2 3029   2.734   6.709   4.270
 1022TIP3    H1 3030   2.691   6.632   4.232
 1022TIP3    H2 3031   2.688   6.725   4.352
 1023TIP3   OH2 3032   5.977   0.232   0.064
 1023TIP3    H1 3033   6.039   0.167   0.097
 1023TIP3    H2 3034   5.920   0.184   0.004
 1024TIP3   OH2 3035   0.030   2.502   2.409
 1024TIP3    H1 3036  -0.022   2.424   2.390
 1024TIP3    H2 3037   0.014   2.560   2.335
 1025TIP3   OH2 3038   5.225   0.319   1.127
 1025TIP3    H1 3039   5.147   0.373   1.119
 1025TIP3    H2 3040   5.216   0.277   1.213
 1026TIP3   OH2 3041   4.393   4.101   1.538
 1026TIP3    H1 3042   4.321   4.058   1.583
 1026TIP3    H2 3043   4.417   4.173   1.596
 1027TIP3   OH2 3044   6.444   6.508   1.995
 1027TIP3    H1 3045   6.365   6.455   1.985
 1027TIP3    H2 3046   6.515   6.445   1.996
 1028TIP3   OH2 3047   2.262   3.391   5.414
 1028TIP3    H1 3048   2.356   3.393   5.395
 1028TIP3    H2 3049   2.256   3.377   5.508
 1029TIP3   OH2 3050   5.045   5.690   3.034
 1029TIP3    H1 3051   5.126   5.649   3.063
 1029TIP3    H2 3052   4.983   5.675   3.105
 1030TIP3   OH2 3053   1.882   2.076   3.029
 1030TIP3    H1 3054   1.870   2.145   3.094
 1030TIP3    H2 3055   1.817   2.010   3.052
 1031TIP3   OH2 3056   4.770   2.555   4.978
 1031TIP3    H1 3057   4.803   2.622   5.038
 1031TIP3    H2 3058   4.849   2.514   4.943
 1032TIP3   OH2 3059   4.886   1.756   1.000
 1032TIP3    H1 3060   4.912   1.829   0.945
 1032TIP3    H2 3061   4.916   1.780   1.088
 1033TIP3   OH2 3062   0.697   2.546   5.238
 1033TIP3    H1 3063   0.651   2.594   5.307
 1033TIP3    H2 3064   0.709   2.458   5.273
 1034TIP3   OH2 3065   3.334   2.339   5.400
 1034TIP3    H1 3066   3.367   2.251   5.382
 1034TIP3    H2 3067   3.296   2.367   5.317
 1035TIP3   OH2 3068   0.776   6.152   1.535
 1035TIP3    H1 3069   0.782   6.059   1.513
 1035TIP3    H2 3070   0.752   6.153   1.628
 1036TIP3   OH2 3071   1.182   2.312   4.625
 1036TIP3    H1 3072   1.270   2.276   4.632
 1036TIP3    H2 3073   1.130   2.261   4.688
 1037TIP3   OH2 3074   1.406   3.910   0.958
 1037TIP3    H1 3075   1.324   3.918   1.006
 1037TIP3    H2 3076   1.408   3.818   0.930
 1038TIP3   OH2 3077   5.111   3.880   5.265
 1038TIP3    H1 3078   5.065   3.799   5.242
 1038TIP3    H2 3079   5.117   3.929   5.183
 1039TIP3   OH2 3080   1.432   6.472   5.686
 1039TIP3    H1 3081   1.409   6.425   5.607
 1039TIP3    H2 3082   1.379   6.432   5.755
 1040TIP3   OH2 3083   1.056   5.060   5.674
 1040TIP3    H1 3084   1.126   5.097   5.621
 1040TIP3    H2 3085   0.987   5.039   5.611
 1041TIP3   OH2 3086   2.513   4.011   4.692
 1041TIP3    H1 3087   2.424   4.033   4.719
 1041TIP3    H2 3088   2.568   4.071   4.742
 1042TIP3   OH2 3089   5.101   6.506   4.956
 1042TIP3    H1 3090   5.117   6.586   4.906
 1042TIP3    H2 3091   5.075   6.441   4.891
 1043TIP3   OH2 3092   0.894   6.090   2.028
 1043TIP3    H1 3093   0.981   6.130   2.015
 1043TIP3    H2 3094   0.910   6.016   2.085
 1044TIP3   OH2 3095   3.700   6.677   5.258
 1044TIP3    H1 3096   3.787   6.693   5.295
 1044TIP3    H2 3097   3.712   6.601   5.202
 1045TIP3   OH2 3098   4.841   6.878   5.213
 1045TIP3    H1 3099   4.929   6.894   5.179
 1045TIP3    H2 3100   4.824   6.786   5.194
 1046TIP3   OH2 3101   3.857   0.220   4.379
 1046TIP3    H1 3102   3.880   0.303   4.421
 1046TIP3    H2 3103   3.768   0.233   4.347
 1047TIP3   OH2 3104   6.690   2.730   2.054
 1047TIP3    H1 3105   6.660   2.676   2.127
 1047TIP3    H2 3106   6.659   2.818   2.075
 1048TIP3   OH2 3107   4.243   3.785   3.134
 1048TIP3    H1 3108   4.252   3.696   3.169
 1048TIP3    H2 3109   4.159   3.784   3.087
 1049TIP3   OH2 3110   4.092   5.778   3.845
 1049TIP3    H1 3111   4.090   5.802   3.937
 1049TIP3    H2 3112   4.185   5.762   3.827
 1050TIP3   OH2 3113   3.790   2.815   0.744
 1050TIP3    H1 3114   3.768   2.875   0.815
 1050TIP3    H2 3115   3.708   2.805   0.695
 1051TIP3   OH2 3116   3.932   3.169   1.019
 1051TIP3    H1 3117   3.912   3.260   1.039
 1051TIP3    H2 3118   3.973   3.171   0.933
 1052TIP3   OH2 3119   5.020   1.845   2.848
 1052TIP3    H1 3120   4.944   1.820   2.797
 1052TIP3    H2 3121   5.007   1.939   2.866
 1053TIP3   OH2 3122   4.336   6.433   4.277
 1053TIP3    H1 3123   4.316   6.463   4.188
 1053TIP3    H2 3124   4.430   6.416   4.277
 1054TIP3   OH2 3125   5.185   6.560   0.700
 1054TIP3    H1 3126   5.213   6.509   0.624
 1054TIP3    H2 3127   5.138   6.496   0.755
 1055TIP3   OH2 3128   4.552   5.332   0.040
 1055TIP3    H1 3129   4.543   5.269  -0.031
 1055TIP3    H2 3130   4.643   5.323   0.068
 1056TIP3   OH2 3131   2.886   1.442   4.041
 1056TIP3    H1 3132   2.843   1.460   4.125
 1056TIP3    H2 3133   2.979   1.438   4.062
 1057TIP3   OH2 3134   3.935   4.950   4.570
 1057TIP3    H1 3135   3.985   5.017   4.524
 1057TIP3    H2 3136   3.952   4.966   4.663
 1058TIP3   OH2 3137   6.073   0.946   0.426
 1058TIP3    H1 3138   6.150   0.896   0.455
 1058TIP3    H2 3139   6.110   1.027   0.390
 1059TIP3   OH2 3140   5.592   2.602   5.539
 1059TIP3    H1 3141   5.682   2.619   5.509
 1059TIP3    H2 3142   5.597   2.517   5.582
 1060TIP3   OH2 3143   1.799   6.112   2.537
 1060TIP3    H1 3144   1.779   6.138   2.627
 1060TIP3    H2 3145   1.859   6.038   2.546
 1061TIP3   OH2 3146   2.904   0.105   3.810
 1061TIP3    H1 3147   2.880   0.077   3.721
 1061TIP3    H2 3148   2.960   0.182   3.797
 1062TIP3   OH2 3149   4.728   5.164   1.385
 1062TIP3    H1 3150   4.814   5.205   1.394
 1062TIP3    H2 3151   4.739   5.076   1.422
 1063TIP3   OH2 3152   0.384   4.563   4.234
 1063TIP3    H1 3153   0.383   4.582   4.328
 1063TIP3    H2 3154   0.371   4.468   4.229
 1064TIP3   OH2 3155   2.240   2.416   0.368
 1064TIP3    H1 3156   2.242   2.472   0.445
 1064TIP3    H2 3157   2.245   2.476   0.294
 1065TIP3   OH2 3158   0.946   3.545   3.836
 1065TIP3    H1 3159   0.919   3.517   3.748
 1065TIP3    H2 3160   0.864   3.565   3.880
 1066TIP3   OH2 3161   1.841   4.744   0.906
 1066TIP3    H1 3162   1.883   4.710   0.827
 1066TIP3    H2 3163   1.790   4.671   0.940
 1067TIP3   OH2 3164   0.470   6.285   5.508
 1067TIP3    H1 3165   0.515   6.335   5.441
 1067TIP3    H2 3166   0.377   6.292   5.485
 1068TIP3   OH2 3167   0.499   5.150   1.298
 1068TIP3    H1 3168   0.418   5.131   1.250
 1068TIP3    H2 3169   0.547   5.067   1.297
 1069TIP3   OH2 3170   4.130   4.675   3.753
 1069TIP3    H1 3171   4.054   4.664   3.810
 1069TIP3    H2 3172   4.103   4.637   3.669
 1070TIP3   OH2 3173   5.214   2.415   0.656
 1070TIP3    H1 3174   5.195   2.456   0.572
 1070TIP3    H2 3175   5.308   2.397   0.653
 1071TIP3   OH2 3176   1.893   1.139   0.750
 1071TIP3    H1 3177   1.956   1.207   0.774
 1071TIP3    H2 3178   1.865   1.102   0.834
 1072TIP3   OH2 3179   3.132   1.815   5.104
 1072TIP3    H1 3180   3.038   1.823   5.117
 1072TIP3    H2 3181   3.170   1.830   5.191
 1073TIP3   OH2 3182   6.203   0.338   0.309
 1073TIP3    H1 3183   6.235   0.373   0.226
 1073TIP3    H2 3184   6.194   0.244   0.294
 1074TIP3   OH2 3185   0.610   5.802   0.090
 1074TIP3    H1 3186   0.607   5.780  -0.003
 1074TIP3    H2 3187   0.646   5.891   0.093
 1075TIP3   OH2 3188   5.909   2.462   4.293
 1075TIP3    H1 3189   5.847   2.403   4.336
 1075TIP3    H2 3190   5.986   2.462   4.349
 1076TIP3   OH2 3191   6.068   2.810   1.502
 1076TIP3    H1 3192   6.042   2.762   1.580
 1076TIP3    H2 3193   6.012   2.888   1.502
 1077TIP3   OH2 3194   4.670   3.276   3.788
 1077TIP3    H1 3195   4.576   3.274   3.809
 1077TIP3    H2 3196   4.713   3.250   3.870
 1078TIP3   OH2 3197   4.248   1.916   0.784
 1078TIP3    H1 3198   4.343   1.909   0.786
 1078TIP3    H2 3199   4.229   1.997   0.833
 1079TIP3   OH2 3200   5.490   6.298   0.196
 1079TIP3    H1 3201   5.563   6.276   0.255
 1079TIP3    H2 3202   5.500   6.392   0.180
 1080TIP3   OH2 3203   5.048   3.861   1.285
 1080TIP3    H1 3204   5.059   3.944   1.239
 1080TIP3    H2 3205   5.137   3.835   1.309
 1081TIP3   OH2 3206   0.403   6.698   3.284
 1081TIP3    H1 3207   0.481   6.648   3.257
 1081TIP3    H2 3208   0.330   6.640   3.264
 1082TIP3   OH2 3209   2.888   5.557   2.267
 1082TIP3    H1 3210   2.907   5.483   2.209
 1082TIP3    H2 3211   2.934   5.631   2.227
 1083TIP3   OH2 3212   3.675   1.945   2.529
 1083TIP3    H1 3213   3.702   1.934   2.620
 1083TIP3    H2 3214   3.688   2.038   2.512
 1084TIP3   OH2 3215   4.225   4.303   1.411
 1084TIP3    H1 3216   4.280   4.246   1.357
 1084TIP3    H2 3217   4.275   4.314   1.492
 1085TIP3   OH2 3218   3.248   2.806   4.601
 1085TIP3    H1 3219   3.316   2.787   4.537
 1085TIP3    H2 3220   3.215   2.719   4.626
 1086TIP3   OH2 3221   4.572   6.359   3.320
 1086TIP3    H1 3222   4.608   6.280   3.362
 1086TIP3    H2 3223   4.478   6.344   3.317
 1087TIP3   OH2 3224   2.363   5.863   5.628
 1087TIP3    H1 3225   2.421   5.833   5.558
 1087TIP3    H2 3226   2.412   5.846   5.709
 1088TIP3   OH2 3227   0.777   2.837   5.901
 1088TIP3    H1 3228   0.815   2.922   5.881
 1088TIP3    H2 3229   0.700   2.831   5.845
 1089TIP3   OH2 3230   1.670   0.587   1.608
 1089TIP3    H1 3231   1.582   0.605   1.578
 1089TIP3    H2 3232   1.658   0.554   1.697
 1090TIP3   OH2 3233   1.108   6.710   0.057
 1090TIP3    H1 3234   1.199   6.703   0.084
 1090TIP3    H2 3235   1.060   6.732   0.137
 1091TIP3   OH2 3236   0.851   2.831   2.561
 1091TIP3    H1 3237   0.941   2.801   2.549
 1091TIP3    H2 3238   0.835   2.823   2.655
 1092TIP3   OH2 3239   1.626   0.690   4.932
 1092TIP3    H1 3240   1.553   0.743   4.965
 1092TIP3    H2 3241   1.667   0.654   5.010
 1093TIP3   OH2 3242   5.208   5.194   2.652
 1093TIP3    H1 3243   5.182   5.167   2.740
 1093TIP3    H2 3244   5.127   5.190   2.600
 1094TIP3   OH2 3245   5.889   4.034   5.333
 1094TIP3    H1 3246   5.795   4.053   5.340
 1094TIP3    H2 3247   5.925   4.058   5.418
 1095TIP3   OH2 3248   5.593   0.815   2.434
 1095TIP3    H1 3249   5.588   0.805   2.529
 1095TIP3    H2 3250   5.602   0.909   2.420
 1096TIP3   OH2 3251   0.774   4.590   1.205
 1096TIP3    H1 3252   0.688   4.584   1.246
 1096TIP3    H2 3253   0.759   4.639   1.124
 1097TIP3   OH2 3254   5.928   6.023  -0.060
 1097TIP3    H1 3255   5.847   6.062  -0.092
 1097TIP3    H2 3256   5.955   6.080   0.012
 1098TIP3   OH2 3257   0.301   1.559   1.047
 1098TIP3    H1 3258   0.261   1.614   1.114
 1098TIP3    H2 3259   0.260   1.473   1.059
 1099TIP3   OH2 3260   4.738   1.518   1.171
 1099TIP3    H1 3261   4.759   1.598   1.122
 1099TIP3    H2 3262   4.679   1.548   1.241
 1100TIP3   OH2 3263   4.468   4.064   4.861
 1100TIP3    H1 3264   4.460   3.980   4.816
 1100TIP3    H2 3265   4.414   4.124   4.810
 1101TIP3   OH2 3266   5.420   3.027   2.341
 1101TIP3    H1 3267   5.409   3.029   2.436
 1101TIP3    H2 3268   5.505   3.069   2.326
 1102TIP3   OH2 3269   1.126   5.509   2.839
 1102TIP3    H1 3270   1.123   5.444   2.910
 1102TIP3    H2 3271   1.034   5.525   2.817
 1103TIP3   OH2 3272   4.529   3.425   2.704
 1103TIP3    H1 3273   4.466   3.411   2.774
 1103TIP3    H2 3274   4.479   3.465   2.634
 1104TIP3   OH2 3275   1.170   6.374   3.417
 1104TIP3    H1 3276   1.196   6.282   3.422
 1104TIP3    H2 3277   1.115   6.387   3.495
 1105TIP3   OH2 3278   2.980   4.389   2.335
 1105TIP3    H1 3279   3.021   4.469   2.367
 1105TIP3    H2 3280   2.915   4.367   2.402
 1106TIP3   OH2 3281   6.071   0.236   5.629
 1106TIP3    H1 3282   6.005   0.235   5.560
 1106TIP3    H2 3283   6.031   0.285   5.700
 1107TIP3   OH2 3284   0.796   5.634   3.359
 1107TIP3    H1 3285   0.804   5.669   3.270
 1107TIP3    H2 3286   0.867   5.676   3.408
 1108TIP3   OH2 3287   2.432   2.357   1.341
 1108TIP3    H1 3288   2.479   2.409   1.275
 1108TIP3    H2 3289   2.457   2.266   1.322
 1109TIP3   OH2 3290   2.203   5.335   0.431
 1109TIP3    H1 3291   2.247   5.253   0.407
 1109TIP3    H2 3292   2.211   5.390   0.354
 1110TIP3   OH2 3293   0.556   5.036   5.566
 1110TIP3    H1 3294   0.517   4.951   5.588
 1110TIP3    H2 3295   0.486   5.099   5.583
 1111TIP3   OH2 3296   2.302   6.693   2.156
 1111TIP3    H1 3297   2.366   6.670   2.223
 1111TIP3    H2 3298   2.218   6.690   2.201
 1112TIP3   OH2 3299   4.541   0.695   4.707
 1112TIP3    H1 3300   4.518   0.786   4.689
 1112TIP3    H2 3301   4.480   0.644   4.654
 1113TIP3   OH2 3302   1.480   2.191  -0.018
 1113TIP3    H1 3303   1.464   2.202   0.076
 1113TIP3    H2 3304   1.547   2.122  -0.023
 1114TIP3   OH2 3305   0.871   1.688   1.468
 1114TIP3    H1 3306   0.866   1.757   1.401
 1114TIP3    H2 3307   0.808   1.715   1.535
 1115TIP3   OH2 3308   6.071   4.873   1.425
 1115TIP3    H1 3309   6.030   4.934   1.486
 1115TIP3    H2 3310   6.021   4.792   1.435
 1116TIP3   OH2 3311   4.729   1.800   5.497
 1116TIP3    H1 3312   4.776   1.875   5.461
 1116TIP3    H2 3313   4.791   1.727   5.490
 1117TIP3   OH2 3314   1.240   5.110   2.714
 1117TIP3    H1 3315   1.190   5.164   2.775
 1117TIP3    H2 3316   1.306   5.067   2.768
 1118TIP3   OH2 3317   2.835   1.873   4.827
 1118TIP3    H1 3318   2.845   1.778   4.835
 1118TIP3    H2 3319   2.850   1.907   4.916
 1119TIP3   OH2 3320   5.260   4.883   0.882
 1119TIP3    H1 3321   5.324   4.864   0.813
 1119TIP3    H2 3322   5.198   4.943   0.841
 1120TIP3   OH2 3323   0.551   3.009   1.023
 1120TIP3    H1 3324   0.485   2.951   1.062
 1120TIP3    H2 3325   0.619   3.016   1.090
 1121TIP3   OH2 3326   2.230   4.805   3.627
 1121TIP3    H1 3327   2.210   4.741   3.558
 1121TIP3    H2 3328   2.165   4.788   3.695
 1122TIP3   OH2 3329   6.048   2.536   5.702
 1122TIP3    H1 3330   6.101   2.457   5.705
 1122TIP3    H2 3331   6.034   2.552   5.608
 1123TIP3   OH2 3332   2.267   4.617   2.476
 1123TIP3    H1 3333   2.172   4.618   2.491
 1123TIP3    H2 3334   2.303   4.571   2.552
 1124TIP3   OH2 3335   5.739   5.669   5.628
 1124TIP3    H1 3336   5.740   5.653   5.722
 1124TIP3    H2 3337   5.820   5.718   5.611
 1125TIP3   OH2 3338   4.144   5.818   0.387
 1125TIP3    H1 3339   4.236   5.799   0.406
 1125TIP3    H2 3340   4.099   5.735   0.398
 1126TIP3   OH2 3341   6.122   2.753   0.128
 1126TIP3    H1 3342   6.105   2.782   0.039
 1126TIP3    H2 3343   6.171   2.671   0.118
 1127TIP3   OH2 3344   7.153   2.469   1.789
 1127TIP3    H1 3345   7.238   2.426   1.779
 1127TIP3    H2 3346   7.106   2.448   1.708
 1128TIP3   OH2 3347   3.841   5.185   1.289
 1128TIP3    H1 3348   3.880   5.131   1.358
 1128TIP3    H2 3349   3.765   5.134   1.260
 1129TIP3   OH2 3350   3.826   1.555   5.382
 1129TIP3    H1 3351   3.878   1.489   5.426
 1129TIP3    H2 3352   3.810   1.622   5.449
 1130TIP3   OH2 3353   6.829   3.457   2.346
 1130TIP3    H1 3354   6.782   3.388   2.393
 1130TIP3    H2 3355   6.851   3.417   2.262
 1131TIP3   OH2 3356   5.212   6.125   2.210
 1131TIP3    H1 3357   5.125   6.144   2.244
 1131TIP3    H2 3358   5.207   6.035   2.178
 1132TIP3   OH2 3359   4.459   1.819   1.373
 1132TIP3    H1 3360   4.418   1.792   1.455
 1132TIP3    H2 3361   4.449   1.742   1.316
 1133TIP3   OH2 3362   2.136   3.121   3.839
 1133TIP3    H1 3363   2.157   3.213   3.824
 1133TIP3    H2 3364   2.069   3.123   3.908
 1134TIP3   OH2 3365   5.932   0.227   1.605
 1134TIP3    H1 3366   5.841   0.229   1.575
 1134TIP3    H2 3367   5.953   0.319   1.624
 1135TIP3   OH2 3368   3.803   5.472   5.165
 1135TIP3    H1 3369   3.752   5.398   5.131
 1135TIP3    H2 3370   3.894   5.445   5.152
 1136TIP3   OH2 3371   1.829   4.360   4.718
 1136TIP3    H1 3372   1.874   4.302   4.657
 1136TIP3    H2 3373   1.751   4.311   4.745
 1137TIP3   OH2 3374  -0.014   4.187   2.501
 1137TIP3    H1 3375   0.027   4.215   2.583
 1137TIP3    H2 3376   0.032   4.106   2.478
 1138TIP3   OH2 3377   0.746   2.502   2.938
 1138TIP3    H1 3378   0.827   2.452   2.939
 1138TIP3    H2 3379   0.720   2.505   2.846
 1139TIP3   OH2 3380   6.992   2.829   1.330
 1139TIP3    H1 3381   7.037   2.867   1.255
 1139TIP3    H2 3382   6.991   2.735   1.312
 1140TIP3   OH2 3383   3.548   5.467   5.744
 1140TIP3    H1 3384   3.606   5.484   5.818
 1140TIP3    H2 3385   3.604   5.425   5.678
 1141TIP3   OH2 3386   5.958   3.395   0.641
 1141TIP3    H1 3387   5.914   3.446   0.709
 1141TIP3    H2 3388   5.965   3.455   0.567
 1142TIP3   OH2 3389   6.032   5.962   1.445
 1142TIP3    H1 3390   6.036   5.867   1.433
 1142TIP3    H2 3391   5.939   5.982   1.440
 1143TIP3   OH2 3392   5.980   3.257   5.525
 1143TIP3    H1 3393   6.022   3.270   5.440
 1143TIP3    H2 3394   5.953   3.344   5.553
 1144TIP3   OH2 3395   0.376   6.194   3.028
 1144TIP3    H1 3396   0.280   6.195   3.037
 1144TIP3    H2 3397   0.392   6.136   2.954
 1145TIP3   OH2 3398   3.005   4.800   0.927
 1145TIP3    H1 3399   2.947   4.815   1.002
 1145TIP3    H2 3400   2.978   4.865   0.863
 1146TIP3   OH2 3401   2.300   4.292   2.163
 1146TIP3    H1 3402   2.291   4.380   2.126
 1146TIP3    H2 3403   2.218   4.277   2.210
 1147TIP3   OH2 3404   5.994   0.953   3.218
 1147TIP3    H1 3405   6.014   0.932   3.309
 1147TIP3    H2 3406   6.076   0.940   3.172
 1148TIP3   OH2 3407   2.252   2.668   5.310
 1148TIP3    H1 3408   2.160   2.657   5.333
 1148TIP3    H2 3409   2.282   2.740   5.365
 1149TIP3   OH2 3410   6.473   6.613   3.028
 1149TIP3    H1 3411   6.504   6.664   3.103
 1149TIP3    H2 3412   6.546   6.554   3.008
 1150TIP3   OH2 3413   1.712   1.565   4.655
 1150TIP3    H1 3414   1.629   1.593   4.614
 1150TIP3    H2 3415   1.710   1.470   4.650
 1151TIP3   OH2 3416   3.581   1.271   3.114
 1151TIP3    H1 3417   3.665   1.301   3.148
 1151TIP3    H2 3418   3.554   1.340   3.053
 1152TIP3   OH2 3419   4.212   0.617   2.309
 1152TIP3    H1 3420   4.165   0.541   2.345
 1152TIP3    H2 3421   4.260   0.581   2.234
 1153TIP3   OH2 3422   3.394   5.305   5.518
 1153TIP3    H1 3423   3.446   5.376   5.480
 1153TIP3    H2 3424   3.393   5.324   5.612
 1154TIP3   OH2 3425   6.692   0.637   4.338
 1154TIP3    H1 3426   6.770   0.582   4.347
 1154TIP3    H2 3427   6.661   0.620   4.249
 1155TIP3   OH2 3428   6.843   4.785   5.632
 1155TIP3    H1 3429   6.873   4.708   5.680
 1155TIP3    H2 3430   6.759   4.759   5.594
 1156TIP3   OH2 3431   3.391   1.197   4.024
 1156TIP3    H1 3432   3.346   1.242   3.953
 1156TIP3    H2 3433   3.394   1.261   4.095
 1157TIP3   OH2 3434   6.606   0.748   0.798
 1157TIP3    H1 3435   6.622   0.656   0.778
 1157TIP3    H2 3436   6.659   0.796   0.734
 1158TIP3   OH2 3437   1.492   6.371   3.519
 1158TIP3    H1 3438   1.463   6.341   3.433
 1158TIP3    H2 3439   1.564   6.431   3.500
 1159TIP3   OH2 3440   6.125   3.529   4.490
 1159TIP3    H1 3441   6.215   3.499   4.486
 1159TIP3    H2 3442   6.107   3.539   4.584
 1160TIP3   OH2 3443   1.829   4.171   0.312
 1160TIP3    H1 3444   1.861   4.232   0.379
 1160TIP3    H2 3445   1.819   4.225   0.234
 1161TIP3   OH2 3446   2.637   1.334   5.826
 1161TIP3    H1 3447   2.594   1.256   5.859
 1161TIP3    H2 3448   2.566   1.396   5.808
 1162TIP3   OH2 3449   2.254   2.660   3.553
 1162TIP3    H1 3450   2.243   2.750   3.524
 1162TIP3    H2 3451   2.256   2.665   3.649
 1163TIP3   OH2 3452   2.470   5.729   5.408
 1163TIP3    H1 3453   2.549   5.693   5.366
 1163TIP3    H2 3454   2.441   5.659   5.467
 1164TIP3   OH2 3455   3.823   0.041   5.514
 1164TIP3    H1 3456   3.916   0.019   5.507
 1164TIP3    H2 3457   3.820   0.118   5.570
 1165TIP3   OH2 3458   7.005   1.123   0.719
 1165TIP3    H1 3459   7.043   1.092   0.636
 1165TIP3    H2 3460   6.951   1.049   0.749
 1166TIP3   OH2 3461   5.983   3.597   0.412
 1166TIP3    H1 3462   5.945   3.592   0.325
 1166TIP3    H2 3463   6.077   3.584   0.398
 1167TIP3   OH2 3464   0.588   6.434   1.860
 1167TIP3    H1 3465   0.543   6.442   1.777
 1167TIP3    H2 3466   0.559   6.510   1.911
 1168TIP3   OH2 3467   3.703   4.006   0.347
 1168TIP3    H1 3468   3.686   3.970   0.260
 1168TIP3    H2 3469   3.616   4.022   0.383
 1169TIP3   OH2 3470   6.792   4.742   2.255
 1169TIP3    H1 3471   6.821   4.797   2.183
 1169TIP3    H2 3472   6.868   4.687   2.275
 1170TIP3   OH2 3473   3.513   0.245   0.885
 1170TIP3    H1 3474   3.505   0.150   0.876
 1170TIP3    H2 3475   3.607   0.262   0.882
 1171TIP3   OH2 3476   1.422   1.270   2.388
 1171TIP3    H1 3477   1.329   1.291   2.385
 1171TIP3    H2 3478   1.446   1.276   2.481
 1172TIP3   OH2 3479   5.908   5.826   1.151
 1172TIP3    H1 3480   5.822   5.816   1.111
 1172TIP3    H2 3481   5.933   5.916   1.132
 1173TIP3   OH2 3482   5.700   3.606   4.780
 1173TIP3    H1 3483   5.700   3.574   4.870
 1173TIP3    H2 3484   5.669   3.696   4.786
 1174TIP3   OH2 3485   0.618   4.899   1.266
 1174TIP3    H1 3486   0.611   4.852   1.182
 1174TIP3    H2 3487   0.570   4.844   1.328
 1175TIP3   OH2 3488   0.216   2.183   0.176
 1175TIP3    H1 3489   0.163   2.202   0.253
 1175TIP3    H2 3490   0.203   2.089   0.161
 1176TIP3   OH2 3491   0.614   6.367   5.284
 1176TIP3    H1 3492   0.638   6.288   5.235
 1176TIP3    H2 3493   0.681   6.431   5.261
 1177TIP3   OH2 3494   6.779   3.305   0.307
 1177TIP3    H1 3495   6.724   3.333   0.234
 1177TIP3    H2 3496   6.730   3.329   0.385
 1178TIP3   OH2 3497   0.057   2.449   0.351
 1178TIP3    H1 3498   0.018   2.387   0.412
 1178TIP3    H2 3499  -0.006   2.454   0.279
 1179TIP3   OH2 3500   3.058   4.219   3.295
 1179TIP3    H1 3501   3.087   4.177   3.213
 1179TIP3    H2 3502   3.117   4.183   3.362
 1180TIP3   OH2 3503   0.573   4.298   3.694
 1180TIP3    H1 3504   0.594   4.226   3.635
 1180TIP3    H2 3505   0.563   4.257   3.780
 1181TIP3   OH2 3506   5.262   1.214   3.744
 1181TIP3    H1 3507   5.167   1.220   3.749
 1181TIP3    H2 3508   5.281   1.120   3.749
 1182TIP3   OH2 3509   2.149   5.279   5.109
 1182TIP3    H1 3510   2.234   5.256   5.072
 1182TIP3    H2 3511   2.157   5.373   5.131
 1183TIP3   OH2 3512   5.796   3.400   2.145
 1183TIP3    H1 3513   5.741   3.323   2.155
 1183TIP3    H2 3514   5.853   3.399   2.222
 1184TIP3   OH2 3515   4.492   0.600   0.050
 1184TIP3    H1 3516   4.419   0.661   0.055
 1184TIP3    H2 3517   4.505   0.570   0.140
 1185TIP3   OH2 3518   1.054   5.225   2.146
 1185TIP3    H1 3519   1.125   5.162   2.152
 1185TIP3    H2 3520   1.011   5.206   2.063
 1186TIP3   OH2 3521   2.670   5.382   5.357
 1186TIP3    H1 3522   2.746   5.335   5.394
 1186TIP3    H2 3523   2.701   5.472   5.346
 1187TIP3   OH2 3524   2.450   5.319   3.984
 1187TIP3    H1 3525   2.383   5.252   3.987
 1187TIP3    H2 3526   2.457   5.342   3.891
 1188TIP3   OH2 3527   1.420   5.496   1.917
 1188TIP3    H1 3528   1.355   5.528   1.855
 1188TIP3    H2 3529   1.413   5.401   1.913
 1189TIP3   OH2 3530   0.914   1.374   3.117
 1189TIP3    H1 3531   0.871   1.290   3.105
 1189TIP3    H2 3532   0.850   1.439   3.088
 1190TIP3   OH2 3533   4.343   1.585   2.691
 1190TIP3    H1 3534   4.419   1.550   2.645
 1190TIP3    H2 3535   4.278   1.515   2.688
 1191TIP3   OH2 3536   3.286   4.632   3.102
 1191TIP3    H1 3537   3.373   4.653   3.067
 1191TIP3    H2 3538   3.298   4.552   3.152
 1192TIP3   OH2 3539   4.834   3.368   0.572
 1192TIP3    H1 3540   4.847   3.277   0.599
 1192TIP3    H2 3541   4.848   3.420   0.651
 1193TIP3   OH2 3542   0.625   4.892   0.509
 1193TIP3    H1 3543   0.548   4.842   0.536
 1193TIP3    H2 3544   0.601   4.930   0.424
 1194TIP3   OH2 3545   0.250   5.265   1.463
 1194TIP3    H1 3546   0.243   5.239   1.370
 1194TIP3    H2 3547   0.162   5.297   1.485
 1195TIP3   OH2 3548   1.355   4.053   5.378
 1195TIP3    H1 3549   1.370   4.089   5.291
 1195TIP3    H2 3550   1.438   4.012   5.402
 1196TIP3   OH2 3551   6.617   0.018   1.973
 1196TIP3    H1 3552   6.584  -0.049   1.914
 1196TIP3    H2 3553   6.712   0.013   1.965
 1197TIP3   OH2 3554   5.237   5.195   4.424
 1197TIP3    H1 3555   5.203   5.216   4.511
 1197TIP3    H2 3556   5.160   5.169   4.374
 1198TIP3   OH2 3557   1.746   1.774   1.638
 1198TIP3    H1 3558   1.685   1.797   1.708
 1198TIP3    H2 3559   1.811   1.717   1.680
 1199TIP3   OH2 3560   3.700   5.123   4.842
 1199TIP3    H1 3561   3.705   5.157   4.752
 1199TIP3    H2 3562   3.634   5.054   4.837
 1200TIP3   OH2 3563   3.936   1.632   5.673
 1200TIP3    H1 3564   4.029   1.643   5.690
 1200TIP3    H2 3565   3.893   1.673   5.748
 1201TIP3   OH2 3566   1.782   5.078   3.021
 1201TIP3    H1 3567   1.715   5.104   2.959
 1201TIP3    H2 3568   1.864   5.085   2.972
 1202TIP3   OH2 3569   0.797   2.239   0.255
 1202TIP3    H1 3570   0.795   2.154   0.299
 1202TIP3    H2 3571   0.707   2.251   0.223
 1203TIP3   OH2 3572   3.497   1.774   1.563
 1203TIP3    H1 3573   3.570   1.825   1.529
 1203TIP3    H2 3574   3.537   1.694   1.597
 1204TIP3   OH2 3575   1.622   1.667   3.779
 1204TIP3    H1 3576   1.642   1.704   3.693
 1204TIP3    H2 3577   1.654   1.733   3.841
 1205TIP3   OH2 3578   5.147   3.038   1.299
 1205TIP3    H1 3579   5.156   3.103   1.229
 1205TIP3    H2 3580   5.099   2.965   1.259
 1206TIP3   OH2 3581   2.589   2.223   3.124
 1206TIP3    H1 3582   2.498   2.249   3.104
 1206TIP3    H2 3583   2.595   2.132   3.094
 1207TIP3   OH2 3584   3.713   2.024   2.986
 1207TIP3    H1 3585   3.722   1.940   2.940
 1207TIP3    H2 3586   3.630   2.060   2.954
 1208TIP3   OH2 3587   0.875   5.940   3.423
 1208TIP3    H1 3588   0.945   5.899   3.473
 1208TIP3    H2 3589   0.916   5.967   3.341
 1209TIP3   OH2 3590   3.294   5.396   4.296
 1209TIP3    H1 3591   3.369   5.451   4.316
 1209TIP3    H2 3592   3.274   5.415   4.204
 1210TIP3   OH2 3593   4.390   5.093   5.867
 1210TIP3    H1 3594   4.483   5.114   5.877
 1210TIP3    H2 3595   4.387   4.998   5.862
 1211TIP3   OH2 3596   2.397   2.508   5.455
 1211TIP3    H1 3597   2.338   2.432   5.456
 1211TIP3    H2 3598   2.358   2.568   5.392
 1212TIP3   OH2 3599   2.886   1.462   2.071
 1212TIP3    H1 3600   2.805   1.481   2.118
 1212TIP3    H2 3601   2.935   1.545   2.073
 1213TIP3   OH2 3602   5.944   0.034   0.940
 1213TIP3    H1 3603   5.961  -0.059   0.950
 1213TIP3    H2 3604   5.865   0.050   0.992
 1214TIP3   OH2 3605   6.871   1.745   4.587
 1214TIP3    H1 3606   6.803   1.703   4.536
 1214TIP3    H2 3607   6.919   1.673   4.628
 1215TIP3   OH2 3608   5.859   5.460   4.192
 1215TIP3    H1 3609   5.819   5.387   4.144
 1215TIP3    H2 3610   5.807   5.466   4.272
 1216TIP3   OH2 3611   2.716   3.504   1.738
 1216TIP3    H1 3612   2.741   3.567   1.805
 1216TIP3    H2 3613   2.796   3.488   1.689
 1217TIP3   OH2 3614   3.834   2.839   5.849
 1217TIP3    H1 3615   3.852   2.765   5.791
 1217TIP3    H2 3616   3.814   2.799   5.933
 1218TIP3   OH2 3617   3.448   2.239   1.044
 1218TIP3    H1 3618   3.394   2.267   0.970
 1218TIP3    H2 3619   3.469   2.320   1.090
 1219TIP3   OH2 3620   0.061   6.327   5.852
 1219TIP3    H1 3621   0.068   6.300   5.944
 1219TIP3    H2 3622   0.068   6.245   5.803
 1220TIP3   OH2 3623   6.677   3.389   0.539
 1220TIP3    H1 3624   6.606   3.452   0.525
 1220TIP3    H2 3625   6.734   3.431   0.602
 1221TIP3   OH2 3626   5.659   3.188   3.029
 1221TIP3    H1 3627   5.570   3.158   3.049
 1221TIP3    H2 3628   5.661   3.193   2.933
 1222TIP3   OH2 3629   1.125   6.397   1.497
 1222TIP3    H1 3630   1.133   6.418   1.590
 1222TIP3    H2 3631   1.210   6.361   1.473
 1223TIP3   OH2 3632   4.505   1.067   3.985
 1223TIP3    H1 3633   4.517   0.990   4.040
 1223TIP3    H2 3634   4.585   1.118   3.997
 1224TIP3   OH2 3635   0.477   5.572   2.147
 1224TIP3    H1 3636   0.398   5.623   2.129
 1224TIP3    H2 3637   0.544   5.638   2.165
 1225TIP3   OH2 3638   4.067   1.398   5.358
 1225TIP3    H1 3639   4.107   1.311   5.370
 1225TIP3    H2 3640   4.142   1.457   5.350
 1226TIP3   OH2 3641   0.173   0.651   2.206
 1226TIP3    H1 3642   0.207   0.576   2.256
 1226TIP3    H2 3643   0.232   0.723   2.229
 1227TIP3   OH2 3644   2.621   2.266   4.719
 1227TIP3    H1 3645   2.546   2.322   4.740
 1227TIP3    H2 3646   2.606   2.186   4.768
 1228TIP3   OH2 3647   0.669   5.437   4.833
 1228TIP3    H1 3648   0.629   5.367   4.782
 1228TIP3    H2 3649   0.762   5.434   4.811
 1229TIP3   OH2 3650   1.801   5.478   2.298
 1229TIP3    H1 3651   1.727   5.433   2.256
 1229TIP3    H2 3652   1.783   5.471   2.392
 1230TIP3   OH2 3653   4.620   1.690   3.889
 1230TIP3    H1 3654   4.685   1.732   3.946
 1230TIP3    H2 3655   4.544   1.748   3.894
 1231TIP3   OH2 3656   6.272   0.844   2.382
 1231TIP3    H1 3657   6.344   0.872   2.325
 1231TIP3    H2 3658   6.208   0.805   2.322
 1232TIP3   OH2 3659   5.836   6.422   5.367
 1232TIP3    H1 3660   5.932   6.423   5.370
 1232TIP3    H2 3661   5.810   6.511   5.388
 1233TIP3   OH2 3662   3.100   3.018   3.260
 1233TIP3    H1 3663   3.016   2.982   3.233
 1233TIP3    H2 3664   3.079   3.106   3.293
 1234TIP3   OH2 3665   6.327   5.245   0.181
 1234TIP3    H1 3666   6.327   5.149   0.171
 1234TIP3    H2 3667   6.343   5.259   0.274
 1235TIP3   OH2 3668   2.908   6.390   2.225
 1235TIP3    H1 3669   2.925   6.299   2.247
 1235TIP3    H2 3670   2.968   6.410   2.153
 1236TIP3   OH2 3671   1.481   4.262   1.872
 1236TIP3    H1 3672   1.574   4.268   1.849
 1236TIP3    H2 3673   1.436   4.316   1.808
 1237TIP3   OH2 3674   5.397   2.660   2.468
 1237TIP3    H1 3675   5.412   2.588   2.529
 1237TIP3    H2 3676   5.482   2.675   2.427
 1238TIP3   OH2 3677   6.123   0.374   3.128
 1238TIP3    H1 3678   6.194   0.312   3.147
 1238TIP3    H2 3679   6.043   0.327   3.152
 1239TIP3   OH2 3680   0.660   3.496   2.618
 1239TIP3    H1 3681   0.744   3.459   2.643
 1239TIP3    H2 3682   0.648   3.471   2.527
 1240TIP3   OH2 3683   4.000   6.338   3.174
 1240TIP3    H1 3684   3.980   6.270   3.111
 1240TIP3    H2 3685   3.978   6.420   3.129
 1241TIP3   OH2 3686   1.715   0.254   0.235
 1241TIP3    H1 3687   1.788   0.298   0.279
 1241TIP3    H2 3688   1.686   0.188   0.298
 1242TIP3   OH2 3689   5.535   0.346   5.756
 1242TIP3    H1 3690   5.464   0.352   5.692
 1242TIP3    H2 3691   5.546   0.436   5.788
 1243TIP3   OH2 3692   0.425   3.586   3.992
 1243TIP3    H1 3693   0.379   3.538   4.061
 1243TIP3    H2 3694   0.502   3.533   3.973
 1244TIP3   OH2 3695   1.225   2.991   2.692
 1244TIP3    H1 3696   1.304   3.037   2.666
 1244TIP3    H2 3697   1.251   2.899   2.698
 1245TIP3   OH2 3698   5.143   6.256   3.155
 1245TIP3    H1 3699   5.122   6.252   3.062
 1245TIP3    H2 3700   5.105   6.338   3.185
 1246TIP3   OH2 3701   2.737   2.347   0.062
 1246TIP3    H1 3702   2.727   2.387  -0.025
 1246TIP3    H2 3703   2.820   2.381   0.095
 1247TIP3   OH2 3704   4.328   6.693   3.052
 1247TIP3    H1 3705   4.250   6.737   3.018
 1247TIP3    H2 3706   4.326   6.606   3.013
 1248TIP3   OH2 3707   4.273   1.642   3.208
 1248TIP3    H1 3708   4.210   1.617   3.275
 1248TIP3    H2 3709   4.352   1.593   3.230
 1249TIP3   OH2 3710   4.298   1.151   0.619
 1249TIP3    H1 3711   4.330   1.236   0.588
 1249TIP3    H2 3712   4.203   1.159   0.615
 1250TIP3   OH2 3713   6.121   0.992   2.555
 1250TIP3    H1 3714   6.191   0.937   2.519
 1250TIP3    H2 3715   6.139   1.079   2.519
 1251TIP3   OH2 3716   4.593   5.852   0.071
 1251TIP3    H1 3717   4.592   5.862   0.166
 1251TIP3    H2 3718   4.649   5.776   0.056
 1252TIP3   OH2 3719   4.237   3.042   1.501
 1252TIP3    H1 3720   4.144   3.023   1.496
 1252TIP3    H2 3721   4.244   3.136   1.484
 1253TIP3   OH2 3722   0.016   3.154   0.319
 1253TIP3    H1 3723   0.089   3.187   0.371
 1253TIP3    H2 3724  -0.053   3.220   0.328
 1254TIP3   OH2 3725   0.207   3.906   1.412
 1254TIP3    H1 3726   0.257   3.942   1.339
 1254TIP3    H2 3727   0.247   3.821   1.430
 1255TIP3   OH2 3728   4.257   5.601   5.292
 1255TIP3    H1 3729   4.217   5.683   5.321
 1255TIP3    H2 3730   4.304   5.569   5.369
 1256TIP3   OH2 3731   1.524   0.213   4.401
 1256TIP3    H1 3732   1.445   0.267   4.413
 1256TIP3    H2 3733   1.492   0.132   4.361
 1257TIP3   OH2 3734   5.155   1.370   1.027
 1257TIP3    H1 3735   5.126   1.425   1.100
 1257TIP3    H2 3736   5.239   1.334   1.056
 1258TIP3   OH2 3737   0.869   1.753   2.661
 1258TIP3    H1 3738   0.954   1.755   2.618
 1258TIP3    H2 3739   0.888   1.753   2.755
 1259TIP3   OH2 3740   5.042   2.488   4.920
 1259TIP3    H1 3741   5.120   2.541   4.932
 1259TIP3    H2 3742   5.073   2.412   4.871
 1260TIP3   OH2 3743   0.119   3.300   4.033
 1260TIP3    H1 3744   0.155   3.229   4.087
 1260TIP3    H2 3745   0.162   3.290   3.948
 1261TIP3   OH2 3746   4.109   2.667   2.798
 1261TIP3    H1 3747   4.015   2.662   2.817
 1261TIP3    H2 3748   4.145   2.720   2.868
 1262TIP3   OH2 3749   2.762   2.666   1.851
 1262TIP3    H1 3750   2.708   2.700   1.922
 1262TIP3    H2 3751   2.723   2.702   1.771
 1263TIP3   OH2 3752   0.996   4.754   1.313
 1263TIP3    H1 3753   0.957   4.736   1.398
 1263TIP3    H2 3754   0.945   4.702   1.251
 1264TIP3   OH2 3755   2.241   0.510   5.703
 1264TIP3    H1 3756   2.316   0.459   5.734
 1264TIP3    H2 3757   2.165   0.457   5.724
 1265TIP3   OH2 3758   4.882   4.695   3.801
 1265TIP3    H1 3759   4.804   4.747   3.781
 1265TIP3    H2 3760   4.858   4.605   3.779
 1266TIP3   OH2 3761   3.853   0.091   0.878
 1266TIP3    H1 3762   3.830   0.180   0.906
 1266TIP3    H2 3763   3.914   0.105   0.805
 1267TIP3   OH2 3764   1.739   6.277   2.878
 1267TIP3    H1 3765   1.832   6.295   2.869
 1267TIP3    H2 3766   1.729   6.245   2.967
 1268TIP3   OH2 3767   6.643   2.605   5.829
 1268TIP3    H1 3768   6.549   2.618   5.833
 1268TIP3    H2 3769   6.669   2.588   5.919
 1269TIP3   OH2 3770   2.205   3.470   4.242
 1269TIP3    H1 3771   2.163   3.539   4.293
 1269TIP3    H2 3772   2.148   3.458   4.166
 1270TIP3   OH2 3773   6.827   1.913   1.202
 1270TIP3    H1 3774   6.901   1.860   1.232
 1270TIP3    H2 3775   6.761   1.904   1.270
 1271TIP3   OH2 3776   5.253   1.090   0.532
 1271TIP3    H1 3777   5.210   1.036   0.465
 1271TIP3    H2 3778   5.226   1.050   0.615
 1272TIP3   OH2 3779   3.756   5.322   5.630
 1272TIP3    H1 3780   3.821   5.388   5.603
 1272TIP3    H2 3781   3.808   5.245   5.651
 1273TIP3   OH2 3782   2.655   6.291   2.663
 1273TIP3    H1 3783   2.731   6.321   2.712
 1273TIP3    H2 3784   2.581   6.304   2.723
 1274TIP3   OH2 3785   6.746   3.204   3.236
 1274TIP3    H1 3786   6.746   3.299   3.225
 1274TIP3    H2 3787   6.653   3.179   3.236
 1275TIP3   OH2 3788   3.422   5.531   2.143
 1275TIP3    H1 3789   3.504   5.532   2.193
 1275TIP3    H2 3790   3.420   5.615   2.097
 1276TIP3   OH2 3791   3.365   3.149   5.222
 1276TIP3    H1 3792   3.328   3.152   5.310
 1276TIP3    H2 3793   3.350   3.237   5.187
 1277TIP3   OH2 3794   1.592   5.128   2.180
 1277TIP3    H1 3795   1.630   5.190   2.117
 1277TIP3    H2 3796   1.656   5.057   2.186
 1278TIP3   OH2 3797   6.571   4.366   2.830
 1278TIP3    H1 3798   6.488   4.318   2.837
 1278TIP3    H2 3799   6.621   4.338   2.907
 1279TIP3   OH2 3800   0.468   5.209   5.041
 1279TIP3    H1 3801   0.538   5.172   4.988
 1279TIP3    H2 3802   0.468   5.156   5.121
 1280TIP3   OH2 3803   1.527   4.824   3.009
 1280TIP3    H1 3804   1.500   4.767   2.937
 1280TIP3    H2 3805   1.616   4.796   3.031
 1281TIP3   OH2 3806   4.949   2.631   1.327
 1281TIP3    H1 3807   4.978   2.653   1.416
 1281TIP3    H2 3808   4.858   2.604   1.337
 1282TIP3   OH2 3809   2.916   4.660   1.393
 1282TIP3    H1 3810   2.832   4.633   1.356
 1282TIP3    H2 3811   2.981   4.629   1.329
 1283TIP3   OH2 3812   7.166   1.498   1.263
 1283TIP3    H1 3813   7.166   1.445   1.342
 1283TIP3    H2 3814   7.109   1.452   1.202
 1284TIP3   OH2 3815   3.066   2.780   3.670
 1284TIP3    H1 3816   2.990   2.725   3.651
 1284TIP3    H2 3817   3.123   2.723   3.722
 1285TIP3   OH2 3818   5.030   2.078   0.447
 1285TIP3    H1 3819   4.950   2.039   0.484
 1285TIP3    H2 3820   5.013   2.080   0.353
 1286TIP3   OH2 3821   5.634   6.129   1.926
 1286TIP3    H1 3822   5.593   6.183   1.994
 1286TIP3    H2 3823   5.612   6.172   1.844
 1287TIP3   OH2 3824   1.655   4.130   3.886
 1287TIP3    H1 3825   1.649   4.111   3.792
 1287TIP3    H2 3826   1.568   4.109   3.920
 1288TIP3   OH2 3827   5.409   2.675   3.275
 1288TIP3    H1 3828   5.405   2.649   3.367
 1288TIP3    H2 3829   5.340   2.625   3.232
 1289TIP3   OH2 3830   3.273   2.659   2.641
 1289TIP3    H1 3831   3.308   2.674   2.729
 1289TIP3    H2 3832   3.178   2.655   2.654
 1290TIP3   OH2 3833   0.347   0.252   4.879
 1290TIP3    H1 3834   0.352   0.206   4.795
 1290TIP3    H2 3835   0.254   0.271   4.892
 1291TIP3   OH2 3836   1.573   6.383   4.951
 1291TIP3    H1 3837   1.622   6.439   4.892
 1291TIP3    H2 3838   1.482   6.411   4.942
 1292TIP3   OH2 3839   6.563   4.934   3.720
 1292TIP3    H1 3840   6.562   4.928   3.815
 1292TIP3    H2 3841   6.584   5.026   3.701
 1293TIP3   OH2 3842   3.431   0.770   2.374
 1293TIP3    H1 3843   3.524   0.747   2.379
 1293TIP3    H2 3844   3.421   0.807   2.286
 1294TIP3   OH2 3845   6.545   5.620   5.485
 1294TIP3    H1 3846   6.531   5.677   5.409
 1294TIP3    H2 3847   6.635   5.589   5.476
 1295TIP3   OH2 3848   1.711   3.651   4.980
 1295TIP3    H1 3849   1.787   3.676   5.032
 1295TIP3    H2 3850   1.660   3.594   5.037
 1296TIP3   OH2 3851   5.775   2.973   5.560
 1296TIP3    H1 3852   5.786   3.031   5.635
 1296TIP3    H2 3853   5.865   2.958   5.529
 1297TIP3   OH2 3854   2.636   0.156   5.825
 1297TIP3    H1 3855   2.717   0.202   5.801
 1297TIP3    H2 3856   2.665   0.081   5.877
 1298TIP3   OH2 3857   5.148   0.986   2.647
 1298TIP3    H1 3858   5.134   1.049   2.576
 1298TIP3    H2 3859   5.124   1.034   2.727
 1299TIP3   OH2 3860   1.061   3.507   4.879
 1299TIP3    H1 3861   1.101   3.585   4.918
 1299TIP3    H2 3862   1.063   3.442   4.949
 1300TIP3   OH2 3863   6.327   3.249   4.308
 1300TIP3    H1 3864   6.334   3.237   4.214
 1300TIP3    H2 3865   6.396   3.192   4.345
 1301TIP3   OH2 3866   0.176   2.235   2.801
 1301TIP3    H1 3867   0.200   2.198   2.716
 1301TIP3    H2 3868   0.088   2.201   2.818
 1302TIP3   OH2 3869   4.133   5.188   4.570
 1302TIP3    H1 3870   4.164   5.103   4.600
 1302TIP3    H2 3871   4.086   5.224   4.645
 1303TIP3   OH2 3872   5.416   1.271   4.463
 1303TIP3    H1 3873   5.504   1.235   4.464
 1303TIP3    H2 3874   5.367   1.214   4.404
 1304TIP3   OH2 3875   7.005   5.701   1.053
 1304TIP3    H1 3876   7.029   5.765   1.120
 1304TIP3    H2 3877   6.929   5.740   1.009
 1305TIP3   OH2 3878   1.787   1.371   4.173
 1305TIP3    H1 3879   1.770   1.463   4.154
 1305TIP3    H2 3880   1.798   1.330   4.087
 1306TIP3   OH2 3881   1.356   6.047   5.469
 1306TIP3    H1 3882   1.270   6.006   5.459
 1306TIP3    H2 3883   1.400   6.031   5.386
 1307TIP3   OH2 3884   2.277   0.317   3.792
 1307TIP3    H1 3885   2.250   0.246   3.850
 1307TIP3    H2 3886   2.226   0.393   3.821
 1308TIP3   OH2 3887   4.159   1.958   0.053
 1308TIP3    H1 3888   4.141   1.905  -0.024
 1308TIP3    H2 3889   4.253   1.976   0.049
 1309TIP3   OH2 3890   5.792   3.846   1.901
 1309TIP3    H1 3891   5.858   3.863   1.968
 1309TIP3    H2 3892   5.710   3.837   1.949
 1310TIP3   OH2 3893   2.056   2.063   0.500
 1310TIP3    H1 3894   1.995   1.994   0.526
 1310TIP3    H2 3895   2.081   2.105   0.582
 1311TIP3   OH2 3896   2.577   5.019   5.257
 1311TIP3    H1 3897   2.541   4.950   5.200
 1311TIP3    H2 3898   2.596   5.091   5.197
 1312TIP3   OH2 3899   2.408   6.502   5.128
 1312TIP3    H1 3900   2.392   6.491   5.221
 1312TIP3    H2 3901   2.320   6.507   5.089
 1313TIP3   OH2 3902   1.732   3.462   2.881
 1313TIP3    H1 3903   1.642   3.474   2.851
 1313TIP3    H2 3904   1.724   3.433   2.972
 1314TIP3   OH2 3905   2.156   2.575   3.113
 1314TIP3    H1 3906   2.071   2.531   3.112
 1314TIP3    H2 3907   2.180   2.583   3.021
 1315TIP3   OH2 3908   2.820   5.701   1.530
 1315TIP3    H1 3909   2.843   5.643   1.457
 1315TIP3    H2 3910   2.744   5.660   1.571
 1316TIP3   OH2 3911   1.642   0.382   0.992
 1316TIP3    H1 3912   1.596   0.460   0.958
 1316TIP3    H2 3913   1.619   0.378   1.084
 1317TIP3   OH2 3914   0.976   5.895   2.582
 1317TIP3    H1 3915   0.914   5.877   2.653
 1317TIP3    H2 3916   0.923   5.935   2.514
 1318TIP3   OH2 3917   4.605   1.882   4.534
 1318TIP3    H1 3918   4.652   1.860   4.453
 1318TIP3    H2 3919   4.609   1.978   4.538
 1319TIP3   OH2 3920   0.120   2.873   2.745
 1319TIP3    H1 3921   0.119   2.909   2.657
 1319TIP3    H2 3922   0.110   2.778   2.732
 1320TIP3   OH2 3923   3.092   1.401   0.588
 1320TIP3    H1 3924   3.037   1.476   0.567
 1320TIP3    H2 3925   3.113   1.411   0.681
 1321TIP3   OH2 3926   2.025   3.573   2.110
 1321TIP3    H1 3927   2.066   3.650   2.071
 1321TIP3    H2 3928   1.999   3.601   2.198
 1322TIP3   OH2 3929   4.523   1.102   4.805
 1322TIP3    H1 3930   4.471   1.087   4.726
 1322TIP3    H2 3931   4.563   1.188   4.791
 1323TIP3   OH2 3932   2.187   3.385   3.924
 1323TIP3    H1 3933   2.254   3.444   3.889
 1323TIP3    H2 3934   2.106   3.412   3.881
 1324TIP3   OH2 3935   1.460   5.946   1.710
 1324TIP3    H1 3936   1.464   5.978   1.801
 1324TIP3    H2 3937   1.514   6.008   1.661
 1325TIP3   OH2 3938   6.658   5.668   2.746
 1325TIP3    H1 3939   6.671   5.636   2.836
 1325TIP3    H2 3940   6.624   5.757   2.757
 1326TIP3   OH2 3941   4.540   6.530   1.271
 1326TIP3    H1 3942   4.524   6.462   1.337
 1326TIP3    H2 3943   4.624   6.505   1.231
 1327TIP3   OH2 3944   4.445   4.763   5.749
 1327TIP3    H1 3945   4.480   4.677   5.725
 1327TIP3    H2 3946   4.355   4.746   5.776
 1328TIP3   OH2 3947   0.954   1.659   3.240
 1328TIP3    H1 3948   1.018   1.697   3.301
 1328TIP3    H2 3949   1.006   1.600   3.186
 1329TIP3   OH2 3950   3.082   2.018   0.855
 1329TIP3    H1 3951   3.147   2.078   0.821
 1329TIP3    H2 3952   3.069   2.046   0.946
 1330TIP3   OH2 3953   4.184   5.079   1.028
 1330TIP3    H1 3954   4.271   5.112   1.050
 1330TIP3    H2 3955   4.188   5.059   0.935
 1331TIP3   OH2 3956   0.160   5.401   5.877
 1331TIP3    H1 3957   0.137   5.372   5.789
 1331TIP3    H2 3958   0.105   5.349   5.935
 1332TIP3   OH2 3959   5.363   6.586   2.935
 1332TIP3    H1 3960   5.345   6.615   3.025
 1332TIP3    H2 3961   5.445   6.537   2.942
 1333TIP3   OH2 3962   2.308   1.262   2.707
 1333TIP3    H1 3963   2.328   1.262   2.613
 1333TIP3    H2 3964   2.244   1.333   2.718
 1334TIP3   OH2 3965   6.049   1.222   0.063
 1334TIP3    H1 3966   6.117   1.207  -0.002
 1334TIP3    H2 3967   5.972   1.250   0.013
 1335TIP3   OH2 3968   5.911   2.992   4.611
 1335TIP3    H1 3969   5.924   3.087   4.614
 1335TIP3    H2 3970   5.818   2.980   4.630
 1336TIP3   OH2 3971   0.830   2.978   0.315
 1336TIP3    H1 3972   0.781   2.982   0.398
 1336TIP3    H2 3973   0.765   2.999   0.248
 1337TIP3   OH2 3974   3.247   4.431   5.581
 1337TIP3    H1 3975   3.194   4.467   5.510
 1337TIP3    H2 3976   3.321   4.388   5.537
 1338TIP3   OH2 3977   1.318   3.152   2.267
 1338TIP3    H1 3978   1.310   3.210   2.343
 1338TIP3    H2 3979   1.234   3.107   2.263
 1339TIP3   OH2 3980   2.710   5.809   2.954
 1339TIP3    H1 3981   2.755   5.829   2.872
 1339TIP3    H2 3982   2.627   5.855   2.948
 1340TIP3   OH2 3983   5.991   2.317   4.808
 1340TIP3    H1 3984   5.944   2.374   4.869
 1340TIP3    H2 3985   5.962   2.229   4.831
 1341TIP3   OH2 3986   1.264   1.420   1.500
 1341TIP3    H1 3987   1.325   1.465   1.443
 1341TIP3    H2 3988   1.212   1.490   1.540
 1342TIP3   OH2 3989   6.612   2.461   4.749
 1342TIP3    H1 3990   6.529   2.434   4.709
 1342TIP3    H2 3991   6.587   2.504   4.831
 1343TIP3   OH2 3992   6.168   0.287   4.202
 1343TIP3    H1 3993   6.163   0.243   4.117
 1343TIP3    H2 3994   6.110   0.363   4.193
 1344TIP3   OH2 3995   1.054   6.743   0.342
 1344TIP3    H1 3996   1.064   6.657   0.302
 1344TIP3    H2 3997   1.141   6.782   0.336
 1345TIP3   OH2 3998   0.448   4.242   4.616
 1345TIP3    H1 3999   0.479   4.166   4.665
 1345TIP3    H2 4000   0.481   4.317   4.666
 1346TIP3   OH2 4001   2.821   4.427   0.633
 1346TIP3    H1 4002   2.847   4.370   0.705
 1346TIP3    H2 4003   2.903   4.454   0.592
 1347TIP3   OH2 4004   4.367   0.238   0.221
 1347TIP3    H1 4005   4.354   0.292   0.299
 1347TIP3    H2 4006   4.278   0.220   0.190
 1348TIP3   OH2 4007   2.378   0.575   0.969
 1348TIP3    H1 4008   2.361   0.495   1.018
 1348TIP3    H2 4009   2.292   0.600   0.934
 1349TIP3   OH2 4010   4.504   5.674   2.129
 1349TIP3    H1 4011   4.527   5.598   2.076
 1349TIP3    H2 4012   4.573   5.737   2.111
 1350TIP3   OH2 4013   4.336   0.569   3.795
 1350TIP3    H1 4014   4.257   0.606   3.754
 1350TIP3    H2 4015   4.371   0.510   3.729
 1351TIP3   OH2 4016   5.897   5.109   5.007
 1351TIP3    H1 4017   5.855   5.170   5.068
 1351TIP3    H2 4018   5.854   5.025   5.025
 1352TIP3   OH2 4019   1.296   6.442   4.907
 1352TIP3    H1 4020   1.322   6.528   4.940
 1352TIP3    H2 4021   1.201   6.449   4.894
 1353TIP3   OH2 4022   0.925   5.020   5.187
 1353TIP3    H1 4023   0.876   5.098   5.163
 1353TIP3    H2 4024   0.977   5.046   5.262
 1354TIP3   OH2 4025   1.563   2.091   3.484
 1354TIP3    H1 4026   1.555   2.186   3.476
 1354TIP3    H2 4027   1.481   2.057   3.447
 1355TIP3   OH2 4028   5.236   5.389   1.345
 1355TIP3    H1 4029   5.145   5.413   1.363
 1355TIP3    H2 4030   5.241   5.382   1.250
 1356TIP3   OH2 4031   4.249   2.741   5.412
 1356TIP3    H1 4032   4.181   2.682   5.444
 1356TIP3    H2 4033   4.206   2.792   5.343
 1357TIP3   OH2 4034   7.196   3.404   5.564
 1357TIP3    H1 4035   7.133   3.473   5.545
 1357TIP3    H2 4036   7.280   3.440   5.535
 1358TIP3   OH2 4037   2.172   4.201   2.827
 1358TIP3    H1 4038   2.215   4.163   2.749
 1358TIP3    H2 4039   2.232   4.179   2.899
 1359TIP3   OH2 4040   0.108   2.990   0.945
 1359TIP3    H1 4041   0.142   3.073   0.912
 1359TIP3    H2 4042   0.186   2.937   0.961
 1360TIP3   OH2 4043   4.911   2.869   1.880
 1360TIP3    H1 4044   4.995   2.831   1.909
 1360TIP3    H2 4045   4.845   2.807   1.911
 1361TIP3   OH2 4046   6.029   0.404   0.847
 1361TIP3    H1 4047   5.949   0.443   0.810
 1361TIP3    H2 4048   6.014   0.310   0.842
 1362TIP3   OH2 4049   3.243   3.056   4.401
 1362TIP3    H1 4050   3.155   3.027   4.377
 1362TIP3    H2 4051   3.260   3.015   4.485
 1363TIP3   OH2 4052   0.606   1.325   4.745
 1363TIP3    H1 4053   0.514   1.317   4.770
 1363TIP3    H2 4054   0.654   1.322   4.827
 1364TIP3   OH2 4055   7.056   5.732   4.007
 1364TIP3    H1 4056   7.115   5.806   3.989
 1364TIP3    H2 4057   6.970   5.764   3.981
 1365TIP3   OH2 4058   0.162   1.924   3.240
 1365TIP3    H1 4059   0.121   1.942   3.155
 1365TIP3    H2 4060   0.248   1.889   3.218
 1366TIP3   OH2 4061   1.678   6.412   5.367
 1366TIP3    H1 4062   1.757   6.357   5.359
 1366TIP3    H2 4063   1.609   6.351   5.390
 1367TIP3   OH2 4064   1.743   6.776   1.431
 1367TIP3    H1 4065   1.718   6.855   1.381
 1367TIP3    H2 4066   1.838   6.774   1.426
 1368TIP3   OH2 4067   2.851   0.857   1.142
 1368TIP3    H1 4068   2.787   0.791   1.114
 1368TIP3    H2 4069   2.808   0.941   1.126
 1369TIP3   OH2 4070   4.083   2.896   5.673
 1369TIP3    H1 4071   4.171   2.865   5.695
 1369TIP3    H2 4072   4.030   2.872   5.749
 1370TIP3   OH2 4073   5.371   3.076   5.057
 1370TIP3    H1 4074   5.412   3.143   5.002
 1370TIP3    H2 4075   5.279   3.076   5.031
 1371TIP3   OH2 4076   2.680   3.969   1.114
 1371TIP3    H1 4077   2.747   4.034   1.092
 1371TIP3    H2 4078   2.651   3.935   1.029
 1372TIP3   OH2 4079   0.771   1.216   5.788
 1372TIP3    H1 4080   0.771   1.213   5.692
 1372TIP3    H2 4081   0.740   1.130   5.815
 1373TIP3   OH2 4082   3.489   4.966   4.856
 1373TIP3    H1 4083   3.489   4.930   4.945
 1373TIP3    H2 4084   3.398   4.960   4.828
 1374TIP3   OH2 4085   7.112   3.508   4.717
 1374TIP3    H1 4086   7.025   3.474   4.738
 1374TIP3    H2 4087   7.130   3.476   4.628
 1375TIP3   OH2 4088   5.363   0.024   3.159
 1375TIP3    H1 4089   5.307   0.087   3.204
 1375TIP3    H2 4090   5.393  -0.036   3.228
 1376TIP3   OH2 4091   0.141   4.841   2.529
 1376TIP3    H1 4092   0.167   4.750   2.542
 1376TIP3    H2 4093   0.076   4.857   2.596
 1377TIP3   OH2 4094   4.324   1.318   2.652
 1377TIP3    H1 4095   4.328   1.234   2.605
 1377TIP3    H2 4096   4.415   1.338   2.672
 1378TIP3   OH2 4097   0.097   1.119   1.293
 1378TIP3    H1 4098   0.054   1.074   1.220
 1378TIP3    H2 4099   0.042   1.194   1.312
 1379TIP3   OH2 4100   4.542   4.758   1.238
 1379TIP3    H1 4101   4.600   4.800   1.174
 1379TIP3    H2 4102   4.461   4.742   1.190
 1380TIP3   OH2 4103   2.401   0.265   0.957
 1380TIP3    H1 4104   2.383   0.245   0.865
 1380TIP3    H2 4105   2.355   0.197   1.006
 1381TIP3   OH2 4106   5.657   4.502   1.465
 1381TIP3    H1 4107   5.688   4.522   1.377
 1381TIP3    H2 4108   5.732   4.463   1.509
 1382TIP3   OH2 4109   3.918   2.667   1.310
 1382TIP3    H1 4110   3.943   2.673   1.218
 1382TIP3    H2 4111   3.822   2.673   1.310
 1383TIP3   OH2 4112   0.252   5.714   1.742
 1383TIP3    H1 4113   0.174   5.670   1.709
 1383TIP3    H2 4114   0.239   5.806   1.719
 1384TIP3   OH2 4115   2.569   2.145   1.093
 1384TIP3    H1 4116   2.648   2.093   1.105
 1384TIP3    H2 4117   2.502   2.080   1.070
 1385TIP3   OH2 4118   1.916   5.669   4.684
 1385TIP3    H1 4119   1.917   5.712   4.769
 1385TIP3    H2 4120   1.977   5.596   4.692
 1386TIP3   OH2 4121   5.093   2.885   0.730
 1386TIP3    H1 4122   5.037   2.925   0.796
 1386TIP3    H2 4123   5.143   2.819   0.778
 1387TIP3   OH2 4124   3.126   5.938   3.659
 1387TIP3    H1 4125   3.085   5.890   3.587
 1387TIP3    H2 4126   3.216   5.950   3.631
 1388TIP3   OH2 4127   5.475   6.751   4.432
 1388TIP3    H1 4128   5.553   6.756   4.377
 1388TIP3    H2 4129   5.459   6.841   4.460
 1389TIP3   OH2 4130   2.066   1.597   2.052
 1389TIP3    H1 4131   2.037   1.686   2.031
 1389TIP3    H2 4132   2.060   1.592   2.148
 1390TIP3   OH2 4133   4.231   4.522   4.015
 1390TIP3    H1 4134   4.264   4.544   3.928
 1390TIP3    H2 4135   4.141   4.554   4.015
 1391TIP3   OH2 4136   2.609   5.640   1.906
 1391TIP3    H1 4137   2.659   5.716   1.875
 1391TIP3    H2 4138   2.534   5.635   1.846
 1392TIP3   OH2 4139   6.057   1.345   5.372
 1392TIP3    H1 4140   6.024   1.280   5.311
 1392TIP3    H2 4141   6.032   1.312   5.458
 1393TIP3   OH2 4142   3.745   4.301   3.563
 1393TIP3    H1 4143   3.814   4.255   3.516
 1393TIP3    H2 4144   3.745   4.389   3.526
 1394TIP3   OH2 4145   6.424   2.588   0.325
 1394TIP3    H1 4146   6.394   2.534   0.253
 1394TIP3    H2 4147   6.450   2.526   0.393
 1395TIP3   OH2 4148   6.646   2.201   2.351
 1395TIP3    H1 4149   6.704   2.212   2.275
 1395TIP3    H2 4150   6.633   2.290   2.384
 1396TIP3   OH2 4151   3.109   6.171   1.827
 1396TIP3    H1 4152   3.177   6.239   1.826
 1396TIP3    H2 4153   3.030   6.216   1.797
 1397TIP3   OH2 4154   6.327   2.917   1.731
 1397TIP3    H1 4155   6.240   2.958   1.738
 1397TIP3    H2 4156   6.364   2.926   1.819
 1398TIP3   OH2 4157   4.061   3.914   3.379
 1398TIP3    H1 4158   3.972   3.879   3.365
 1398TIP3    H2 4159   4.102   3.850   3.438
 1399TIP3   OH2 4160   6.765   3.489   1.170
 1399TIP3    H1 4161   6.701   3.545   1.213
 1399TIP3    H2 4162   6.723   3.403   1.166
 1400TIP3   OH2 4163   2.441   5.250   5.316
 1400TIP3    H1 4164   2.460   5.157   5.326
 1400TIP3    H2 4165   2.521   5.294   5.346
 1401TIP3   OH2 4166   2.934   5.936   3.388
 1401TIP3    H1 4167   2.877   6.011   3.403
 1401TIP3    H2 4168   3.013   5.973   3.349
 1402TIP3   OH2 4169   6.164   4.824   3.830
 1402TIP3    H1 4170   6.227   4.764   3.789
 1402TIP3    H2 4171   6.163   4.900   3.771
 1403TIP3   OH2 4172   6.906   0.882   0.760
 1403TIP3    H1 4173   6.984   0.836   0.792
 1403TIP3    H2 4174   6.889   0.842   0.674
 1404TIP3   OH2 4175   5.269   1.021   4.066
 1404TIP3    H1 4176   5.271   1.015   4.161
 1404TIP3    H2 4177   5.179   0.999   4.042
 1405TIP3   OH2 4178   0.073   6.164   0.668
 1405TIP3    H1 4179   0.024   6.097   0.620
 1405TIP3    H2 4180   0.067   6.136   0.760
 1406TIP3   OH2 4181   6.132   5.779   4.084
 1406TIP3    H1 4182   6.099   5.729   4.159
 1406TIP3    H2 4183   6.189   5.717   4.038
 1407TIP3   OH2 4184   6.977   3.205   3.738
 1407TIP3    H1 4185   6.939   3.208   3.651
 1407TIP3    H2 4186   7.064   3.243   3.728
 1408TIP3   OH2 4187   5.204   2.001   5.015
 1408TIP3    H1 4188   5.269   2.024   4.949
 1408TIP3    H2 4189   5.125   1.981   4.966
 1409TIP3   OH2 4190   2.670   6.608   2.960
 1409TIP3    H1 4191   2.763   6.583   2.954
 1409TIP3    H2 4192   2.639   6.561   3.038
 1410TIP3   OH2 4193   4.618   4.774   1.499
 1410TIP3    H1 4194   4.551   4.733   1.553
 1410TIP3    H2 4195   4.576   4.785   1.413
 1411TIP3   OH2 4196   0.664   0.725   0.418
 1411TIP3    H1 4197   0.698   0.773   0.495
 1411TIP3    H2 4198   0.722   0.650   0.410
 1412TIP3   OH2 4199   3.193   0.123   4.748
 1412TIP3    H1 4200   3.252   0.176   4.695
 1412TIP3    H2 4201   3.155   0.061   4.686
 1413TIP3   OH2 4202   0.537   4.845   0.213
 1413TIP3    H1 4203   0.460   4.825   0.160
 1413TIP3    H2 4204   0.524   4.936   0.241
 1414TIP3   OH2 4205   2.984   2.295   3.187
 1414TIP3    H1 4206   2.973   2.235   3.113
 1414TIP3    H2 4207   2.957   2.244   3.264
 1415TIP3   OH2 4208   1.706   1.879   3.192
 1415TIP3    H1 4209   1.773   1.860   3.258
 1415TIP3    H2 4210   1.678   1.793   3.161
 1416TIP3   OH2 4211   0.829   1.469   3.399
 1416TIP3    H1 4212   0.881   1.518   3.334
 1416TIP3    H2 4213   0.765   1.533   3.431
 1417TIP3   OH2 4214   0.259   5.486   5.278
 1417TIP3    H1 4215   0.173   5.497   5.238
 1417TIP3    H2 4216   0.246   5.515   5.369
 1418TIP3   OH2 4217   4.537   4.712   2.387
 1418TIP3    H1 4218   4.486   4.764   2.449
 1418TIP3    H2 4219   4.606   4.771   2.356
 1419TIP3   OH2 4220   1.414   3.181   5.362
 1419TIP3    H1 4221   1.499   3.209   5.397
 1419TIP3    H2 4222   1.403   3.233   5.283
 1420TIP3   OH2 4223   2.674   3.982   2.914
 1420TIP3    H1 4224   2.732   3.959   2.841
 1420TIP3    H2 4225   2.723   3.958   2.992
 1421TIP3   OH2 4226   3.192   4.833   4.055
 1421TIP3    H1 4227   3.286   4.852   4.048
 1421TIP3    H2 4228   3.152   4.918   4.073
 1422TIP3   OH2 4229   5.147   5.879   5.679
 1422TIP3    H1 4230   5.089   5.952   5.659
 1422TIP3    H2 4231   5.210   5.878   5.607
 1423TIP3   OH2 4232   1.991   2.102   3.790
 1423TIP3    H1 4233   2.052   2.139   3.726
 1423TIP3    H2 4234   1.905   2.113   3.749
 1424TIP3   OH2 4235   5.466   4.226   0.215
 1424TIP3    H1 4236   5.404   4.183   0.155
 1424TIP3    H2 4237   5.426   4.216   0.301
 1425TIP3   OH2 4238   1.675   4.636   2.183
 1425TIP3    H1 4239   1.681   4.638   2.088
 1425TIP3    H2 4240   1.764   4.617   2.213
 1426TIP3   OH2 4241   6.631   3.112   0.657
 1426TIP3    H1 4242   6.671   3.179   0.601
 1426TIP3    H2 4243   6.682   3.033   0.640
 1427TIP3   OH2 4244   1.793   6.170   5.395
 1427TIP3    H1 4245   1.830   6.113   5.462
 1427TIP3    H2 4246   1.701   6.181   5.421
 1428TIP3   OH2 4247   6.222   2.914   3.414
 1428TIP3    H1 4248   6.140   2.899   3.367
 1428TIP3    H2 4249   6.267   2.981   3.363
 1429TIP3   OH2 4250   5.634   4.847   3.506
 1429TIP3    H1 4251   5.729   4.843   3.512
 1429TIP3    H2 4252   5.606   4.756   3.508
 1430TIP3   OH2 4253   6.964   1.514   1.509
 1430TIP3    H1 4254   7.002   1.489   1.593
 1430TIP3    H2 4255   6.869   1.511   1.524
 1431TIP3   OH2 4256   2.317   5.469   5.395
 1431TIP3    H1 4257   2.338   5.539   5.334
 1431TIP3    H2 4258   2.353   5.390   5.354
 1432TIP3   OH2 4259   0.295   2.965   5.141
 1432TIP3    H1 4260   0.299   2.896   5.075
 1432TIP3    H2 4261   0.384   3.001   5.144
 1433TIP3   OH2 4262   4.370   1.716   1.877
 1433TIP3    H1 4263   4.418   1.635   1.893
 1433TIP3    H2 4264   4.359   1.755   1.964
 1434TIP3   OH2 4265   4.891   2.841   2.886
 1434TIP3    H1 4266   4.798   2.825   2.871
 1434TIP3    H2 4267   4.935   2.786   2.821
 1435TIP3   OH2 4268   4.029   4.401   2.429
 1435TIP3    H1 4269   4.016   4.476   2.371
 1435TIP3    H2 4270   4.078   4.436   2.503
 1436TIP3   OH2 4271   3.188   4.955   2.895
 1436TIP3    H1 4272   3.262   4.971   2.954
 1436TIP3    H2 4273   3.119   4.920   2.952
 1437TIP3   OH2 4274   5.225   2.943   3.503
 1437TIP3    H1 4275   5.179   3.008   3.557
 1437TIP3    H2 4276   5.296   2.911   3.559
 1438TIP3   OH2 4277   0.909   5.296   5.080
 1438TIP3    H1 4278   0.891   5.339   5.164
 1438TIP3    H2 4279   1.002   5.313   5.065
 1439TIP3   OH2 4280   3.285   1.705   4.901
 1439TIP3    H1 4281   3.260   1.755   4.823
 1439TIP3    H2 4282   3.215   1.722   4.964
 1440TIP3   OH2 4283   1.345   2.679   0.869
 1440TIP3    H1 4284   1.350   2.648   0.959
 1440TIP3    H2 4285   1.377   2.605   0.817
 1441TIP3   OH2 4286   0.785   5.902   4.947
 1441TIP3    H1 4287   0.783   5.824   5.002
 1441TIP3    H2 4288   0.871   5.941   4.964
 1442TIP3   OH2 4289   3.940   4.657   0.504
 1442TIP3    H1 4290   3.986   4.628   0.425
 1442TIP3    H2 4291   3.911   4.746   0.484
 1443TIP3   OH2 4292   0.828   6.642   3.602
 1443TIP3    H1 4293   0.866   6.649   3.514
 1443TIP3    H2 4294   0.738   6.614   3.587
 1444TIP3   OH2 4295   7.145   1.390   4.029
 1444TIP3    H1 4296   7.101   1.397   3.944
 1444TIP3    H2 4297   7.168   1.480   4.051
 1445TIP3   OH2 4298   5.581   2.756   5.070
 1445TIP3    H1 4299   5.620   2.799   5.146
 1445TIP3    H2 4300   5.581   2.663   5.092
 1446TIP3   OH2 4301   4.788   0.244   4.220
 1446TIP3    H1 4302   4.863   0.218   4.274
 1446TIP3    H2 4303   4.722   0.271   4.284
 1447TIP3   OH2 4304   3.327   0.264   4.376
 1447TIP3    H1 4305   3.418   0.289   4.364
 1447TIP3    H2 4306   3.296   0.242   4.289
 1448TIP3   OH2 4307   3.319   6.397   0.962
 1448TIP3    H1 4308   3.226   6.407   0.984
 1448TIP3    H2 4309   3.325   6.309   0.925
 1449TIP3   OH2 4310   4.234   2.891   4.154
 1449TIP3    H1 4311   4.318   2.846   4.163
 1449TIP3    H2 4312   4.231   2.953   4.227
 1450TIP3   OH2 4313   3.631   3.648   1.406
 1450TIP3    H1 4314   3.550   3.657   1.456
 1450TIP3    H2 4315   3.684   3.587   1.456
 1451TIP3   OH2 4316   7.011   6.164   5.104
 1451TIP3    H1 4317   7.096   6.136   5.137
 1451TIP3    H2 4318   6.956   6.085   5.110
 1452TIP3   OH2 4319   6.880   2.955   5.740
 1452TIP3    H1 4320   6.820   3.015   5.785
 1452TIP3    H2 4321   6.964   2.968   5.784
 1453TIP3   OH2 4322   3.173   0.879   3.424
 1453TIP3    H1 4323   3.098   0.827   3.454
 1453TIP3    H2 4324   3.190   0.849   3.335
 1454TIP3   OH2 4325   7.039   3.274   3.235
 1454TIP3    H1 4326   7.025   3.240   3.147
 1454TIP3    H2 4327   7.102   3.345   3.224
 1455TIP3   OH2 4328   1.265   4.884   4.259
 1455TIP3    H1 4329   1.314   4.828   4.320
 1455TIP3    H2 4330   1.283   4.973   4.288
 1456TIP3   OH2 4331   6.093   1.050   5.448
 1456TIP3    H1 4332   6.065   1.024   5.535
 1456TIP3    H2 4333   6.149   0.978   5.418
 1457TIP3   OH2 4334   2.702   2.404   1.964
 1457TIP3    H1 4335   2.630   2.378   1.907
 1457TIP3    H2 4336   2.737   2.483   1.923
 1458TIP3   OH2 4337   0.513   1.075   4.191
 1458TIP3    H1 4338   0.478   1.091   4.279
 1458TIP3    H2 4339   0.499   1.157   4.144
 1459TIP3   OH2 4340   5.028   1.046   3.730
 1459TIP3    H1 4341   5.071   1.006   3.655
 1459TIP3    H2 4342   5.019   0.974   3.793
 1460TIP3   OH2 4343   4.944   2.645   2.690
 1460TIP3    H1 4344   4.879   2.616   2.626
 1460TIP3    H2 4345   5.026   2.649   2.642
 1461TIP3   OH2 4346   0.786   2.326   1.565
 1461TIP3    H1 4347   0.713   2.309   1.624
 1461TIP3    H2 4348   0.803   2.419   1.575
 1462TIP3   OH2 4349   1.529   4.382   5.267
 1462TIP3    H1 4350   1.538   4.330   5.347
 1462TIP3    H2 4351   1.576   4.331   5.201
 1463TIP3   OH2 4352   1.839   1.649   4.427
 1463TIP3    H1 4353   1.810   1.649   4.519
 1463TIP3    H2 4354   1.870   1.560   4.412
 1464TIP3   OH2 4355   0.990   5.134   0.620
 1464TIP3    H1 4356   0.981   5.047   0.659
 1464TIP3    H2 4357   0.984   5.194   0.693
 1465TIP3   OH2 4358   2.551   1.204   1.417
 1465TIP3    H1 4359   2.594   1.135   1.467
 1465TIP3    H2 4360   2.514   1.262   1.483
 1466TIP3   OH2 4361   3.618   0.918   0.535
 1466TIP3    H1 4362   3.619   1.007   0.570
 1466TIP3    H2 4363   3.697   0.913   0.481
 1467TIP3   OH2 4364   0.248   0.234   1.035
 1467TIP3    H1 4365   0.172   0.270   1.081
 1467TIP3    H2 4366   0.220   0.231   0.943
 1468TIP3   OH2 4367   4.855   3.647   1.757
 1468TIP3    H1 4368   4.922   3.579   1.763
 1468TIP3    H2 4369   4.862   3.681   1.668
 1469TIP3   OH2 4370   5.923   1.871   3.418
 1469TIP3    H1 4371   5.986   1.799   3.418
 1469TIP3    H2 4372   5.837   1.828   3.417
 1470TIP3   OH2 4373   5.286   0.571   2.790
 1470TIP3    H1 4374   5.216   0.629   2.761
 1470TIP3    H2 4375   5.359   0.590   2.731
 1471TIP3   OH2 4376   6.817   3.983   2.885
 1471TIP3    H1 4377   6.726   3.979   2.853
 1471TIP3    H2 4378   6.810   4.015   2.975
 1472TIP3   OH2 4379   3.440   5.355   1.556
 1472TIP3    H1 4380   3.362   5.380   1.605
 1472TIP3    H2 4381   3.406   5.316   1.475
 1473TIP3   OH2 4382   1.354   2.900   5.355
 1473TIP3    H1 4383   1.353   2.994   5.338
 1473TIP3    H2 4384   1.371   2.893   5.449
 1474TIP3   OH2 4385   2.533   2.052   5.278
 1474TIP3    H1 4386   2.554   2.145   5.285
 1474TIP3    H2 4387   2.606   2.008   5.321
 1475TIP3   OH2 4388   4.334   3.094   0.614
 1475TIP3    H1 4389   4.308   3.125   0.701
 1475TIP3    H2 4390   4.308   3.002   0.612
 1476TIP3   OH2 4391   1.245   0.744   3.372
 1476TIP3    H1 4392   1.216   0.812   3.432
 1476TIP3    H2 4393   1.295   0.683   3.427
 1477TIP3   OH2 4394   6.871   4.966   3.676
 1477TIP3    H1 4395   6.859   5.057   3.650
 1477TIP3    H2 4396   6.837   4.961   3.765
 1478TIP3   OH2 4397   3.611   0.262   3.536
 1478TIP3    H1 4398   3.673   0.331   3.561
 1478TIP3    H2 4399   3.650   0.182   3.571
 1479TIP3   OH2 4400   6.008   0.390   5.857
 1479TIP3    H1 4401   6.011   0.467   5.801
 1479TIP3    H2 4402   6.059   0.415   5.934
 1480TIP3   OH2 4403   2.561   4.687   5.517
 1480TIP3    H1 4404   2.621   4.753   5.554
 1480TIP3    H2 4405   2.573   4.610   5.572
 1481TIP3   OH2 4406   6.107   4.454   2.470
 1481TIP3    H1 4407   6.170   4.508   2.519
 1481TIP3    H2 4408   6.022   4.478   2.506
 1482TIP3   OH2 4409   3.188   2.489   4.541
 1482TIP3    H1 4410   3.228   2.449   4.464
 1482TIP3    H2 4411   3.187   2.419   4.607
 1483TIP3   OH2 4412   4.059   1.836   5.227
 1483TIP3    H1 4413   3.990   1.821   5.291
 1483TIP3    H2 4414   4.023   1.803   5.144
 1484TIP3   OH2 4415   5.127   0.221   3.555
 1484TIP3    H1 4416   5.035   0.215   3.581
 1484TIP3    H2 4417   5.151   0.312   3.573
 1485TIP3   OH2 4418   5.688   1.759   5.167
 1485TIP3    H1 4419   5.639   1.684   5.201
 1485TIP3    H2 4420   5.623   1.812   5.122
 1486TIP3   OH2 4421   0.287   2.097   1.019
 1486TIP3    H1 4422   0.297   2.137   1.105
 1486TIP3    H2 4423   0.371   2.053   1.003
 1487TIP3   OH2 4424   5.794   3.283   3.277
 1487TIP3    H1 4425   5.737   3.207   3.291
 1487TIP3    H2 4426   5.746   3.338   3.215
 1488TIP3   OH2 4427   0.015   0.853   2.065
 1488TIP3    H1 4428   0.055   0.921   2.120
 1488TIP3    H2 4429   0.037   0.771   2.109
 1489TIP3   OH2 4430   1.424   3.417   5.738
 1489TIP3    H1 4431   1.454   3.485   5.799
 1489TIP3    H2 4432   1.493   3.410   5.673
 1490TIP3   OH2 4433   6.502   2.038   3.898
 1490TIP3    H1 4434   6.430   2.027   3.960
 1490TIP3    H2 4435   6.507   1.955   3.851
 1491TIP3   OH2 4436   6.651   0.880   5.489
 1491TIP3    H1 4437   6.714   0.809   5.501
 1491TIP3    H2 4438   6.624   0.903   5.578
 1492TIP3   OH2 4439   4.286   4.851   0.597
 1492TIP3    H1 4440   4.345   4.858   0.521
 1492TIP3    H2 4441   4.323   4.780   0.649
 1493TIP3   OH2 4442   1.840   0.880   4.775
 1493TIP3    H1 4443   1.828   0.824   4.852
 1493TIP3    H2 4444   1.935   0.882   4.762
 1494TIP3   OH2 4445   6.937   3.791   3.908
 1494TIP3    H1 4446   6.867   3.758   3.964
 1494TIP3    H2 4447   6.922   3.748   3.823
 1495TIP3   OH2 4448   4.098   0.072   5.384
 1495TIP3    H1 4449   4.112   0.166   5.371
 1495TIP3    H2 4450   4.182   0.039   5.416
 1496TIP3   OH2 4451   1.868   0.629   2.610
 1496TIP3    H1 4452   1.939   0.578   2.650
 1496TIP3    H2 4453   1.906   0.716   2.597
 1497TIP3   OH2 4454   0.634   6.544   0.221
 1497TIP3    H1 4455   0.659   6.523   0.131
 1497TIP3    H2 4456   0.541   6.567   0.214
 1498TIP3   OH2 4457   4.356   6.562   0.311
 1498TIP3    H1 4458   4.352   6.623   0.384
 1498TIP3    H2 4459   4.449   6.556   0.290
 1499TIP3   OH2 4460   5.402   0.363   4.998
 1499TIP3    H1 4461   5.320   0.406   4.974
 1499TIP3    H2 4462   5.402   0.363   5.094
 1500TIP3   OH2 4463   0.576   3.781   3.322
 1500TIP3    H1 4464   0.554   3.732   3.401
 1500TIP3    H2 4465   0.511   3.752   3.257
 1501TIP3   OH2 4466   1.613   6.599   4.121
 1501TIP3    H1 4467   1.540   6.587   4.182
 1501TIP3    H2 4468   1.611   6.521   4.066
 1502TIP3   OH2 4469   4.779   2.338   1.897
 1502TIP3    H1 4470   4.848   2.348   1.831
 1502TIP3    H2 4471   4.804   2.398   1.967
 1503TIP3   OH2 4472   5.057   4.959   3.149
 1503TIP3    H1 4473   5.150   4.941   3.165
 1503TIP3    H2 4474   5.038   4.914   3.066
 1504TIP3   OH2 4475   1.132   4.074   3.268
 1504TIP3    H1 4476   1.218   4.043   3.239
 1504TIP3    H2 4477   1.151   4.151   3.321
 1505TIP3   OH2 4478   5.201   6.655   5.237
 1505TIP3    H1 4479   5.139   6.722   5.208
 1505TIP3    H2 4480   5.145   6.581   5.262
 1506TIP3   OH2 4481   1.150   5.141   1.673
 1506TIP3    H1 4482   1.061   5.123   1.702
 1506TIP3    H2 4483   1.173   5.069   1.615
 1507TIP3   OH2 4484   0.560   5.560   1.475
 1507TIP3    H1 4485   0.617   5.551   1.398
 1507TIP3    H2 4486   0.472   5.572   1.439
 1508TIP3   OH2 4487   3.890   5.935   3.205
 1508TIP3    H1 4488   3.985   5.940   3.219
 1508TIP3    H2 4489   3.871   6.006   3.144
 1509TIP3   OH2 4490   6.365   6.110   3.816
 1509TIP3    H1 4491   6.288   6.078   3.863
 1509TIP3    H2 4492   6.335   6.191   3.774
 1510TIP3   OH2 4493   3.959   2.747   2.600
 1510TIP3    H1 4494   4.045   2.724   2.635
 1510TIP3    H2 4495   3.924   2.665   2.566
 1511TIP3   OH2 4496   0.783   2.801   1.590
 1511TIP3    H1 4497   0.722   2.737   1.553
 1511TIP3    H2 4498   0.860   2.749   1.615
 1512TIP3   OH2 4499   1.220   4.398   5.611
 1512TIP3    H1 4500   1.134   4.357   5.601
 1512TIP3    H2 4501   1.260   4.352   5.685
 1513TIP3   OH2 4502   0.807   4.050   4.162
 1513TIP3    H1 4503   0.782   3.958   4.158
 1513TIP3    H2 4504   0.738   4.092   4.214
 1514TIP3   OH2 4505   2.624   0.775   5.324
 1514TIP3    H1 4506   2.660   0.768   5.236
 1514TIP3    H2 4507   2.607   0.685   5.350
 1515TIP3   OH2 4508   3.189   4.287   1.805
 1515TIP3    H1 4509   3.217   4.203   1.770
 1515TIP3    H2 4510   3.115   4.267   1.862
 1516TIP3   OH2 4511   0.294   2.341   0.448
 1516TIP3    H1 4512   0.236   2.290   0.505
 1516TIP3    H2 4513   0.239   2.368   0.375
 1517TIP3   OH2 4514   5.901   1.481   3.489
 1517TIP3    H1 4515   5.983   1.514   3.452
 1517TIP3    H2 4516   5.867   1.553   3.541
 1518TIP3   OH2 4517   4.009   0.303   3.444
 1518TIP3    H1 4518   3.983   0.285   3.354
 1518TIP3    H2 4519   4.066   0.230   3.467
 1519TIP3   OH2 4520   2.198   3.527   4.610
 1519TIP3    H1 4521   2.226   3.468   4.680
 1519TIP3    H2 4522   2.265   3.518   4.542
 1520TIP3   OH2 4523   5.255  -0.009   0.424
 1520TIP3    H1 4524   5.260   0.086   0.414
 1520TIP3    H2 4525   5.326  -0.043   0.371
 1521TIP3   OH2 4526   1.611   4.065   0.857
 1521TIP3    H1 4527   1.670   4.020   0.918
 1521TIP3    H2 4528   1.524   4.042   0.887
 1522TIP3   OH2 4529   5.312   2.466   3.790
 1522TIP3    H1 4530   5.282   2.456   3.880
 1522TIP3    H2 4531   5.370   2.391   3.775
 1523TIP3   OH2 4532   1.317   2.012   3.684
 1523TIP3    H1 4533   1.409   2.012   3.713
 1523TIP3    H2 4534   1.322   1.996   3.590
 1524TIP3   OH2 4535   1.164   0.104   0.023
 1524TIP3    H1 4536   1.246   0.134   0.062
 1524TIP3    H2 4537   1.118   0.059   0.094
 1525TIP3   OH2 4538   4.282   5.777   2.894
 1525TIP3    H1 4539   4.259   5.863   2.857
 1525TIP3    H2 4540   4.376   5.770   2.880
 1526TIP3   OH2 4541   1.095   2.828   1.781
 1526TIP3    H1 4542   1.129   2.847   1.694
 1526TIP3    H2 4543   1.084   2.913   1.822
 1527TIP3   OH2 4544   5.639   6.057   4.976
 1527TIP3    H1 4545   5.559   6.022   5.015
 1527TIP3    H2 4546   5.608   6.123   4.913
 1528TIP3   OH2 4547   6.825   5.682   4.238
 1528TIP3    H1 4548   6.785   5.709   4.321
 1528TIP3    H2 4549   6.895   5.746   4.223
 1529TIP3   OH2 4550   0.505   2.633   0.315
 1529TIP3    H1 4551   0.541   2.693   0.250
 1529TIP3    H2 4552   0.415   2.619   0.287
 1530TIP3   OH2 4553   2.001   4.756   2.048
 1530TIP3    H1 4554   2.090   4.783   2.070
 1530TIP3    H2 4555   1.947   4.833   2.063
 1531TIP3   OH2 4556   6.365   4.450   1.392
 1531TIP3    H1 4557   6.356   4.544   1.405
 1531TIP3    H2 4558   6.450   4.429   1.430
 1532TIP3   OH2 4559   5.909   0.322   0.305
 1532TIP3    H1 4560   5.914   0.284   0.218
 1532TIP3    H2 4561   5.999   0.322   0.337
 1533TIP3   OH2 4562   1.366   1.803   3.033
 1533TIP3    H1 4563   1.429   1.764   2.973
 1533TIP3    H2 4564   1.367   1.896   3.010
 1534TIP3   OH2 4565   1.337   6.534   5.345
 1534TIP3    H1 4566   1.412   6.552   5.288
 1534TIP3    H2 4567   1.335   6.608   5.406
 1535TIP3   OH2 4568   1.569   5.588   5.393
 1535TIP3    H1 4569   1.582   5.647   5.318
 1535TIP3    H2 4570   1.653   5.544   5.404
 1536TIP3   OH2 4571   5.799   5.945   1.581
 1536TIP3    H1 4572   5.726   6.005   1.594
 1536TIP3    H2 4573   5.758   5.866   1.544
 1537TIP3   OH2 4574   2.349   2.728   1.681
 1537TIP3    H1 4575   2.439   2.760   1.686
 1537TIP3    H2 4576   2.317   2.732   1.772
 1538TIP3   OH2 4577   4.900   1.244   2.704
 1538TIP3    H1 4578   4.872   1.303   2.774
 1538TIP3    H2 4579   4.950   1.176   2.748
 1539TIP3   OH2 4580   4.264   2.668   1.517
 1539TIP3    H1 4581   4.254   2.634   1.428
 1539TIP3    H2 4582   4.178   2.704   1.539
 1540TIP3   OH2 4583   0.915   6.030   3.817
 1540TIP3    H1 4584   0.960   5.993   3.741
 1540TIP3    H2 4585   0.827   5.994   3.813
 1541TIP3   OH2 4586   2.848   3.935   3.117
 1541TIP3    H1 4587   2.842   3.916   3.210
 1541TIP3    H2 4588   2.893   3.859   3.080
 1542TIP3   OH2 4589   2.843   6.616   2.373
 1542TIP3    H1 4590   2.877   6.543   2.321
 1542TIP3    H2 4591   2.921   6.661   2.405
 1543TIP3   OH2 4592   0.309   6.209   0.253
 1543TIP3    H1 4593   0.306   6.258   0.335
 1543TIP3    H2 4594   0.401   6.184   0.243
 1544TIP3   OH2 4595   2.160   3.639   0.539
 1544TIP3    H1 4596   2.129   3.663   0.627
 1544TIP3    H2 4597   2.243   3.595   0.554
 1545TIP3   OH2 4598   1.164   3.781   5.501
 1545TIP3    H1 4599   1.207   3.729   5.433
 1545TIP3    H2 4600   1.071   3.760   5.492
 1546TIP3   OH2 4601   5.367   3.758   3.381
 1546TIP3    H1 4602   5.410   3.674   3.366
 1546TIP3    H2 4603   5.412   3.819   3.323
 1547TIP3   OH2 4604   6.342   0.742   3.671
 1547TIP3    H1 4605   6.330   0.680   3.600
 1547TIP3    H2 4606   6.437   0.745   3.684
 1548TIP3   OH2 4607   1.304   5.072   5.268
 1548TIP3    H1 4608   1.369   5.054   5.200
 1548TIP3    H2 4609   1.279   4.985   5.300
 1549TIP3   OH2 4610   2.017   6.225   2.414
 1549TIP3    H1 4611   2.070   6.145   2.415
 1549TIP3    H2 4612   1.933   6.198   2.451
 1550TIP3   OH2 4613   6.539   3.211   2.542
 1550TIP3    H1 4614   6.468   3.275   2.546
 1550TIP3    H2 4615   6.610   3.249   2.594
 1551TIP3   OH2 4616   1.975   5.972   4.626
 1551TIP3    H1 4617   2.007   5.894   4.581
 1551TIP3    H2 4618   1.920   6.017   4.562
 1552TIP3   OH2 4619   5.083   3.017   4.599
 1552TIP3    H1 4620   4.993   2.987   4.607
 1552TIP3    H2 4621   5.100   3.015   4.505
 1553TIP3   OH2 4622   5.973   5.820   4.561
 1553TIP3    H1 4623   5.906   5.765   4.601
 1553TIP3    H2 4624   6.038   5.834   4.631
 1554TIP3   OH2 4625   3.558   5.916   2.187
 1554TIP3    H1 4626   3.582   5.857   2.116
 1554TIP3    H2 4627   3.631   5.911   2.248
 1555TIP3   OH2 4628   0.954   4.107   1.213
 1555TIP3    H1 4629   0.861   4.129   1.209
 1555TIP3    H2 4630   0.979   4.089   1.123
 1556TIP3   OH2 4631   4.054   6.162   0.312
 1556TIP3    H1 4632   3.994   6.229   0.346
 1556TIP3    H2 4633   4.128   6.212   0.277
 1557TIP3   OH2 4634   0.126   4.761   5.049
 1557TIP3    H1 4635   0.089   4.700   4.986
 1557TIP3    H2 4636   0.090   4.734   5.134
 1558TIP3   OH2 4637   3.241   2.582   2.225
 1558TIP3    H1 4638   3.215   2.609   2.313
 1558TIP3    H2 4639   3.178   2.515   2.200
 1559TIP3   OH2 4640   3.291   6.602   1.749
 1559TIP3    H1 4641   3.274   6.677   1.692
 1559TIP3    H2 4642   3.205   6.576   1.780
 1560TIP3   OH2 4643   2.006  -0.009   5.282
 1560TIP3    H1 4644   1.988   0.076   5.240
 1560TIP3    H2 4645   1.932  -0.022   5.341
 1561TIP3   OH2 4646   3.536   1.547   3.019
 1561TIP3    H1 4647   3.560   1.502   2.938
 1561TIP3    H2 4648   3.443   1.570   3.007
 1562TIP3   OH2 4649   0.580   3.911   1.597
 1562TIP3    H1 4650   0.658   3.899   1.651
 1562TIP3    H2 4651   0.612   3.909   1.507
 1563TIP3   OH2 4652   4.395   5.673   0.426
 1563TIP3    H1 4653   4.420   5.653   0.516
 1563TIP3    H2 4654   4.467   5.726   0.392
 1564TIP3   OH2 4655   2.380   5.445   5.877
 1564TIP3    H1 4656   2.431   5.375   5.916
 1564TIP3    H2 4657   2.444   5.500   5.833
 1565TIP3   OH2 4658   4.183   5.842   1.024
 1565TIP3    H1 4659   4.217   5.894   1.096
 1565TIP3    H2 4660   4.188   5.752   1.055
 1566TIP3   OH2 4661   5.140   5.538   3.948
 1566TIP3    H1 4662   5.190   5.502   3.875
 1566TIP3    H2 4663   5.060   5.573   3.908
 1567TIP3   OH2 4664   3.687   3.687   1.955
 1567TIP3    H1 4665   3.683   3.596   1.926
 1567TIP3    H2 4666   3.768   3.721   1.916
 1568TIP3   OH2 4667   4.404   4.894   2.621
 1568TIP3    H1 4668   4.324   4.893   2.672
 1568TIP3    H2 4669   4.456   4.965   2.659
 1569TIP3   OH2 4670   0.163   5.168   4.946
 1569TIP3    H1 4671   0.082   5.120   4.927
 1569TIP3    H2 4672   0.135   5.239   5.004
 1570TIP3   OH2 4673   0.925   0.314   5.130
 1570TIP3    H1 4674   1.013   0.280   5.143
 1570TIP3    H2 4675   0.881   0.247   5.078
 1571TIP3   OH2 4676   1.529   6.162   0.711
 1571TIP3    H1 4677   1.561   6.121   0.631
 1571TIP3    H2 4678   1.543   6.256   0.697
 1572TIP3   OH2 4679   1.745   1.001   0.128
 1572TIP3    H1 4680   1.803   0.930   0.098
 1572TIP3    H2 4681   1.674   0.956   0.174
 1573TIP3   OH2 4682   1.879   4.578   5.675
 1573TIP3    H1 4683   1.873   4.506   5.612
 1573TIP3    H2 4684   1.873   4.657   5.621
 1574TIP3   OH2 4685   0.060   3.773   1.136
 1574TIP3    H1 4686   0.125   3.810   1.076
 1574TIP3    H2 4687   0.058   3.835   1.209
 1575TIP3   OH2 4688   5.438   4.193   5.217
 1575TIP3    H1 4689   5.388   4.112   5.228
 1575TIP3    H2 4690   5.377   4.263   5.237
 1576TIP3   OH2 4691   4.775   0.462   4.042
 1576TIP3    H1 4692   4.792   0.410   4.120
 1576TIP3    H2 4693   4.856   0.454   3.991
 1577TIP3   OH2 4694   6.585   5.179   3.604
 1577TIP3    H1 4695   6.594   5.117   3.531
 1577TIP3    H2 4696   6.553   5.259   3.563
 1578TIP3   OH2 4697   5.635   0.776   4.667
 1578TIP3    H1 4698   5.672   0.720   4.735
 1578TIP3    H2 4699   5.590   0.846   4.715
 1579TIP3   OH2 4700   0.946   3.614   1.360
 1579TIP3    H1 4701   0.938   3.707   1.382
 1579TIP3    H2 4702   0.883   3.600   1.290
 1580TIP3   OH2 4703   2.834   6.092   4.064
 1580TIP3    H1 4704   2.773   6.162   4.042
 1580TIP3    H2 4705   2.921   6.132   4.058
 1581TIP3   OH2 4706   7.185   3.528   3.951
 1581TIP3    H1 4707   7.198   3.439   3.985
 1581TIP3    H2 4708   7.163   3.580   4.028
 1582TIP3   OH2 4709   5.923   5.032   5.605
 1582TIP3    H1 4710   5.895   4.956   5.554
 1582TIP3    H2 4711   5.895   5.012   5.694
 1583TIP3   OH2 4712   0.845   1.960   5.095
 1583TIP3    H1 4713   0.870   2.053   5.095
 1583TIP3    H2 4714   0.750   1.961   5.107
 1584TIP3   OH2 4715   2.557   5.722   3.576
 1584TIP3    H1 4716   2.567   5.784   3.648
 1584TIP3    H2 4717   2.621   5.751   3.510
 1585TIP3   OH2 4718   2.325   4.104   0.431
 1585TIP3    H1 4719   2.362   4.171   0.488
 1585TIP3    H2 4720   2.370   4.024   0.456
 1586TIP3   OH2 4721   3.421   2.984   5.720
 1586TIP3    H1 4722   3.479   3.030   5.780
 1586TIP3    H2 4723   3.367   2.928   5.776
 1587TIP3   OH2 4724   1.324   2.171   3.239
 1587TIP3    H1 4725   1.232   2.170   3.213
 1587TIP3    H2 4726   1.340   2.084   3.276
 1588TIP3   OH2 4727   5.881   4.522   4.532
 1588TIP3    H1 4728   5.952   4.464   4.559
 1588TIP3    H2 4729   5.864   4.499   4.440
 1589TIP3   OH2 4730   6.605   6.197   0.361
 1589TIP3    H1 4731   6.557   6.243   0.293
 1589TIP3    H2 4732   6.677   6.154   0.315
 1590TIP3   OH2 4733   5.155   6.639   3.683
 1590TIP3    H1 4734   5.152   6.689   3.764
 1590TIP3    H2 4735   5.210   6.563   3.703
 1591TIP3   OH2 4736   3.290   1.783   4.238
 1591TIP3    H1 4737   3.311   1.695   4.269
 1591TIP3    H2 4738   3.286   1.776   4.143
 1592TIP3   OH2 4739   1.583   6.243   4.239
 1592TIP3    H1 4740   1.573   6.151   4.264
 1592TIP3    H2 4741   1.590   6.290   4.322
 1593TIP3   OH2 4742   4.124   2.642   4.065
 1593TIP3    H1 4743   4.183   2.715   4.087
 1593TIP3    H2 4744   4.175   2.564   4.084
 1594TIP3   OH2 4745   3.177   5.982   5.130
 1594TIP3    H1 4746   3.100   5.928   5.147
 1594TIP3    H2 4747   3.147   6.072   5.141
 1595TIP3   OH2 4748   2.102   3.091   3.312
 1595TIP3    H1 4749   2.127   3.134   3.394
 1595TIP3    H2 4750   2.120   3.157   3.245
 1596TIP3   OH2 4751   6.790   4.483   2.646
 1596TIP3    H1 4752   6.787   4.577   2.660
 1596TIP3    H2 4753   6.702   4.453   2.669
 1597TIP3   OH2 4754   3.912   2.122   4.322
 1597TIP3    H1 4755   3.922   2.190   4.255
 1597TIP3    H2 4756   3.993   2.072   4.317
 1598TIP3   OH2 4757   2.785   0.469   0.635
 1598TIP3    H1 4758   2.813   0.484   0.725
 1598TIP3    H2 4759   2.838   0.396   0.605
 1599TIP3   OH2 4760   0.869   4.393   1.405
 1599TIP3    H1 4761   0.876   4.337   1.328
 1599TIP3    H2 4762   0.836   4.476   1.370
 1600TIP3   OH2 4763   5.408   4.831   0.668
 1600TIP3    H1 4764   5.414   4.740   0.637
 1600TIP3    H2 4765   5.490   4.871   0.640
 1601TIP3   OH2 4766   5.002   2.304   2.199
 1601TIP3    H1 4767   5.069   2.251   2.156
 1601TIP3    H2 4768   5.046   2.387   2.218
 1602TIP3   OH2 4769   0.477   2.547   0.584
 1602TIP3    H1 4770   0.407   2.612   0.586
 1602TIP3    H2 4771   0.519   2.559   0.498
 1603TIP3   OH2 4772   5.377   6.296   1.100
 1603TIP3    H1 4773   5.425   6.376   1.080
 1603TIP3    H2 4774   5.444   6.227   1.098
 1604TIP3   OH2 4775   7.019   3.318   4.540
 1604TIP3    H1 4776   7.059   3.306   4.453
 1604TIP3    H2 4777   6.956   3.389   4.528
 1605TIP3   OH2 4778   5.349   4.025   4.311
 1605TIP3    H1 4779   5.322   4.081   4.238
 1605TIP3    H2 4780   5.403   3.956   4.270
 1606TIP3   OH2 4781   3.273   5.435   5.777
 1606TIP3    H1 4782   3.249   5.448   5.869
 1606TIP3    H2 4783   3.362   5.470   5.770
 1607TIP3   OH2 4784   5.410   1.634   3.534
 1607TIP3    H1 4785   5.350   1.586   3.591
 1607TIP3    H2 4786   5.392   1.726   3.553
 1608TIP3   OH2 4787   4.804   6.656   5.687
 1608TIP3    H1 4788   4.786   6.750   5.677
 1608TIP3    H2 4789   4.894   6.646   5.656
 1609TIP3   OH2 4790   4.590   5.111   1.766
 1609TIP3    H1 4791   4.640   5.060   1.703
 1609TIP3    H2 4792   4.655   5.161   1.814
 1610TIP3   OH2 4793   1.689   4.873   3.825
 1610TIP3    H1 4794   1.769   4.904   3.868
 1610TIP3    H2 4795   1.621   4.935   3.852
 1611TIP3   OH2 4796   5.978   1.401   4.564
 1611TIP3    H1 4797   5.907   1.355   4.608
 1611TIP3    H2 4798   6.003   1.343   4.492
 1612TIP3   OH2 4799   5.128   0.126   1.339
 1612TIP3    H1 4800   5.041   0.164   1.354
 1612TIP3    H2 4801   5.120   0.035   1.368
 1613TIP3   OH2 4802   1.087   3.699   0.360
 1613TIP3    H1 4803   1.145   3.646   0.414
 1613TIP3    H2 4804   1.003   3.654   0.363
 1614TIP3   OH2 4805   2.229   4.760   2.247
 1614TIP3    H1 4806   2.255   4.727   2.333
 1614TIP3    H2 4807   2.261   4.850   2.245
 1615TIP3   OH2 4808   2.783   1.316   0.936
 1615TIP3    H1 4809   2.802   1.223   0.948
 1615TIP3    H2 4810   2.820   1.358   1.013
 1616TIP3   OH2 4811   6.468   3.178   0.386
 1616TIP3    H1 4812   6.426   3.094   0.409
 1616TIP3    H2 4813   6.477   3.223   0.470
 1617TIP3   OH2 4814   0.630   1.708   4.023
 1617TIP3    H1 4815   0.624   1.799   4.053
 1617TIP3    H2 4816   0.706   1.706   3.965
 1618TIP3   OH2 4817   7.060   4.167   3.153
 1618TIP3    H1 4818   7.054   4.244   3.209
 1618TIP3    H2 4819   7.033   4.197   3.066
 1619TIP3   OH2 4820   5.601   0.323   3.486
 1619TIP3    H1 4821   5.590   0.229   3.494
 1619TIP3    H2 4822   5.549   0.348   3.410
 1620TIP3   OH2 4823   4.203   5.973   5.723
 1620TIP3    H1 4824   4.229   6.043   5.784
 1620TIP3    H2 4825   4.142   5.919   5.773
 1621TIP3   OH2 4826   0.216   3.712   2.254
 1621TIP3    H1 4827   0.284   3.746   2.312
 1621TIP3    H2 4828   0.235   3.619   2.245
 1622TIP3   OH2 4829   7.114   4.160   0.555
 1622TIP3    H1 4830   7.120   4.248   0.593
 1622TIP3    H2 4831   7.181   4.109   0.600
 1623TIP3   OH2 4832   6.311   4.422   0.785
 1623TIP3    H1 4833   6.335   4.349   0.842
 1623TIP3    H2 4834   6.251   4.384   0.721
 1624TIP3   OH2 4835   5.011   0.772   3.826
 1624TIP3    H1 4836   5.020   0.694   3.771
 1624TIP3    H2 4837   4.917   0.779   3.843
 1625TIP3   OH2 4838   0.854   4.063   3.338
 1625TIP3    H1 4839   0.788   4.042   3.272
 1625TIP3    H2 4840   0.938   4.053   3.293
 1626TIP3   OH2 4841   2.687   1.870   2.854
 1626TIP3    H1 4842   2.617   1.830   2.803
 1626TIP3    H2 4843   2.734   1.925   2.792
 1627TIP3   OH2 4844   3.799   1.372   3.269
 1627TIP3    H1 4845   3.834   1.459   3.249
 1627TIP3    H2 4846   3.867   1.312   3.239
 1628TIP3   OH2 4847   6.487   4.568   2.993
 1628TIP3    H1 4848   6.428   4.632   2.954
 1628TIP3    H2 4849   6.534   4.530   2.919
 1629TIP3   OH2 4850   1.167   6.015   4.400
 1629TIP3    H1 4851   1.086   6.026   4.449
 1629TIP3    H2 4852   1.143   5.962   4.324
 1630TIP3   OH2 4853   1.275   6.648   0.510
 1630TIP3    H1 4854   1.219   6.681   0.581
 1630TIP3    H2 4855   1.313   6.568   0.546
 1631TIP3   OH2 4856   6.205   6.408   0.991
 1631TIP3    H1 4857   6.231   6.493   1.025
 1631TIP3    H2 4858   6.157   6.367   1.062
 1632TIP3   OH2 4859   3.040   4.239   5.241
 1632TIP3    H1 4860   3.076   4.327   5.244
 1632TIP3    H2 4861   3.105   4.184   5.285
 1633TIP3   OH2 4862   2.362   5.200   4.254
 1633TIP3    H1 4863   2.360   5.268   4.321
 1633TIP3    H2 4864   2.300   5.134   4.284
 1634TIP3   OH2 4865   0.085   5.059   5.202
 1634TIP3    H1 4866   0.038   4.986   5.160
 1634TIP3    H2 4867   0.092   5.125   5.134
 1635TIP3   OH2 4868   1.857   5.620   0.637
 1635TIP3    H1 4869   1.851   5.662   0.722
 1635TIP3    H2 4870   1.796   5.546   0.642
 1636TIP3   OH2 4871   1.153   0.047   2.673
 1636TIP3    H1 4872   1.237   0.004   2.659
 1636TIP3    H2 4873   1.130   0.084   2.587
 1637TIP3   OH2 4874   1.695   2.886   2.738
 1637TIP3    H1 4875   1.779   2.872   2.781
 1637TIP3    H2 4876   1.716   2.928   2.655
 1638TIP3   OH2 4877   1.170   0.333   0.681
 1638TIP3    H1 4878   1.134   0.342   0.593
 1638TIP3    H2 4879   1.239   0.266   0.672
 1639TIP3   OH2 4880   3.380   4.133   3.340
 1639TIP3    H1 4881   3.428   4.050   3.341
 1639TIP3    H2 4882   3.345   4.142   3.428
 1640TIP3   OH2 4883   4.757   5.803   1.377
 1640TIP3    H1 4884   4.791   5.885   1.341
 1640TIP3    H2 4885   4.680   5.829   1.428
 1641TIP3   OH2 4886   5.333   2.395   5.132
 1641TIP3    H1 4887   5.256   2.341   5.111
 1641TIP3    H2 4888   5.327   2.409   5.227
 1642TIP3   OH2 4889   0.712   3.329   4.463
 1642TIP3    H1 4890   0.666   3.250   4.433
 1642TIP3    H2 4891   0.791   3.332   4.410
 1643TIP3   OH2 4892   3.588   3.388   4.193
 1643TIP3    H1 4893   3.615   3.423   4.278
 1643TIP3    H2 4894   3.538   3.309   4.214
 1644TIP3   OH2 4895   1.326   0.418   4.982
 1644TIP3    H1 4896   1.300   0.500   5.024
 1644TIP3    H2 4897   1.244   0.378   4.955
 1645TIP3   OH2 4898   4.875   0.042   5.620
 1645TIP3    H1 4899   4.871   0.008   5.709
 1645TIP3    H2 4900   4.783   0.054   5.594
 1646TIP3   OH2 4901   5.388   6.006   0.326
 1646TIP3    H1 4902   5.306   6.055   0.320
 1646TIP3    H2 4903   5.394   5.959   0.243
 1647TIP3   OH2 4904   1.790   6.649   0.841
 1647TIP3    H1 4905   1.833   6.678   0.760
 1647TIP3    H2 4906   1.834   6.699   0.910
 1648TIP3   OH2 4907   6.721   6.461   2.355
 1648TIP3    H1 4908   6.645   6.504   2.316
 1648TIP3    H2 4909   6.795   6.518   2.332
 1649TIP3   OH2 4910   7.052   6.055   2.680
 1649TIP3    H1 4911   6.994   5.987   2.715
 1649TIP3    H2 4912   7.010   6.084   2.600
 1650TIP3   OH2 4913   6.644   3.663   1.396
 1650TIP3    H1 4914   6.562   3.621   1.420
 1650TIP3    H2 4915   6.701   3.650   1.471
 1651TIP3   OH2 4916   4.217   1.798   2.520
 1651TIP3    H1 4917   4.302   1.776   2.558
 1651TIP3    H2 4918   4.160   1.726   2.547
 1652TIP3   OH2 4919   1.371   5.177   0.162
 1652TIP3    H1 4920   1.353   5.104   0.102
 1652TIP3    H2 4921   1.337   5.147   0.247
 1653TIP3   OH2 4922   5.663   3.863   2.168
 1653TIP3    H1 4923   5.652   3.770   2.148
 1653TIP3    H2 4924   5.580   3.903   2.142
 1654TIP3   OH2 4925   6.800   2.424   1.289
 1654TIP3    H1 4926   6.790   2.513   1.255
 1654TIP3    H2 4927   6.852   2.379   1.223
 1655TIP3   OH2 4928   0.823   6.225   5.153
 1655TIP3    H1 4929   0.821   6.129   5.155
 1655TIP3    H2 4930   0.916   6.246   5.151
 1656TIP3   OH2 4931   2.317   1.368   3.154
 1656TIP3    H1 4932   2.233   1.413   3.161
 1656TIP3    H2 4933   2.377   1.420   3.208
 1657TIP3   OH2 4934   1.222   0.165   3.934
 1657TIP3    H1 4935   1.292   0.229   3.923
 1657TIP3    H2 4936   1.192   0.177   4.024
 1658TIP3   OH2 4937   3.944   3.718   3.829
 1658TIP3    H1 4938   3.968   3.795   3.879
 1658TIP3    H2 4939   3.879   3.749   3.766
 1659TIP3   OH2 4940   0.368   5.394   4.833
 1659TIP3    H1 4941   0.363   5.329   4.903
 1659TIP3    H2 4942   0.427   5.356   4.768
 1660TIP3   OH2 4943   2.788   1.250   3.134
 1660TIP3    H1 4944   2.721   1.218   3.073
 1660TIP3    H2 4945   2.829   1.170   3.168
 1661TIP3   OH2 4946   1.215   4.308   2.243
 1661TIP3    H1 4947   1.125   4.339   2.236
 1661TIP3    H2 4948   1.224   4.282   2.334
 1662TIP3   OH2 4949   4.907   5.824   4.335
 1662TIP3    H1 4950   4.832   5.832   4.394
 1662TIP3    H2 4951   4.893   5.891   4.269
 1663TIP3   OH2 4952   6.880   5.684   4.532
 1663TIP3    H1 4953   6.969   5.663   4.504
 1663TIP3    H2 4954   6.853   5.755   4.474
 1664TIP3   OH2 4955   4.008   5.851   5.845
 1664TIP3    H1 4956   3.992   5.773   5.899
 1664TIP3    H2 4957   3.920   5.885   5.826
 1665TIP3   OH2 4958  -0.025   0.563   3.443
 1665TIP3    H1 4959  -0.002   0.644   3.488
 1665TIP3    H2 4960   0.014   0.573   3.356
 1666TIP3   OH2 4961   0.589   4.758   1.041
 1666TIP3    H1 4962   0.614   4.734   0.951
 1666TIP3    H2 4963   0.497   4.782   1.034
 1667TIP3   OH2 4964   2.192   0.937   5.647
 1667TIP3    H1 4965   2.284   0.930   5.671
 1667TIP3    H2 4966   2.189   0.916   5.554
 1668TIP3   OH2 4967   1.530   6.079   1.040
 1668TIP3    H1 4968   1.492   6.157   1.080
 1668TIP3    H2 4969   1.579   6.112   0.964
 1669TIP3   OH2 4970   1.120   0.216   1.953
 1669TIP3    H1 4971   1.190   0.166   1.993
 1669TIP3    H2 4972   1.106   0.174   1.868
 1670TIP3   OH2 4973   4.018   2.748   1.564
 1670TIP3    H1 4974   3.940   2.781   1.607
 1670TIP3    H2 4975   3.991   2.731   1.473
 1671TIP3   OH2 4976   0.944   2.895   4.346
 1671TIP3    H1 4977   0.941   2.975   4.398
 1671TIP3    H2 4978   1.011   2.841   4.390
 1672TIP3   OH2 4979   6.153   5.477   2.152
 1672TIP3    H1 4980   6.233   5.526   2.174
 1672TIP3    H2 4981   6.133   5.501   2.062
 1673TIP3   OH2 4982   2.797   2.147   1.928
 1673TIP3    H1 4983   2.780   2.240   1.945
 1673TIP3    H2 4984   2.710   2.108   1.924
 1674TIP3   OH2 4985   0.444   1.612   1.859
 1674TIP3    H1 4986   0.378   1.549   1.888
 1674TIP3    H2 4987   0.414   1.640   1.773
 1675TIP3   OH2 4988   2.600   0.703   4.298
 1675TIP3    H1 4989   2.657   0.635   4.334
 1675TIP3    H2 4990   2.538   0.721   4.369
 1676TIP3   OH2 4991   2.151   2.358   4.993
 1676TIP3    H1 4992   2.133   2.387   4.904
 1676TIP3    H2 4993   2.068   2.321   5.024
 1677TIP3   OH2 4994   5.693   2.592   1.799
 1677TIP3    H1 4995   5.686   2.678   1.841
 1677TIP3    H2 4996   5.623   2.592   1.733
 1678TIP3   OH2 4997   3.219   1.720   1.145
 1678TIP3    H1 4998   3.198   1.682   1.060
 1678TIP3    H2 4999   3.149   1.689   1.203
 1679TIP3   OH2 5000   3.906   6.500   5.774
 1679TIP3    H1 5001   3.898   6.408   5.801
 1679TIP3    H2 5002   3.944   6.544   5.851
 1680TIP3   OH2 5003   2.789   2.004   0.736
 1680TIP3    H1 5004   2.845   2.056   0.678
 1680TIP3    H2 5005   2.844   1.983   0.811
 1681TIP3   OH2 5006   5.091   0.435   4.689
 1681TIP3    H1 5007   5.164   0.390   4.645
 1681TIP3    H2 5008   5.017   0.425   4.629
 1682TIP3   OH2 5009   5.043   5.174   2.392
 1682TIP3    H1 5010   5.090   5.187   2.310
 1682TIP3    H2 5011   5.027   5.263   2.425
 1683TIP3   OH2 5012   2.251   2.055   5.225
 1683TIP3    H1 5013   2.198   1.982   5.192
 1683TIP3    H2 5014   2.341   2.033   5.200
 1684TIP3   OH2 5015   5.650   2.482   0.442
 1684TIP3    H1 5016   5.649   2.389   0.423
 1684TIP3    H2 5017   5.606   2.523   0.368
 1685TIP3   OH2 5018   1.791   1.053   5.644
 1685TIP3    H1 5019   1.718   1.010   5.688
 1685TIP3    H2 5020   1.861   1.057   5.710
 1686TIP3   OH2 5021   7.046   0.835   3.582
 1686TIP3    H1 5022   7.116   0.769   3.579
 1686TIP3    H2 5023   7.092   0.919   3.573
 1687TIP3   OH2 5024   6.862   3.635   3.664
 1687TIP3    H1 5025   6.889   3.575   3.595
 1687TIP3    H2 5026   6.831   3.713   3.617
 1688TIP3   OH2 5027   2.990   6.372   3.297
 1688TIP3    H1 5028   2.981   6.439   3.365
 1688TIP3    H2 5029   3.017   6.293   3.344
 1689TIP3   OH2 5030   1.442   1.592   1.344
 1689TIP3    H1 5031   1.516   1.601   1.284
 1689TIP3    H2 5032   1.411   1.682   1.357
 1690TIP3   OH2 5033   1.493   4.517   1.303
 1690TIP3    H1 5034   1.503   4.507   1.397
 1690TIP3    H2 5035   1.537   4.599   1.282
 1691TIP3   OH2 5036   0.118   3.198   2.238
 1691TIP3    H1 5037   0.187   3.240   2.290
 1691TIP3    H2 5038   0.040   3.251   2.254
 1692TIP3   OH2 5039   5.819   3.093   3.856
 1692TIP3    H1 5040   5.905   3.133   3.843
 1692TIP3    H2 5041   5.824   3.010   3.808
 1693TIP3   OH2 5042   3.285   1.286   1.967
 1693TIP3    H1 5043   3.313   1.355   1.906
 1693TIP3    H2 5044   3.201   1.256   1.933
 1694TIP3   OH2 5045   2.081   6.171   2.971
 1694TIP3    H1 5046   2.095   6.254   3.017
 1694TIP3    H2 5047   2.068   6.107   3.040
 1695TIP3   OH2 5048   0.337   2.781   2.546
 1695TIP3    H1 5049   0.404   2.712   2.539
 1695TIP3    H2 5050   0.333   2.801   2.640
 1696TIP3   OH2 5051   2.554   3.852   5.602
 1696TIP3    H1 5052   2.636   3.869   5.555
 1696TIP3    H2 5053   2.545   3.926   5.662
 1697TIP3   OH2 5054   0.967   0.141   1.243
 1697TIP3    H1 5055   0.912   0.217   1.259
 1697TIP3    H2 5056   1.020   0.165   1.167
 1698TIP3   OH2 5057   5.495   0.431   4.159
 1698TIP3    H1 5058   5.448   0.488   4.219
 1698TIP3    H2 5059   5.538   0.490   4.097
 1699TIP3   OH2 5060   6.962   6.573   3.873
 1699TIP3    H1 5061   6.903   6.499   3.865
 1699TIP3    H2 5062   6.917   6.634   3.932
 1700TIP3   OH2 5063   3.828   1.712   1.044
 1700TIP3    H1 5064   3.741   1.683   1.016
 1700TIP3    H2 5065   3.859   1.767   0.972
 1701TIP3   OH2 5066   6.020   5.778  -0.036
 1701TIP3    H1 5067   6.115   5.775  -0.046
 1701TIP3    H2 5068   5.998   5.871  -0.046
 1702TIP3   OH2 5069   4.817   0.928   2.480
 1702TIP3    H1 5070   4.781   0.840   2.488
 1702TIP3    H2 5071   4.740   0.985   2.477
 1703TIP3   OH2 5072   0.216   0.551   0.938
 1703TIP3    H1 5073   0.241   0.592   0.855
 1703TIP3    H2 5074   0.130   0.514   0.921
 1704TIP3   OH2 5075   5.510   2.293   3.819
 1704TIP3    H1 5076   5.605   2.286   3.835
 1704TIP3    H2 5077   5.489   2.215   3.768
 1705TIP3   OH2 5078   2.117   0.445   1.432
 1705TIP3    H1 5079   2.041   0.440   1.491
 1705TIP3    H2 5080   2.168   0.518   1.465
 1706TIP3   OH2 5081   0.102   0.276   0.686
 1706TIP3    H1 5082   0.030   0.241   0.633
 1706TIP3    H2 5083   0.060   0.331   0.752
 1707TIP3   OH2 5084   0.856   1.275   5.240
 1707TIP3    H1 5085   0.796   1.338   5.278
 1707TIP3    H2 5086   0.940   1.320   5.237
 1708TIP3   OH2 5087   6.106   3.891   1.689
 1708TIP3    H1 5088   6.015   3.862   1.693
 1708TIP3    H2 5089   6.156   3.812   1.669
 1709TIP3   OH2 5090   3.395   5.084   3.534
 1709TIP3    H1 5091   3.375   5.177   3.531
 1709TIP3    H2 5092   3.376   5.058   3.625
 1710TIP3   OH2 5093   4.899   0.787   0.848
 1710TIP3    H1 5094   4.951   0.849   0.900
 1710TIP3    H2 5095   4.960   0.755   0.781
 1711TIP3   OH2 5096   0.136   4.194   2.750
 1711TIP3    H1 5097   0.090   4.129   2.804
 1711TIP3    H2 5098   0.205   4.228   2.807
 1712TIP3   OH2 5099   2.778   5.509   0.227
 1712TIP3    H1 5100   2.785   5.603   0.213
 1712TIP3    H2 5101   2.854   5.487   0.280
 1713TIP3   OH2 5102   1.826   1.584   5.770
 1713TIP3    H1 5103   1.773   1.661   5.750
 1713TIP3    H2 5104   1.854   1.597   5.860
 1714TIP3   OH2 5105   2.887   3.885   2.099
 1714TIP3    H1 5106   2.948   3.835   2.154
 1714TIP3    H2 5107   2.825   3.820   2.067
 1715TIP3   OH2 5108   6.779   1.832   3.083
 1715TIP3    H1 5109   6.770   1.923   3.054
 1715TIP3    H2 5110   6.752   1.833   3.175
 1716TIP3   OH2 5111   0.442   0.797   2.254
 1716TIP3    H1 5112   0.459   0.753   2.337
 1716TIP3    H2 5113   0.478   0.739   2.188
 1717TIP3   OH2 5114   2.577   4.206   0.882
 1717TIP3    H1 5115   2.657   4.219   0.932
 1717TIP3    H2 5116   2.562   4.112   0.883
 1718TIP3   OH2 5117   3.449   0.091   5.727
 1718TIP3    H1 5118   3.493   0.171   5.700
 1718TIP3    H2 5119   3.376   0.081   5.666
 1719TIP3   OH2 5120   5.294   2.191   0.303
 1719TIP3    H1 5121   5.269   2.150   0.220
 1719TIP3    H2 5122   5.346   2.124   0.348
 1720TIP3   OH2 5123   6.279   6.020   4.163
 1720TIP3    H1 5124   6.233   5.944   4.129
 1720TIP3    H2 5125   6.371   6.005   4.140
 1721TIP3   OH2 5126   4.377   2.491   4.693
 1721TIP3    H1 5127   4.426   2.560   4.648
 1721TIP3    H2 5128   4.328   2.538   4.761
 1722TIP3   OH2 5129   0.367   6.688   2.979
 1722TIP3    H1 5130   0.327   6.759   3.029
 1722TIP3    H2 5131   0.455   6.719   2.958
 1723TIP3   OH2 5132   4.033   6.496   5.520
 1723TIP3    H1 5133   3.980   6.496   5.600
 1723TIP3    H2 5134   3.974   6.462   5.453
 1724TIP3   OH2 5135   5.609   2.586   5.830
 1724TIP3    H1 5136   5.685   2.573   5.888
 1724TIP3    H2 5137   5.635   2.656   5.772
 1725TIP3   OH2 5138   5.499   4.088   1.036
 1725TIP3    H1 5139   5.448   4.130   1.105
 1725TIP3    H2 5140   5.564   4.154   1.011
 1726TIP3   OH2 5141   2.479   0.343   2.818
 1726TIP3    H1 5142   2.574   0.335   2.808
 1726TIP3    H2 5143   2.464   0.331   2.912
 1727TIP3   OH2 5144   0.322   6.303   0.543
 1727TIP3    H1 5145   0.394   6.344   0.592
 1727TIP3    H2 5146   0.315   6.215   0.580
 1728TIP3   OH2 5147   4.285   4.756   1.522
 1728TIP3    H1 5148   4.259   4.708   1.443
 1728TIP3    H2 5149   4.230   4.720   1.591
 1729TIP3   OH2 5150   6.953   1.494   3.870
 1729TIP3    H1 5151   6.893   1.436   3.918
 1729TIP3    H2 5152   6.941   1.579   3.911
 1730TIP3   OH2 5153   5.892   5.886   2.097
 1730TIP3    H1 5154   5.805   5.919   2.074
 1730TIP3    H2 5155   5.885   5.791   2.086
 1731TIP3   OH2 5156   2.526   1.307   1.668
 1731TIP3    H1 5157   2.620   1.306   1.683
 1731TIP3    H2 5158   2.491   1.240   1.726
 1732TIP3   OH2 5159   2.800   5.931   5.078
 1732TIP3    H1 5160   2.714   5.911   5.116
 1732TIP3    H2 5161   2.828   5.849   5.038
 1733TIP3   OH2 5162   6.876   0.576   4.049
 1733TIP3    H1 5163   6.781   0.583   4.059
 1733TIP3    H2 5164   6.894   0.482   4.052
 1734TIP3   OH2 5165   3.579   2.987   4.815
 1734TIP3    H1 5166   3.577   2.891   4.815
 1734TIP3    H2 5167   3.501   3.012   4.865
 1735TIP3   OH2 5168   4.758   0.892   0.368
 1735TIP3    H1 5169   4.809   0.845   0.302
 1735TIP3    H2 5170   4.771   0.985   0.347
 1736TIP3   OH2 5171   0.198   1.291   0.979
 1736TIP3    H1 5172   0.257   1.260   0.910
 1736TIP3    H2 5173   0.122   1.325   0.933
 1737TIP3   OH2 5174   1.930   0.979   5.417
 1737TIP3    H1 5175   1.861   0.996   5.352
 1737TIP3    H2 5176   1.889   0.999   5.501
 1738TIP3   OH2 5177   1.891   4.595   4.275
 1738TIP3    H1 5178   1.950   4.529   4.311
 1738TIP3    H2 5179   1.936   4.678   4.287
 1739TIP3   OH2 5180   2.042   0.803   4.949
 1739TIP3    H1 5181   2.130   0.841   4.942
 1739TIP3    H2 5182   2.057   0.717   4.989
 1740TIP3   OH2 5183   6.184   2.048   0.258
 1740TIP3    H1 5184   6.191   1.957   0.286
 1740TIP3    H2 5185   6.089   2.064   0.253
 1741TIP3   OH2 5186   4.566   6.189   3.728
 1741TIP3    H1 5187   4.584   6.282   3.719
 1741TIP3    H2 5188   4.515   6.167   3.650
 1742TIP3   OH2 5189   1.312   1.217   3.664
 1742TIP3    H1 5190   1.293   1.275   3.737
 1742TIP3    H2 5191   1.399   1.243   3.635
 1743TIP3   OH2 5192   1.819   1.940   1.049
 1743TIP3    H1 5193   1.903   1.943   1.096
 1743TIP3    H2 5194   1.758   1.900   1.111
 1744TIP3   OH2 5195   5.754   1.888   3.834
 1744TIP3    H1 5196   5.714   1.801   3.838
 1744TIP3    H2 5197   5.692   1.945   3.878
 1745TIP3   OH2 5198   5.332   2.680   4.072
 1745TIP3    H1 5199   5.387   2.612   4.110
 1745TIP3    H2 5200   5.393   2.740   4.029
 1746TIP3   OH2 5201   2.481   1.772   0.563
 1746TIP3    H1 5202   2.435   1.706   0.614
 1746TIP3    H2 5203   2.415   1.805   0.502
 1747TIP3   OH2 5204   0.946   0.722   0.967
 1747TIP3    H1 5205   0.909   0.810   0.959
 1747TIP3    H2 5206   0.998   0.725   1.047
 1748TIP3   OH2 5207   0.374   4.828   0.907
 1748TIP3    H1 5208   0.345   4.919   0.903
 1748TIP3    H2 5209   0.375   4.800   0.815
 1749TIP3   OH2 5210   3.376   2.267   0.459
 1749TIP3    H1 5211   3.446   2.248   0.521
 1749TIP3    H2 5212   3.416   2.327   0.396
 1750TIP3   OH2 5213   2.462   6.120   4.577
 1750TIP3    H1 5214   2.544   6.115   4.528
 1750TIP3    H2 5215   2.461   6.040   4.630
 1751TIP3   OH2 5216   3.563   4.218   0.685
 1751TIP3    H1 5217   3.530   4.154   0.748
 1751TIP3    H2 5218   3.491   4.280   0.674
 1752TIP3   OH2 5219   1.756   5.245   3.513
 1752TIP3    H1 5220   1.735   5.229   3.421
 1752TIP3    H2 5221   1.825   5.182   3.533
 1753TIP3   OH2 5222   1.126   0.363   1.560
 1753TIP3    H1 5223   1.165   0.373   1.647
 1753TIP3    H2 5224   1.081   0.279   1.563
 1754TIP3   OH2 5225   1.884   0.648   0.274
 1754TIP3    H1 5226   1.940   0.724   0.255
 1754TIP3    H2 5227   1.799   0.670   0.234
 1755TIP3   OH2 5228  -0.023   5.785   2.762
 1755TIP3    H1 5229  -0.018   5.880   2.763
 1755TIP3    H2 5230  -0.098   5.765   2.706
 1756TIP3   OH2 5231   4.815   3.370   1.611
 1756TIP3    H1 5232   4.868   3.384   1.532
 1756TIP3    H2 5233   4.840   3.283   1.641
 1757TIP3   OH2 5234   7.036   6.207   3.922
 1757TIP3    H1 5235   6.984   6.171   3.850
 1757TIP3    H2 5236   6.979   6.270   3.965
 1758TIP3   OH2 5237   1.661   6.683   1.104
 1758TIP3    H1 5238   1.679   6.725   1.020
 1758TIP3    H2 5239   1.746   6.680   1.148
 1759TIP3   OH2 5240   1.814   2.444   2.430
 1759TIP3    H1 5241   1.754   2.427   2.358
 1759TIP3    H2 5242   1.773   2.403   2.507
 1760TIP3   OH2 5243   1.195   2.947   4.205
 1760TIP3    H1 5244   1.103   2.973   4.214
 1760TIP3    H2 5245   1.227   2.941   4.295
 1761TIP3   OH2 5246   1.829   6.455   1.420
 1761TIP3    H1 5247   1.765   6.525   1.434
 1761TIP3    H2 5248   1.834   6.446   1.325
 1762TIP3   OH2 5249   3.008   5.099   0.296
 1762TIP3    H1 5250   2.951   5.065   0.226
 1762TIP3    H2 5251   2.950   5.106   0.372
 1763TIP3   OH2 5252   6.457   5.602   3.652
 1763TIP3    H1 5253   6.503   5.682   3.627
 1763TIP3    H2 5254   6.364   5.621   3.637
 1764TIP3   OH2 5255   6.979   3.651   1.675
 1764TIP3    H1 5256   6.991   3.712   1.747
 1764TIP3    H2 5257   6.940   3.573   1.715
 1765TIP3   OH2 5258   5.193   4.939   4.727
 1765TIP3    H1 5259   5.205   5.032   4.748
 1765TIP3    H2 5260   5.102   4.934   4.697
 1766TIP3   OH2 5261   0.286   5.619   3.780
 1766TIP3    H1 5262   0.239   5.642   3.860
 1766TIP3    H2 5263   0.371   5.586   3.810
 1767TIP3   OH2 5264   2.244   1.615   3.486
 1767TIP3    H1 5265   2.238   1.520   3.477
 1767TIP3    H2 5266   2.321   1.629   3.541
 1768TIP3   OH2 5267   2.578   2.145   5.620
 1768TIP3    H1 5268   2.598   2.203   5.547
 1768TIP3    H2 5269   2.489   2.115   5.604
 1769TIP3   OH2 5270   5.878   3.836   3.218
 1769TIP3    H1 5271   5.916   3.922   3.232
 1769TIP3    H2 5272   5.940   3.775   3.258
 1770TIP3   OH2 5273   6.051   3.994   1.024
 1770TIP3    H1 5274   6.087   3.926   0.967
 1770TIP3    H2 5275   5.978   4.030   0.975
 1771TIP3   OH2 5276   4.171   0.864   4.243
 1771TIP3    H1 5277   4.136   0.872   4.332
 1771TIP3    H2 5278   4.096   0.884   4.186
 1772TIP3   OH2 5279   3.322   6.044   0.174
 1772TIP3    H1 5280   3.255   6.080   0.116
 1772TIP3    H2 5281   3.296   5.953   0.187
 1773TIP3   OH2 5282   5.257   2.294   3.027
 1773TIP3    H1 5283   5.213   2.322   2.947
 1773TIP3    H2 5284   5.321   2.363   3.045
 1774TIP3   OH2 5285   6.424   4.008   2.120
 1774TIP3    H1 5286   6.390   3.927   2.081
 1774TIP3    H2 5287   6.390   4.077   2.063
 1775TIP3   OH2 5288   1.683   3.025   3.672
 1775TIP3    H1 5289   1.776   3.011   3.688
 1775TIP3    H2 5290   1.665   3.110   3.711
 1776TIP3   OH2 5291   0.681   1.124   0.030
 1776TIP3    H1 5292   0.638   1.136   0.115
 1776TIP3    H2 5293   0.685   1.211  -0.008
 1777TIP3   OH2 5294   0.031   1.887   3.539
 1777TIP3    H1 5295   0.090   1.888   3.614
 1777TIP3    H2 5296   0.087   1.911   3.464
 1778TIP3   OH2 5297   3.301   2.781   5.849
 1778TIP3    H1 5298   3.207   2.764   5.848
 1778TIP3    H2 5299   3.326   2.775   5.942
 1779TIP3   OH2 5300   0.410   2.394   4.397
 1779TIP3    H1 5301   0.410   2.477   4.444
 1779TIP3    H2 5302   0.368   2.414   4.313
 1780TIP3   OH2 5303   6.056   6.123   5.493
 1780TIP3    H1 5304   6.039   6.108   5.400
 1780TIP3    H2 5305   6.148   6.149   5.497
 1781TIP3   OH2 5306   3.185   1.114   2.598
 1781TIP3    H1 5307   3.246   1.093   2.668
 1781TIP3    H2 5308   3.133   1.187   2.632
 1782TIP3   OH2 5309   1.668   0.445   1.342
 1782TIP3    H1 5310   1.654   0.496   1.422
 1782TIP3    H2 5311   1.595   0.470   1.285
 1783TIP3   OH2 5312   0.104   4.414   0.103
 1783TIP3    H1 5313   0.014   4.440   0.125
 1783TIP3    H2 5314   0.135   4.367   0.181
 1784TIP3   OH2 5315   0.805   6.289   1.810
 1784TIP3    H1 5316   0.871   6.340   1.858
 1784TIP3    H2 5317   0.727   6.345   1.810
 1785TIP3   OH2 5318   4.342   5.116   1.884
 1785TIP3    H1 5319   4.430   5.120   1.845
 1785TIP3    H2 5320   4.294   5.186   1.841
 1786TIP3   OH2 5321   1.793   4.120   3.347
 1786TIP3    H1 5322   1.879   4.160   3.336
 1786TIP3    H2 5323   1.812   4.028   3.366
 1787TIP3   OH2 5324   5.615   3.149   0.855
 1787TIP3    H1 5325   5.577   3.064   0.831
 1787TIP3    H2 5326   5.616   3.198   0.773
 1788TIP3   OH2 5327   5.762  -0.092   2.571
 1788TIP3    H1 5328   5.853  -0.111   2.550
 1788TIP3    H2 5329   5.766  -0.011   2.623
 1789TIP3   OH2 5330   6.163   4.130   1.968
 1789TIP3    H1 5331   6.254   4.158   1.970
 1789TIP3    H2 5332   6.125   4.164   2.048
 1790TIP3   OH2 5333   5.743   5.797   3.246
 1790TIP3    H1 5334   5.691   5.767   3.172
 1790TIP3    H2 5335   5.679   5.814   3.315
 1791TIP3   OH2 5336   4.645   6.224   2.061
 1791TIP3    H1 5337   4.664   6.302   2.114
 1791TIP3    H2 5338   4.555   6.201   2.086
 1792TIP3   OH2 5339   4.338   6.380   3.084
 1792TIP3    H1 5340   4.325   6.310   3.020
 1792TIP3    H2 5341   4.420   6.421   3.058
 1793TIP3   OH2 5342   1.663   0.316   0.568
 1793TIP3    H1 5343   1.700   0.372   0.501
 1793TIP3    H2 5344   1.679   0.363   0.650
 1794TIP3   OH2 5345   4.543   3.858   1.564
 1794TIP3    H1 5346   4.482   3.930   1.553
 1794TIP3    H2 5347   4.622   3.886   1.517
 1795TIP3   OH2 5348   4.815   1.622   4.442
 1795TIP3    H1 5349   4.803   1.637   4.535
 1795TIP3    H2 5350   4.814   1.527   4.432
 1796TIP3   OH2 5351   5.403   1.722   5.930
 1796TIP3    H1 5352   5.359   1.642   5.901
 1796TIP3    H2 5353   5.463   1.742   5.858
 1797TIP3   OH2 5354   0.419   4.519   3.697
 1797TIP3    H1 5355   0.476   4.442   3.691
 1797TIP3    H2 5356   0.340   4.488   3.740
 1798TIP3   OH2 5357   2.477   3.844   5.086
 1798TIP3    H1 5358   2.435   3.925   5.057
 1798TIP3    H2 5359   2.423   3.774   5.048
 1799TIP3   OH2 5360   3.448   4.118   5.458
 1799TIP3    H1 5361   3.484   4.078   5.378
 1799TIP3    H2 5362   3.523   4.126   5.517
 1800TIP3   OH2 5363   3.978   0.467   2.753
 1800TIP3    H1 5364   4.054   0.443   2.807
 1800TIP3    H2 5365   3.937   0.539   2.800
 1801TIP3   OH2 5366   6.561   0.781   3.371
 1801TIP3    H1 5367   6.594   0.869   3.386
 1801TIP3    H2 5368   6.631   0.723   3.401
 1802TIP3   OH2 5369   4.797   1.880   0.158
 1802TIP3    H1 5370   4.708   1.862   0.127
 1802TIP3    H2 5371   4.829   1.796   0.189
 1803TIP3   OH2 5372   2.532   6.075   4.053
 1803TIP3    H1 5373   2.578   5.995   4.028
 1803TIP3    H2 5374   2.441   6.059   4.030
 1804TIP3   OH2 5375   5.629   2.443   5.298
 1804TIP3    H1 5376   5.600   2.379   5.234
 1804TIP3    H2 5377   5.560   2.510   5.298
 1805TIP3   OH2 5378   6.084   4.692   2.944
 1805TIP3    H1 5379   6.079   4.682   3.040
 1805TIP3    H2 5380   5.996   4.717   2.918
 1806TIP3   OH2 5381   2.287   1.125   2.970
 1806TIP3    H1 5382   2.285   1.141   2.876
 1806TIP3    H2 5383   2.266   1.210   3.009
 1807TIP3   OH2 5384   4.416   0.631   5.325
 1807TIP3    H1 5385   4.439   0.697   5.390
 1807TIP3    H2 5386   4.320   0.637   5.318
 1808TIP3   OH2 5387   3.216   5.817   5.532
 1808TIP3    H1 5388   3.228   5.886   5.597
 1808TIP3    H2 5389   3.297   5.766   5.536
 1809TIP3   OH2 5390   5.521   3.248   0.160
 1809TIP3    H1 5391   5.484   3.239   0.072
 1809TIP3    H2 5392   5.486   3.331   0.192
 1810TIP3   OH2 5393   3.045   5.745   2.102
 1810TIP3    H1 5394   2.962   5.791   2.088
 1810TIP3    H2 5395   3.084   5.737   2.015
 1811TIP3   OH2 5396   0.434   1.911   1.622
 1811TIP3    H1 5397   0.372   1.901   1.694
 1811TIP3    H2 5398   0.381   1.899   1.543
 1812TIP3   OH2 5399   7.007   5.488   3.903
 1812TIP3    H1 5400   7.026   5.430   3.977
 1812TIP3    H2 5401   7.050   5.571   3.927
 1813TIP3   OH2 5402  -0.035   3.454   3.678
 1813TIP3    H1 5403  -0.025   3.511   3.754
 1813TIP3    H2 5404   0.022   3.493   3.611
 1814TIP3   OH2 5405   5.389   5.288   2.481
 1814TIP3    H1 5406   5.466   5.278   2.536
 1814TIP3    H2 5407   5.318   5.305   2.542
 1815TIP3   OH2 5408   1.476   3.624   4.457
 1815TIP3    H1 5409   1.464   3.537   4.420
 1815TIP3    H2 5410   1.551   3.660   4.410
 1816TIP3   OH2 5411   1.761   1.466   3.887
 1816TIP3    H1 5412   1.852   1.449   3.865
 1816TIP3    H2 5413   1.744   1.555   3.855
 1817TIP3   OH2 5414   1.128   0.981   1.328
 1817TIP3    H1 5415   1.223   0.976   1.329
 1817TIP3    H2 5416   1.107   1.061   1.376
 1818TIP3   OH2 5417   5.359   4.560   0.620
 1818TIP3    H1 5418   5.410   4.498   0.568
 1818TIP3    H2 5419   5.288   4.508   0.656
 1819TIP3   OH2 5420   0.362   6.683   3.916
 1819TIP3    H1 5421   0.304   6.657   3.844
 1819TIP3    H2 5422   0.406   6.761   3.883
 1820TIP3   OH2 5423   3.977   1.054   1.441
 1820TIP3    H1 5424   3.961   1.067   1.347
 1820TIP3    H2 5425   3.915   0.987   1.467
 1821TIP3   OH2 5426   1.558   5.869   1.244
 1821TIP3    H1 5427   1.610   5.892   1.322
 1821TIP3    H2 5428   1.532   5.954   1.207
 1822TIP3   OH2 5429   2.918   1.110   3.882
 1822TIP3    H1 5430   2.986   1.059   3.926
 1822TIP3    H2 5431   2.847   1.115   3.945
 1823TIP3   OH2 5432   4.037   4.837   2.000
 1823TIP3    H1 5433   4.022   4.916   1.948
 1823TIP3    H2 5434   3.954   4.789   1.994
 1824TIP3   OH2 5435   3.096   3.435   2.913
 1824TIP3    H1 5436   3.025   3.492   2.942
 1824TIP3    H2 5437   3.169   3.457   2.970
 1825TIP3   OH2 5438   3.283   6.292   3.910
 1825TIP3    H1 5439   3.360   6.323   3.863
 1825TIP3    H2 5440   3.313   6.215   3.958
 1826TIP3   OH2 5441   5.336   6.474   4.526
 1826TIP3    H1 5442   5.251   6.449   4.490
 1826TIP3    H2 5443   5.354   6.559   4.487
 1827TIP3   OH2 5444   4.661   3.603   4.320
 1827TIP3    H1 5445   4.693   3.513   4.315
 1827TIP3    H2 5446   4.741   3.656   4.326
 1828TIP3   OH2 5447   7.108   4.848   1.256
 1828TIP3    H1 5448   7.137   4.862   1.166
 1828TIP3    H2 5449   7.080   4.756   1.258
 1829TIP3   OH2 5450   6.457   2.853   5.450
 1829TIP3    H1 5451   6.449   2.758   5.460
 1829TIP3    H2 5452   6.528   2.877   5.509
 1830TIP3   OH2 5453   2.379   6.188   5.176
 1830TIP3    H1 5454   2.347   6.263   5.126
 1830TIP3    H2 5455   2.418   6.226   5.254
 1831TIP3   OH2 5456   5.150   5.696   0.595
 1831TIP3    H1 5457   5.143   5.601   0.591
 1831TIP3    H2 5458   5.076   5.727   0.543
 1832TIP3   OH2 5459   3.341   6.033   1.938
 1832TIP3    H1 5460   3.246   6.047   1.938
 1832TIP3    H2 5461   3.377   6.113   1.975
 1833TIP3   OH2 5462   2.330   0.532   4.790
 1833TIP3    H1 5463   2.351   0.442   4.816
 1833TIP3    H2 5464   2.247   0.523   4.743
 1834TIP3   OH2 5465   5.235   4.816   2.481
 1834TIP3    H1 5466   5.150   4.831   2.522
 1834TIP3    H2 5467   5.227   4.859   2.395
 1835TIP3   OH2 5468   1.318   2.489   3.681
 1835TIP3    H1 5469   1.369   2.410   3.659
 1835TIP3    H2 5470   1.239   2.455   3.723
 1836TIP3   OH2 5471   3.869   0.572   1.286
 1836TIP3    H1 5472   3.925   0.650   1.278
 1836TIP3    H2 5473   3.793   0.603   1.334
 1837TIP3   OH2 5474   3.015   1.202   4.237
 1837TIP3    H1 5475   3.074   1.157   4.176
 1837TIP3    H2 5476   2.928   1.193   4.197
 1838TIP3   OH2 5477   5.645   0.103   5.611
 1838TIP3    H1 5478   5.689   0.055   5.682
 1838TIP3    H2 5479   5.586   0.163   5.656
 1839TIP3   OH2 5480   2.865   5.713   3.184
 1839TIP3    H1 5481   2.797   5.725   3.117
 1839TIP3    H2 5482   2.930   5.780   3.165
 1840TIP3   OH2 5483   2.524   1.419   0.830
 1840TIP3    H1 5484   2.607   1.408   0.875
 1840TIP3    H2 5485   2.537   1.379   0.744
 1841TIP3   OH2 5486   6.473   3.097   1.314
 1841TIP3    H1 5487   6.563   3.120   1.290
 1841TIP3    H2 5488   6.468   3.114   1.408
 1842TIP3   OH2 5489   3.118   5.101   4.043
 1842TIP3    H1 5490   3.036   5.083   3.998
 1842TIP3    H2 5491   3.096   5.164   4.111
 1843TIP3   OH2 5492   7.103   0.092   2.113
 1843TIP3    H1 5493   7.062   0.176   2.136
 1843TIP3    H2 5494   7.104   0.092   2.017
 1844TIP3   OH2 5495   4.733   1.864   4.064
 1844TIP3    H1 5496   4.667   1.839   4.129
 1844TIP3    H2 5497   4.701   1.947   4.028
 1845TIP3   OH2 5498   6.179   3.877   3.423
 1845TIP3    H1 5499   6.162   3.955   3.372
 1845TIP3    H2 5500   6.101   3.867   3.478
 1846TIP3   OH2 5501   0.789   2.494   4.507
 1846TIP3    H1 5502   0.819   2.543   4.430
 1846TIP3    H2 5503   0.775   2.560   4.574
 1847TIP3   OH2 5504   1.887   1.050   1.034
 1847TIP3    H1 5505   1.808   1.039   1.087
 1847TIP3    H2 5506   1.894   0.970   0.984
 1848TIP3   OH2 5507   1.629   0.858   1.574
 1848TIP3    H1 5508   1.668   0.771   1.579
 1848TIP3    H2 5509   1.696   0.912   1.531
 1849TIP3   OH2 5510   3.930   5.006   2.898
 1849TIP3    H1 5511   3.928   4.925   2.846
 1849TIP3    H2 5512   3.956   5.074   2.836
 1850TIP3   OH2 5513   2.631   4.799   1.977
 1850TIP3    H1 5514   2.632   4.705   1.960
 1850TIP3    H2 5515   2.665   4.808   2.065
 1851TIP3   OH2 5516   0.579   5.805   2.918
 1851TIP3    H1 5517   0.507   5.742   2.911
 1851TIP3    H2 5518   0.544   5.887   2.884
 1852TIP3   OH2 5519   4.680   3.599   5.561
 1852TIP3    H1 5520   4.775   3.604   5.549
 1852TIP3    H2 5521   4.658   3.507   5.546
 1853TIP3   OH2 5522   1.952   1.532   1.634
 1853TIP3    H1 5523   2.015   1.461   1.650
 1853TIP3    H2 5524   1.872   1.487   1.608
 1854TIP3   OH2 5525   0.064   0.773   2.544
 1854TIP3    H1 5526   0.073   0.829   2.622
 1854TIP3    H2 5527   0.136   0.800   2.487
 1855TIP3   OH2 5528   3.833   1.246   3.745
 1855TIP3    H1 5529   3.781   1.212   3.818
 1855TIP3    H2 5530   3.768   1.273   3.680
 1856TIP3   OH2 5531   4.226   6.476   1.438
 1856TIP3    H1 5532   4.136   6.449   1.457
 1856TIP3    H2 5533   4.234   6.563   1.477
 1857TIP3   OH2 5534   0.206   2.039   5.605
 1857TIP3    H1 5535   0.217   2.080   5.690
 1857TIP3    H2 5536   0.131   2.084   5.566
 1858TIP3   OH2 5537   2.254   6.068   5.500
 1858TIP3    H1 5538   2.228   6.016   5.423
 1858TIP3    H2 5539   2.261   6.004   5.571
 1859TIP3   OH2 5540   4.925   6.162   4.550
 1859TIP3    H1 5541   4.892   6.195   4.633
 1859TIP3    H2 5542   4.964   6.238   4.508
 1860TIP3   OH2 5543   3.948   1.715   3.999
 1860TIP3    H1 5544   3.894   1.715   4.079
 1860TIP3    H2 5545   3.905   1.651   3.942
 1861TIP3   OH2 5546   4.081   2.112   2.211
 1861TIP3    H1 5547   4.037   2.034   2.179
 1861TIP3    H2 5548   4.021   2.149   2.275
 1862TIP3   OH2 5549   7.050   6.058   5.820
 1862TIP3    H1 5550   7.098   5.997   5.876
 1862TIP3    H2 5551   7.116   6.093   5.761
 1863TIP3   OH2 5552   4.408   6.111   3.188
 1863TIP3    H1 5553   4.326   6.061   3.185
 1863TIP3    H2 5554   4.381   6.202   3.176
 1864TIP3   OH2 5555   3.426   3.037   2.709
 1864TIP3    H1 5556   3.468   2.966   2.660
 1864TIP3    H2 5557   3.487   3.110   2.703
 1865TIP3   OH2 5558   5.448   6.554   1.060
 1865TIP3    H1 5559   5.527   6.580   1.108
 1865TIP3    H2 5560   5.433   6.625   0.998
 1866TIP3   OH2 5561   0.629   3.107   4.339
 1866TIP3    H1 5562   0.710   3.123   4.290
 1866TIP3    H2 5563   0.565   3.083   4.272
 1867TIP3   OH2 5564   2.563   2.379   3.599
 1867TIP3    H1 5565   2.545   2.345   3.687
 1867TIP3    H2 5566   2.584   2.302   3.547
 1868TIP3   OH2 5567   1.487   2.171   5.542
 1868TIP3    H1 5568   1.392   2.177   5.530
 1868TIP3    H2 5569   1.506   2.078   5.533
 1869TIP3   OH2 5570   5.729   3.738   4.467
 1869TIP3    H1 5571   5.692   3.819   4.433
 1869TIP3    H2 5572   5.824   3.750   4.460
 1870TIP3   OH2 5573   4.994   1.299  -0.002
 1870TIP3    H1 5574   4.920   1.334   0.049
 1870TIP3    H2 5575   5.070   1.310   0.056
 1871TIP3   OH2 5576   4.037   4.031   3.655
 1871TIP3    H1 5577   4.071   4.109   3.699
 1871TIP3    H2 5578   4.070   4.037   3.566
 1872TIP3   OH2 5579   0.751   4.939   1.939
 1872TIP3    H1 5580   0.780   4.950   2.029
 1872TIP3    H2 5581   0.658   4.918   1.946
 1873TIP3   OH2 5582   5.513   5.954   2.492
 1873TIP3    H1 5583   5.581   5.956   2.425
 1873TIP3    H2 5584   5.481   6.045   2.496
 1874TIP3   OH2 5585   0.648   2.029   2.229
 1874TIP3    H1 5586   0.629   1.993   2.143
 1874TIP3    H2 5587   0.624   1.959   2.290
 1875TIP3   OH2 5588   3.715   1.010   0.918
 1875TIP3    H1 5589   3.716   0.915   0.929
 1875TIP3    H2 5590   3.804   1.038   0.937
 1876TIP3   OH2 5591   2.267   2.988   0.338
 1876TIP3    H1 5592   2.343   3.044   0.353
 1876TIP3    H2 5593   2.256   2.939   0.419
 1877TIP3   OH2 5594   1.724   1.624   5.235
 1877TIP3    H1 5595   1.696   1.684   5.167
 1877TIP3    H2 5596   1.651   1.620   5.296
 1878TIP3   OH2 5597   7.079   3.300   1.628
 1878TIP3    H1 5598   7.069   3.328   1.537
 1878TIP3    H2 5599   6.997   3.328   1.670
 1879TIP3   OH2 5600   1.991   4.738   3.788
 1879TIP3    H1 5601   1.991   4.656   3.738
 1879TIP3    H2 5602   1.926   4.793   3.746
 1880TIP3   OH2 5603   5.857   3.140   0.588
 1880TIP3    H1 5604   5.899   3.116   0.506
 1880TIP3    H2 5605   5.896   3.224   0.611
 1881TIP3   OH2 5606   6.835   4.124   1.715
 1881TIP3    H1 5607   6.826   4.217   1.693
 1881TIP3    H2 5608   6.894   4.089   1.649
 1882TIP3   OH2 5609   5.982   6.177   2.510
 1882TIP3    H1 5610   5.887   6.186   2.507
 1882TIP3    H2 5611   5.999   6.087   2.481
 1883TIP3   OH2 5612   3.347   1.464   5.712
 1883TIP3    H1 5613   3.269   1.493   5.759
 1883TIP3    H2 5614   3.339   1.369   5.707
 1884TIP3   OH2 5615   3.203   3.331   0.269
 1884TIP3    H1 5616   3.192   3.283   0.187
 1884TIP3    H2 5617   3.172   3.270   0.337
 1885TIP3   OH2 5618   3.656   2.102   1.152
 1885TIP3    H1 5619   3.581   2.139   1.106
 1885TIP3    H2 5620   3.686   2.172   1.209
 1886TIP3   OH2 5621   3.036   1.419   3.423
 1886TIP3    H1 5622   3.026   1.324   3.415
 1886TIP3    H2 5623   3.012   1.453   3.337
 1887TIP3   OH2 5624   4.902   6.710   2.182
 1887TIP3    H1 5625   4.954   6.770   2.236
 1887TIP3    H2 5626   4.822   6.759   2.163
 1888TIP3   OH2 5627   2.665   6.642   3.344
 1888TIP3    H1 5628   2.693   6.565   3.295
 1888TIP3    H2 5629   2.725   6.711   3.315
 1889TIP3   OH2 5630   5.331   1.679   4.391
 1889TIP3    H1 5631   5.380   1.609   4.346
 1889TIP3    H2 5632   5.240   1.658   4.373
 1890TIP3   OH2 5633   2.349   1.153   5.133
 1890TIP3    H1 5634   2.368   1.128   5.223
 1890TIP3    H2 5635   2.398   1.235   5.120
 1891TIP3   OH2 5636   5.304   2.175   5.351
 1891TIP3    H1 5637   5.395   2.202   5.339
 1891TIP3    H2 5638   5.294   2.167   5.446
 1892TIP3   OH2 5639   6.498   4.122   0.531
 1892TIP3    H1 5640   6.409   4.088   0.537
 1892TIP3    H2 5641   6.545   4.056   0.479
 1893TIP3   OH2 5642   4.356   2.825   2.230
 1893TIP3    H1 5643   4.419   2.755   2.244
 1893TIP3    H2 5644   4.388   2.898   2.283
 1894TIP3   OH2 5645   6.214   4.114   3.285
 1894TIP3    H1 5646   6.161   4.185   3.322
 1894TIP3    H2 5647   6.304   4.142   3.299
 1895TIP3   OH2 5648   6.338   2.708   1.189
 1895TIP3    H1 5649   6.351   2.795   1.150
 1895TIP3    H2 5650   6.344   2.648   1.115
 1896TIP3   OH2 5651   5.450   4.300   2.028
 1896TIP3    H1 5652   5.366   4.255   2.029
 1896TIP3    H2 5653   5.491   4.276   2.111
 1897TIP3   OH2 5654   0.906   4.300   5.863
 1897TIP3    H1 5655   0.915   4.295   5.768
 1897TIP3    H2 5656   0.970   4.367   5.890
 1898TIP3   OH2 5657   4.162   3.746   0.244
 1898TIP3    H1 5658   4.136   3.805   0.315
 1898TIP3    H2 5659   4.150   3.798   0.165
 1899TIP3   OH2 5660   2.071   1.960   4.645
 1899TIP3    H1 5661   2.051   1.885   4.701
 1899TIP3    H2 5662   2.113   2.023   4.703
 1900TIP3   OH2 5663   2.756   1.195   4.096
 1900TIP3    H1 5664   2.770   1.289   4.096
 1900TIP3    H2 5665   2.684   1.181   4.158
 1901TIP3   OH2 5666   0.987   5.102   3.197
 1901TIP3    H1 5667   0.976   5.196   3.208
 1901TIP3    H2 5668   0.925   5.078   3.128
 1902TIP3   OH2 5669   4.166   0.228   1.613
 1902TIP3    H1 5670   4.196   0.234   1.703
 1902TIP3    H2 5671   4.180   0.137   1.588
 1903TIP3   OH2 5672   0.677   0.189   2.086
 1903TIP3    H1 5673   0.660   0.095   2.082
 1903TIP3    H2 5674   0.700   0.213   1.997
 1904TIP3   OH2 5675   6.510   5.884   4.096
 1904TIP3    H1 5676   6.581   5.917   4.151
 1904TIP3    H2 5677   6.554   5.849   4.018
 1905TIP3   OH2 5678   0.785   0.831   1.228
 1905TIP3    H1 5679   0.868   0.786   1.239
 1905TIP3    H2 5680   0.797   0.914   1.274
 1906TIP3   OH2 5681   1.746   2.508   1.815
 1906TIP3    H1 5682   1.669   2.475   1.769
 1906TIP3    H2 5683   1.734   2.603   1.817
 1907TIP3   OH2 5684   3.253   6.167   4.552
 1907TIP3    H1 5685   3.161   6.160   4.525
 1907TIP3    H2 5686   3.249   6.213   4.636
 1908TIP3   OH2 5687   1.835   6.063   0.827
 1908TIP3    H1 5688   1.823   5.985   0.882
 1908TIP3    H2 5689   1.746   6.092   0.807
 1909TIP3   OH2 5690   4.741   1.281   0.820
 1909TIP3    H1 5691   4.800   1.337   0.870
 1909TIP3    H2 5692   4.700   1.339   0.757
 1910TIP3   OH2 5693   6.654   4.123   0.770
 1910TIP3    H1 5694   6.715   4.186   0.730
 1910TIP3    H2 5695   6.581   4.118   0.708
 1911TIP3   OH2 5696   3.015   2.713   5.818
 1911TIP3    H1 5697   2.949   2.738   5.884
 1911TIP3    H2 5698   2.996   2.768   5.743
 1912TIP3   OH2 5699   3.762   6.267   3.711
 1912TIP3    H1 5700   3.704   6.274   3.787
 1912TIP3    H2 5701   3.721   6.200   3.656
 1913TIP3   OH2 5702   3.687   6.283   5.175
 1913TIP3    H1 5703   3.673   6.359   5.119
 1913TIP3    H2 5704   3.730   6.319   5.253
 1914TIP3   OH2 5705   6.747   4.721   3.612
 1914TIP3    H1 5706   6.766   4.814   3.609
 1914TIP3    H2 5707   6.671   4.714   3.670
 1915TIP3   OH2 5708   1.553   4.972   1.404
 1915TIP3    H1 5709   1.603   4.898   1.370
 1915TIP3    H2 5710   1.501   5.002   1.330
 1916TIP3   OH2 5711   3.451   5.287   4.614
 1916TIP3    H1 5712   3.355   5.285   4.616
 1916TIP3    H2 5713   3.474   5.354   4.678
 1917TIP3   OH2 5714   2.442   3.621   0.050
 1917TIP3    H1 5715   2.531   3.606   0.082
 1917TIP3    H2 5716   2.414   3.701   0.094
 1918TIP3   OH2 5717   5.897   5.036   4.278
 1918TIP3    H1 5718   5.878   5.125   4.309
 1918TIP3    H2 5719   5.992   5.032   4.271
 1919TIP3   OH2 5720   6.818   4.464   5.847
 1919TIP3    H1 5721   6.739   4.419   5.879
 1919TIP3    H2 5722   6.847   4.412   5.773
 1920TIP3   OH2 5723   2.758   4.364   3.977
 1920TIP3    H1 5724   2.725   4.283   3.938
 1920TIP3    H2 5725   2.703   4.378   4.054
 1921TIP3   OH2 5726   2.871   6.425   2.738
 1921TIP3    H1 5727   2.890   6.481   2.814
 1921TIP3    H2 5728   2.952   6.427   2.687
 1922TIP3   OH2 5729   5.329   2.687   5.820
 1922TIP3    H1 5730   5.313   2.669   5.913
 1922TIP3    H2 5731   5.424   2.698   5.815
 1923TIP3   OH2 5732   3.026   4.511   0.927
 1923TIP3    H1 5733   2.930   4.507   0.922
 1923TIP3    H2 5734   3.047   4.602   0.905
 1924TIP3   OH2 5735   1.642   5.763   3.784
 1924TIP3    H1 5736   1.692   5.741   3.706
 1924TIP3    H2 5737   1.665   5.695   3.848
 1925TIP3   OH2 5738   2.426   0.958   5.346
 1925TIP3    H1 5739   2.335   0.932   5.363
 1925TIP3    H2 5740   2.468   0.879   5.312
 1926TIP3   OH2 5741   1.947   3.403   3.756
 1926TIP3    H1 5742   1.887   3.398   3.831
 1926TIP3    H2 5743   1.891   3.420   3.681
 1927TIP3   OH2 5744   4.977   6.440   3.562
 1927TIP3    H1 5745   4.922   6.471   3.634
 1927TIP3    H2 5746   5.055   6.496   3.566
 1928TIP3   OH2 5747   6.753   2.085   2.983
 1928TIP3    H1 5748   6.766   2.112   2.892
 1928TIP3    H2 5749   6.706   2.158   3.023
 1929TIP3   OH2 5750   4.277   1.456   3.644
 1929TIP3    H1 5751   4.192   1.436   3.605
 1929TIP3    H2 5752   4.256   1.498   3.727
 1930TIP3   OH2 5753   5.398   3.020   4.623
 1930TIP3    H1 5754   5.325   2.958   4.625
 1930TIP3    H2 5755   5.405   3.045   4.531
 1931TIP3   OH2 5756   3.614   0.380   1.349
 1931TIP3    H1 5757   3.519   0.375   1.358
 1931TIP3    H2 5758   3.644   0.290   1.364
 1932TIP3   OH2 5759   4.256   2.451   0.781
 1932TIP3    H1 5760   4.340   2.453   0.827
 1932TIP3    H2 5761   4.207   2.524   0.819
 1933TIP3   OH2 5762   5.439   3.356   0.938
 1933TIP3    H1 5763   5.392   3.298   0.998
 1933TIP3    H2 5764   5.468   3.298   0.867
 1934TIP3   OH2 5765   1.071   2.234   1.329
 1934TIP3    H1 5766   1.114   2.161   1.284
 1934TIP3    H2 5767   0.980   2.231   1.298
 1935TIP3   OH2 5768   1.033   3.977   2.264
 1935TIP3    H1 5769   1.086   3.940   2.194
 1935TIP3    H2 5770   0.968   3.909   2.283
 1936TIP3   OH2 5771   3.786   5.887   2.366
 1936TIP3    H1 5772   3.857   5.883   2.301
 1936TIP3    H2 5773   3.799   5.811   2.422
 1937TIP3   OH2 5774   4.425   3.136   3.890
 1937TIP3    H1 5775   4.436   3.048   3.854
 1937TIP3    H2 5776   4.341   3.166   3.857
 1938TIP3   OH2 5777   6.008   4.265   5.833
 1938TIP3    H1 5778   5.999   4.258   5.928
 1938TIP3    H2 5779   5.936   4.322   5.807
 1939TIP3   OH2 5780   4.962   1.500   0.830
 1939TIP3    H1 5781   5.024   1.449   0.882
 1939TIP3    H2 5782   4.939   1.575   0.884
 1940TIP3   OH2 5783   5.532   4.703   5.459
 1940TIP3    H1 5784   5.462   4.726   5.397
 1940TIP3    H2 5785   5.487   4.693   5.543
 1941TIP3   OH2 5786   6.281   1.616   3.633
 1941TIP3    H1 5787   6.211   1.658   3.682
 1941TIP3    H2 5788   6.240   1.584   3.553
 1942TIP3   OH2 5789   1.286   0.939   5.755
 1942TIP3    H1 5790   1.199   0.968   5.782
 1942TIP3    H2 5791   1.339   1.019   5.760
 1943TIP3   OH2 5792   2.171   3.514   0.798
 1943TIP3    H1 5793   2.252   3.547   0.760
 1943TIP3    H2 5794   2.196   3.479   0.883
 1944TIP3   OH2 5795   0.623   1.650   4.856
 1944TIP3    H1 5796   0.531   1.622   4.859
 1944TIP3    H2 5797   0.672   1.568   4.867
 1945TIP3   OH2 5798   1.903   0.261   3.390
 1945TIP3    H1 5799   1.936   0.329   3.332
 1945TIP3    H2 5800   1.926   0.291   3.478
 1946TIP3   OH2 5801   0.313   1.676   2.652
 1946TIP3    H1 5802   0.358   1.600   2.690
 1946TIP3    H2 5803   0.342   1.750   2.706
 1947TIP3   OH2 5804   7.011   2.165   2.096
 1947TIP3    H1 5805   6.928   2.135   2.059
 1947TIP3    H2 5806   7.077   2.131   2.035
 1948TIP3   OH2 5807   0.967   3.075   5.829
 1948TIP3    H1 5808   0.917   3.081   5.748
 1948TIP3    H2 5809   1.056   3.055   5.801
 1949TIP3   OH2 5810   2.988   6.512   3.724
 1949TIP3    H1 5811   2.982   6.421   3.695
 1949TIP3    H2 5812   3.000   6.563   3.644
 1950TIP3   OH2 5813   5.276   2.331   1.784
 1950TIP3    H1 5814   5.369   2.311   1.794
 1950TIP3    H2 5815   5.266   2.418   1.823
 1951TIP3   OH2 5816   4.578   1.377   2.588
 1951TIP3    H1 5817   4.666   1.398   2.618
 1951TIP3    H2 5818   4.571   1.417   2.502
 1952TIP3   OH2 5819   1.196   3.263   4.424
 1952TIP3    H1 5820   1.166   3.348   4.455
 1952TIP3    H2 5821   1.124   3.203   4.444
 1953TIP3   OH2 5822   1.953   0.310   4.942
 1953TIP3    H1 5823   1.964   0.401   4.914
 1953TIP3    H2 5824   1.859   0.302   4.961
 1954TIP3   OH2 5825   6.168   4.297   4.451
 1954TIP3    H1 5826   6.151   4.376   4.400
 1954TIP3    H2 5827   6.093   4.240   4.432
 1955TIP3   OH2 5828   0.210   1.008   3.874
 1955TIP3    H1 5829   0.115   1.009   3.887
 1955TIP3    H2 5830   0.221   0.992   3.781
 1956TIP3   OH2 5831   5.461   3.903   0.545
 1956TIP3    H1 5832   5.494   3.898   0.635
 1956TIP3    H2 5833   5.535   3.938   0.495
 1957TIP3   OH2 5834   6.278   5.102   0.758
 1957TIP3    H1 5835   6.193   5.059   0.772
 1957TIP3    H2 5836   6.261   5.194   0.780
 1958TIP3   OH2 5837   0.226   6.352   4.472
 1958TIP3    H1 5838   0.176   6.339   4.391
 1958TIP3    H2 5839   0.168   6.319   4.541
 1959TIP3   OH2 5840   5.570   0.575   3.870
 1959TIP3    H1 5841   5.619   0.571   3.787
 1959TIP3    H2 5842   5.621   0.635   3.925
 1960TIP3   OH2 5843   5.403   3.951   2.083
 1960TIP3    H1 5844   5.377   3.887   2.018
 1960TIP3    H2 5845   5.329   4.012   2.089
 1961TIP3   OH2 5846   5.183   4.587   3.182
 1961TIP3    H1 5847   5.200   4.553   3.270
 1961TIP3    H2 5848   5.093   4.619   3.185
 1962TIP3   OH2 5849   6.778   2.708   2.400
 1962TIP3    H1 5850   6.833   2.634   2.426
 1962TIP3    H2 5851   6.833   2.761   2.343
 1963TIP3   OH2 5852   5.110   5.554   5.341
 1963TIP3    H1 5853   5.158   5.532   5.420
 1963TIP3    H2 5854   5.167   5.617   5.295
 1964TIP3   OH2 5855   2.683   3.012   1.158
 1964TIP3    H1 5856   2.771   3.003   1.123
 1964TIP3    H2 5857   2.642   2.926   1.143
 1965TIP3   OH2 5858   6.146   3.008   0.551
 1965TIP3    H1 5859   6.125   2.919   0.580
 1965TIP3    H2 5860   6.194   2.996   0.469
 1966TIP3   OH2 5861   2.342   0.112   5.719
 1966TIP3    H1 5862   2.275   0.100   5.786
 1966TIP3    H2 5863   2.425   0.105   5.766
 1967TIP3   OH2 5864   0.315   2.621   1.364
 1967TIP3    H1 5865   0.225   2.609   1.394
 1967TIP3    H2 5866   0.319   2.577   1.280
 1968TIP3   OH2 5867   5.382   4.241   1.216
 1968TIP3    H1 5868   5.380   4.333   1.190
 1968TIP3    H2 5869   5.304   4.229   1.269
 1969TIP3   OH2 5870   1.216   5.386   4.397
 1969TIP3    H1 5871   1.254   5.429   4.321
 1969TIP3    H2 5872   1.203   5.457   4.460
 1970TIP3   OH2 5873   1.847   0.127   3.109
 1970TIP3    H1 5874   1.814   0.075   3.182
 1970TIP3    H2 5875   1.928   0.084   3.083
 1971TIP3   OH2 5876   6.274   2.548   0.899
 1971TIP3    H1 5877   6.275   2.500   0.816
 1971TIP3    H2 5878   6.191   2.596   0.897
 1972TIP3   OH2 5879   2.117   6.440   0.749
 1972TIP3    H1 5880   2.134   6.484   0.666
 1972TIP3    H2 5881   2.038   6.388   0.733
 1973TIP3   OH2 5882   4.442   2.681   1.221
 1973TIP3    H1 5883   4.531   2.649   1.203
 1973TIP3    H2 5884   4.454   2.747   1.289
 1974TIP3   OH2 5885   0.765   1.937   0.383
 1974TIP3    H1 5886   0.848   1.893   0.398
 1974TIP3    H2 5887   0.720   1.882   0.318
 1975TIP3   OH2 5888   1.097   1.479   2.634
 1975TIP3    H1 5889   1.102   1.572   2.615
 1975TIP3    H2 5890   1.083   1.437   2.549
 1976TIP3   OH2 5891   0.020   2.363   3.205
 1976TIP3    H1 5892  -0.042   2.420   3.161
 1976TIP3    H2 5893   0.099   2.367   3.152
 1977TIP3   OH2 5894   0.887   6.141   4.497
 1977TIP3    H1 5895   0.874   6.058   4.543
 1977TIP3    H2 5896   0.954   6.186   4.549
 1978TIP3   OH2 5897   4.146   4.954   5.109
 1978TIP3    H1 5898   4.212   4.958   5.178
 1978TIP3    H2 5899   4.195   4.939   5.029
 1979TIP3   OH2 5900   0.101   2.577   2.666
 1979TIP3    H1 5901   0.132   2.490   2.689
 1979TIP3    H2 5902   0.108   2.581   2.570
 1980TIP3   OH2 5903   3.697   4.911   3.822
 1980TIP3    H1 5904   3.777   4.959   3.845
 1980TIP3    H2 5905   3.666   4.953   3.742
 1981TIP3   OH2 5906   4.605   0.876   5.199
 1981TIP3    H1 5907   4.622   0.819   5.124
 1981TIP3    H2 5908   4.513   0.901   5.189
 1982TIP3   OH2 5909   4.637   0.644   1.297
 1982TIP3    H1 5910   4.542   0.649   1.287
 1982TIP3    H2 5911   4.655   0.551   1.307
 1983TIP3   OH2 5912   3.338   0.550   4.918
 1983TIP3    H1 5913   3.341   0.541   4.823
 1983TIP3    H2 5914   3.285   0.476   4.948
 1984TIP3   OH2 5915   1.266   3.765   2.918
 1984TIP3    H1 5916   1.330   3.760   2.989
 1984TIP3    H2 5917   1.181   3.761   2.962
 1985TIP3   OH2 5918   3.087   6.246   5.728
 1985TIP3    H1 5919   3.089   6.204   5.642
 1985TIP3    H2 5920   3.175   6.283   5.739
 1986TIP3   OH2 5921   2.443   1.598   1.064
 1986TIP3    H1 5922   2.378   1.556   1.121
 1986TIP3    H2 5923   2.481   1.527   1.013
 1987TIP3   OH2 5924   3.970   2.496   0.719
 1987TIP3    H1 5925   3.938   2.446   0.794
 1987TIP3    H2 5926   4.006   2.430   0.659
 1988TIP3   OH2 5927   0.922   6.126   5.598
 1988TIP3    H1 5928   0.878   6.042   5.593
 1988TIP3    H2 5929   0.984   6.125   5.525
 1989TIP3   OH2 5930   6.946   1.064   4.573
 1989TIP3    H1 5931   7.011   1.014   4.524
 1989TIP3    H2 5932   6.922   1.007   4.646
 1990TIP3   OH2 5933   4.862   3.652   5.024
 1990TIP3    H1 5934   4.865   3.668   5.118
 1990TIP3    H2 5935   4.890   3.561   5.015
 1991TIP3   OH2 5936   3.477   4.898   0.663
 1991TIP3    H1 5937   3.523   4.920   0.582
 1991TIP3    H2 5938   3.547   4.890   0.728
 1992TIP3   OH2 5939   5.002   5.404   2.493
 1992TIP3    H1 5940   5.080   5.459   2.498
 1992TIP3    H2 5941   4.934   5.452   2.541
 1993TIP3   OH2 5942   5.060   3.090   5.575
 1993TIP3    H1 5943   5.080   3.147   5.650
 1993TIP3    H2 5944   5.073   3.001   5.607
 1994TIP3   OH2 5945   3.879   4.613   5.113
 1994TIP3    H1 5946   3.932   4.539   5.143
 1994TIP3    H2 5947   3.866   4.667   5.192
 1995TIP3   OH2 5948   4.294   5.352   1.699
 1995TIP3    H1 5949   4.365   5.372   1.638
 1995TIP3    H2 5950   4.287   5.430   1.754
 1996TIP3   OH2 5951   3.985   1.087   4.143
 1996TIP3    H1 5952   3.975   1.050   4.055
 1996TIP3    H2 5953   4.078   1.109   4.149
 1997TIP3   OH2 5954   2.358   0.374   1.713
 1997TIP3    H1 5955   2.376   0.343   1.802
 1997TIP3    H2 5956   2.320   0.462   1.726
 1998TIP3   OH2 5957   6.231   6.553   5.102
 1998TIP3    H1 5958   6.270   6.530   5.017
 1998TIP3    H2 5959   6.303   6.595   5.151
 1999TIP3   OH2 5960   4.135   3.126   2.172
 1999TIP3    H1 5961   4.050   3.085   2.190
 1999TIP3    H2 5962   4.174   3.073   2.104
 2000TIP3   OH2 5963   2.723   1.846   5.376
 2000TIP3    H1 5964   2.648   1.788   5.386
 2000TIP3    H2 5965   2.798   1.788   5.370
 2001TIP3   OH2 5966   1.215   1.033   5.339
 2001TIP3    H1 5967   1.192   1.042   5.247
 2001TIP3    H2 5968   1.265   1.113   5.359
 2002TIP3   OH2 5969   0.167   5.776   4.431
 2002TIP3    H1 5970   0.125   5.697   4.465
 2002TIP3    H2 5971   0.260   5.754   4.431
 2003TIP3   OH2 5972   2.232   0.384   0.277
 2003TIP3    H1 5973   2.262   0.412   0.191
 2003TIP3    H2 5974   2.236   0.462   0.332
 2004TIP3   OH2 5975   3.307   1.197   5.586
 2004TIP3    H1 5976   3.387   1.145   5.576
 2004TIP3    H2 5977   3.244   1.156   5.527
 2005TIP3   OH2 5978   2.209   1.460   0.157
 2005TIP3    H1 5979   2.239   1.415   0.235
 2005TIP3    H2 5980   2.115   1.471   0.170
 2006TIP3   OH2 5981   0.211   5.253   3.932
 2006TIP3    H1 5982   0.159   5.331   3.950
 2006TIP3    H2 5983   0.302   5.282   3.937
 2007TIP3   OH2 5984   1.551   3.840   5.124
 2007TIP3    H1 5985   1.480   3.791   5.165
 2007TIP3    H2 5986   1.630   3.808   5.167
 2008TIP3   OH2 5987   0.127   0.655   4.259
 2008TIP3    H1 5988   0.156   0.674   4.170
 2008TIP3    H2 5989   0.034   0.677   4.259
 2009TIP3   OH2 5990   4.698   4.216   2.183
 2009TIP3    H1 5991   4.717   4.176   2.268
 2009TIP3    H2 5992   4.782   4.214   2.137
 2010TIP3   OH2 5993   6.706   2.787   5.606
 2010TIP3    H1 5994   6.663   2.743   5.679
 2010TIP3    H2 5995   6.750   2.862   5.646
 2011TIP3   OH2 5996   1.076   0.816   0.574
 2011TIP3    H1 5997   1.026   0.741   0.539
 2011TIP3    H2 5998   1.116   0.855   0.496
 2012TIP3   OH2 5999   1.797   1.459   0.441
 2012TIP3    H1 6000   1.790   1.479   0.534
 2012TIP3    H2 6001   1.741   1.524   0.398
 2013TIP3   OH2 6002   4.506   5.613   2.557
 2013TIP3    H1 6003   4.436   5.581   2.614
 2013TIP3    H2 6004   4.536   5.536   2.509
 2014TIP3   OH2 6005   3.548   6.411   2.594
 2014TIP3    H1 6006   3.532   6.387   2.685
 2014TIP3    H2 6007   3.473   6.376   2.546
 2015TIP3   OH2 6008   1.972   6.817   5.448
 2015TIP3    H1 6009   2.005   6.757   5.381
 2015TIP3    H2 6010   2.046   6.828   5.508
 2016TIP3   OH2 6011   4.795   3.087   1.279
 2016TIP3    H1 6012   4.716   3.082   1.226
 2016TIP3    H2 6013   4.841   3.005   1.263
 2017TIP3   OH2 6014   4.309   2.064   4.388
 2017TIP3    H1 6015   4.273   2.136   4.440
 2017TIP3    H2 6016   4.238   2.000   4.382
 2018TIP3   OH2 6017   6.256   6.008   3.140
 2018TIP3    H1 6018   6.194   6.019   3.212
 2018TIP3    H2 6019   6.230   5.926   3.098
 2019TIP3   OH2 6020   2.948   2.103   2.991
 2019TIP3    H1 6021   2.927   2.097   2.897
 2019TIP3    H2 6022   2.869   2.074   3.035
 2020TIP3   OH2 6023   2.488   3.694   1.287
 2020TIP3    H1 6024   2.417   3.635   1.313
 2020TIP3    H2 6025   2.542   3.701   1.366
 2021TIP3   OH2 6026   5.344   3.691   4.140
 2021TIP3    H1 6027   5.277   3.707   4.072
 2021TIP3    H2 6028   5.376   3.603   4.121
 2022TIP3   OH2 6029   4.699   3.503   0.984
 2022TIP3    H1 6030   4.721   3.448   1.059
 2022TIP3    H2 6031   4.783   3.543   0.960
 2023TIP3   OH2 6032   3.106   4.791   5.008
 2023TIP3    H1 6033   3.132   4.883   5.011
 2023TIP3    H2 6034   3.182   4.745   4.973
 2024TIP3   OH2 6035   0.720   4.341   3.075
 2024TIP3    H1 6036   0.796   4.289   3.102
 2024TIP3    H2 6037   0.757   4.414   3.026
 2025TIP3   OH2 6038   3.835   5.792   3.452
 2025TIP3    H1 6039   3.870   5.813   3.366
 2025TIP3    H2 6040   3.905   5.744   3.496
 2026TIP3   OH2 6041   1.050   4.746   3.086
 2026TIP3    H1 6042   1.006   4.670   3.048
 2026TIP3    H2 6043   1.105   4.780   3.015
 2027TIP3   OH2 6044   6.938   6.330   0.413
 2027TIP3    H1 6045   6.973   6.306   0.327
 2027TIP3    H2 6046   6.938   6.248   0.462
 2028TIP3   OH2 6047   1.126   3.598   0.742
 2028TIP3    H1 6048   1.204   3.619   0.691
 2028TIP3    H2 6049   1.107   3.679   0.791
 2029TIP3   OH2 6050   6.359   5.807   2.498
 2029TIP3    H1 6051   6.353   5.814   2.593
 2029TIP3    H2 6052   6.404   5.887   2.470
 2030TIP3   OH2 6053   1.454   4.590   2.542
 2030TIP3    H1 6054   1.474   4.497   2.552
 2030TIP3    H2 6055   1.359   4.594   2.535
 2031TIP3   OH2 6056   6.685   1.003   3.870
 2031TIP3    H1 6057   6.597   0.986   3.903
 2031TIP3    H2 6058   6.743   0.983   3.944
 2032TIP3   OH2 6059   4.784   1.176   2.209
 2032TIP3    H1 6060   4.809   1.267   2.220
 2032TIP3    H2 6061   4.864   1.126   2.225
 2033TIP3   OH2 6062   3.080   3.764   1.745
 2033TIP3    H1 6063   3.125   3.823   1.806
 2033TIP3    H2 6064   3.119   3.785   1.659
 2034TIP3   OH2 6065   4.450   5.201   4.716
 2034TIP3    H1 6066   4.475   5.159   4.634
 2034TIP3    H2 6067   4.393   5.273   4.690
 2035TIP3   OH2 6068   5.820   1.449   4.025
 2035TIP3    H1 6069   5.916   1.453   4.019
 2035TIP3    H2 6070   5.800   1.356   4.033
 2036TIP3   OH2 6071   5.694   2.843   5.291
 2036TIP3    H1 6072   5.736   2.885   5.366
 2036TIP3    H2 6073   5.601   2.858   5.303
 2037TIP3   OH2 6074   2.155   3.217   0.531
 2037TIP3    H1 6075   2.135   3.124   0.536
 2037TIP3    H2 6076   2.129   3.252   0.617
 2038TIP3   OH2 6077   3.453   3.617   3.884
 2038TIP3    H1 6078   3.485   3.618   3.975
 2038TIP3    H2 6079   3.393   3.691   3.879
 2039TIP3   OH2 6080   2.755   1.711   0.668
 2039TIP3    H1 6081   2.671   1.744   0.637
 2039TIP3    H2 6082   2.800   1.788   0.703
 2040TIP3   OH2 6083   1.777   3.128   0.232
 2040TIP3    H1 6084   1.836   3.072   0.283
 2040TIP3    H2 6085   1.829   3.206   0.212
 2041TIP3   OH2 6086   3.500   3.176   0.227
 2041TIP3    H1 6087   3.417   3.207   0.193
 2041TIP3    H2 6088   3.523   3.101   0.171
 2042TIP3   OH2 6089   6.179   5.438   0.042
 2042TIP3    H1 6090   6.120   5.477   0.107
 2042TIP3    H2 6091   6.230   5.374   0.092
 2043TIP3   OH2 6092   0.912   4.782   2.218
 2043TIP3    H1 6093   0.875   4.869   2.234
 2043TIP3    H2 6094   0.998   4.784   2.260
 2044TIP3   OH2 6095   4.922   2.636   0.902
 2044TIP3    H1 6096   4.877   2.617   0.819
 2044TIP3    H2 6097   5.013   2.650   0.876
 2045TIP3   OH2 6098   6.138   4.558   4.333
 2045TIP3    H1 6099   6.121   4.551   4.239
 2045TIP3    H2 6100   6.067   4.612   4.367
 2046TIP3   OH2 6101   7.123   0.148   1.000
 2046TIP3    H1 6102   7.162   0.115   1.081
 2046TIP3    H2 6103   7.068   0.076   0.969
 2047TIP3   OH2 6104   1.159   3.715   5.093
 2047TIP3    H1 6105   1.082   3.761   5.127
 2047TIP3    H2 6106   1.196   3.672   5.169
 2048TIP3   OH2 6107   0.012   1.490   4.700
 2048TIP3    H1 6108  -0.083   1.483   4.692
 2048TIP3    H2 6109   0.040   1.404   4.732
 2049TIP3   OH2 6110   1.585   3.072   1.328
 2049TIP3    H1 6111   1.555   3.023   1.251
 2049TIP3    H2 6112   1.594   3.005   1.396
 2050TIP3   OH2 6113   6.106   3.267   3.260
 2050TIP3    H1 6114   6.033   3.231   3.209
 2050TIP3    H2 6115   6.076   3.265   3.351
 2051TIP3   OH2 6116   2.307   1.358   3.480
 2051TIP3    H1 6117   2.386   1.381   3.431
 2051TIP3    H2 6118   2.315   1.264   3.495
 2052TIP3   OH2 6119   2.569   3.794   3.209
 2052TIP3    H1 6120   2.645   3.795   3.266
 2052TIP3    H2 6121   2.560   3.885   3.180
 2053TIP3   OH2 6122   0.838   0.985   3.752
 2053TIP3    H1 6123   0.896   1.061   3.759
 2053TIP3    H2 6124   0.857   0.948   3.667
 2054TIP3   OH2 6125   3.294   4.649   0.587
 2054TIP3    H1 6126   3.270   4.678   0.498
 2054TIP3    H2 6127   3.350   4.720   0.620
 2055TIP3   OH2 6128   0.135   1.181   2.442
 2055TIP3    H1 6129   0.098   1.178   2.354
 2055TIP3    H2 6130   0.218   1.229   2.431
 2056TIP3   OH2 6131   3.173   4.989   5.782
 2056TIP3    H1 6132   3.113   5.058   5.752
 2056TIP3    H2 6133   3.236   4.981   5.711
 2057TIP3   OH2 6134   3.902   1.488   5.114
 2057TIP3    H1 6135   3.984   1.444   5.092
 2057TIP3    H2 6136   3.900   1.488   5.209
 2058TIP3   OH2 6137   3.516   5.671   0.890
 2058TIP3    H1 6138   3.601   5.655   0.850
 2058TIP3    H2 6139   3.534   5.676   0.984
 2059TIP3   OH2 6140   2.587   2.252   3.846
 2059TIP3    H1 6141   2.612   2.170   3.889
 2059TIP3    H2 6142   2.567   2.311   3.919
 2060TIP3   OH2 6143   5.206   3.392   5.485
 2060TIP3    H1 6144   5.224   3.350   5.401
 2060TIP3    H2 6145   5.183   3.319   5.544
 2061TIP3   OH2 6146   4.937   5.622   3.811
 2061TIP3    H1 6147   4.859   5.572   3.785
 2061TIP3    H2 6148   4.958   5.676   3.735
 2062TIP3   OH2 6149   0.745   1.854   0.893
 2062TIP3    H1 6150   0.760   1.880   0.802
 2062TIP3    H2 6151   0.691   1.775   0.887
 2063TIP3   OH2 6152   4.514   4.398   4.218
 2063TIP3    H1 6153   4.537   4.409   4.311
 2063TIP3    H2 6154   4.559   4.469   4.173
 2064TIP3   OH2 6155   1.573   1.105   5.933
 2064TIP3    H1 6156   1.572   1.116   6.028
 2064TIP3    H2 6157   1.585   1.194   5.899
 2065TIP3   OH2 6158   0.541   3.010   1.441
 2065TIP3    H1 6159   0.591   3.055   1.509
 2065TIP3    H2 6160   0.514   2.928   1.482
 2066TIP3   OH2 6161   6.229   3.001   4.842
 2066TIP3    H1 6162   6.155   3.043   4.885
 2066TIP3    H2 6163   6.194   2.917   4.812
 2067TIP3   OH2 6164   2.277   6.686   1.355
 2067TIP3    H1 6165   2.321   6.636   1.423
 2067TIP3    H2 6166   2.345   6.707   1.291
 2068TIP3   OH2 6167   2.669   0.171   3.085
 2068TIP3    H1 6168   2.726   0.202   3.014
 2068TIP3    H2 6169   2.726   0.166   3.161
 2069TIP3   OH2 6170   1.642   2.091   0.476
 2069TIP3    H1 6171   1.600   2.032   0.414
 2069TIP3    H2 6172   1.732   2.098   0.446
 2070TIP3   OH2 6173   5.986   4.756   5.166
 2070TIP3    H1 6174   6.050   4.816   5.203
 2070TIP3    H2 6175   6.018   4.669   5.190
 2071TIP3   OH2 6176   6.410   2.075   2.428
 2071TIP3    H1 6177   6.485   2.119   2.390
 2071TIP3    H2 6178   6.447   2.017   2.495
 2072TIP3   OH2 6179   3.920   0.838   1.712
 2072TIP3    H1 6180   3.993   0.899   1.711
 2072TIP3    H2 6181   3.889   0.838   1.803
 2073TIP3   OH2 6182   0.540   2.013   5.031
 2073TIP3    H1 6183   0.467   2.062   5.070
 2073TIP3    H2 6184   0.539   2.037   4.938
 2074TIP3   OH2 6185   6.872   0.740   3.125
 2074TIP3    H1 6186   6.797   0.708   3.073
 2074TIP3    H2 6187   6.923   0.792   3.063
 2075TIP3   OH2 6188   4.057   0.247   4.214
 2075TIP3    H1 6189   3.983   0.197   4.248
 2075TIP3    H2 6190   4.017   0.317   4.162
 2076TIP3   OH2 6191   7.105   4.660   4.534
 2076TIP3    H1 6192   7.139   4.748   4.550
 2076TIP3    H2 6193   7.167   4.620   4.473
 2077TIP3   OH2 6194   0.466   3.999   4.105
 2077TIP3    H1 6195   0.371   3.988   4.099
 2077TIP3    H2 6196   0.493   3.936   4.172
 2078TIP3   OH2 6197   3.425   4.731   5.840
 2078TIP3    H1 6198   3.349   4.754   5.786
 2078TIP3    H2 6199   3.494   4.712   5.777
 2079TIP3   OH2 6200   0.806   5.462   5.301
 2079TIP3    H1 6201   0.726   5.452   5.250
 2079TIP3    H2 6202   0.781   5.438   5.391
 2080TIP3   OH2 6203   5.786   5.293   2.762
 2080TIP3    H1 6204   5.869   5.256   2.733
 2080TIP3    H2 6205   5.749   5.225   2.819
 2081TIP3   OH2 6206   3.021   2.511   4.212
 2081TIP3    H1 6207   3.001   2.430   4.258
 2081TIP3    H2 6208   3.051   2.571   4.280
 2082TIP3   OH2 6209   5.894   0.510   1.490
 2082TIP3    H1 6210   5.804   0.488   1.466
 2082TIP3    H2 6211   5.885   0.579   1.555
 2083TIP3   OH2 6212   1.612   5.517   0.856
 2083TIP3    H1 6213   1.642   5.490   0.943
 2083TIP3    H2 6214   1.615   5.613   0.858
 2084TIP3   OH2 6215   5.519   6.641   0.645
 2084TIP3    H1 6216   5.437   6.678   0.678
 2084TIP3    H2 6217   5.582   6.713   0.653
 2085TIP3   OH2 6218   5.263   1.047   3.072
 2085TIP3    H1 6219   5.202   1.096   3.127
 2085TIP3    H2 6220   5.263   0.959   3.110
 2086TIP3   OH2 6221   1.949   3.991   2.086
 2086TIP3    H1 6222   1.856   4.014   2.088
 2086TIP3    H2 6223   1.958   3.935   2.009
 2087TIP3   OH2 6224   6.864   1.829   0.416
 2087TIP3    H1 6225   6.956   1.810   0.396
 2087TIP3    H2 6226   6.819   1.746   0.403
 2088TIP3   OH2 6227   7.123   0.461   3.056
 2088TIP3    H1 6228   7.042   0.464   3.004
 2088TIP3    H2 6229   7.126   0.545   3.102
 2089TIP3   OH2 6230   6.471   1.453   4.512
 2089TIP3    H1 6231   6.529   1.422   4.582
 2089TIP3    H2 6232   6.449   1.374   4.463
 2090TIP3   OH2 6233   3.876   5.654   2.506
 2090TIP3    H1 6234   3.914   5.605   2.579
 2090TIP3    H2 6235   3.873   5.591   2.433
 2091TIP3   OH2 6236   6.105   1.465   4.098
 2091TIP3    H1 6237   6.194   1.453   4.131
 2091TIP3    H2 6238   6.059   1.508   4.169
 2092TIP3   OH2 6239   1.746   5.510   3.185
 2092TIP3    H1 6240   1.754   5.505   3.280
 2092TIP3    H2 6241   1.826   5.470   3.152
 2093TIP3   OH2 6242   6.387   4.664   3.766
 2093TIP3    H1 6243   6.478   4.652   3.793
 2093TIP3    H2 6244   6.373   4.597   3.698
 2094TIP3   OH2 6245   2.761   0.878   5.729
 2094TIP3    H1 6246   2.718   0.955   5.690
 2094TIP3    H2 6247   2.817   0.845   5.659
 2095TIP3   OH2 6248   6.298   6.747   2.850
 2095TIP3    H1 6249   6.334   6.835   2.859
 2095TIP3    H2 6250   6.356   6.692   2.903
 2096TIP3   OH2 6251   1.914   4.198   4.490
 2096TIP3    H1 6252   2.006   4.213   4.513
 2096TIP3    H2 6253   1.910   4.106   4.467
 2097TIP3   OH2 6254   0.826   1.620   4.426
 2097TIP3    H1 6255   0.735   1.588   4.424
 2097TIP3    H2 6256   0.862   1.594   4.342
 2098TIP3   OH2 6257   5.193   2.636   0.858
 2098TIP3    H1 6258   5.201   2.548   0.821
 2098TIP3    H2 6259   5.259   2.639   0.927
 2099TIP3   OH2 6260   1.265   2.974   1.373
 2099TIP3    H1 6261   1.184   3.023   1.361
 2099TIP3    H2 6262   1.335   3.038   1.361
 2100TIP3   OH2 6263   4.273   0.981   3.532
 2100TIP3    H1 6264   4.271   0.947   3.621
 2100TIP3    H2 6265   4.366   0.982   3.509
 2101TIP3   OH2 6266   3.077   3.739   0.459
 2101TIP3    H1 6267   3.092   3.763   0.368
 2101TIP3    H2 6268   3.137   3.795   0.508
 2102TIP3   OH2 6269   2.551   0.630   1.688
 2102TIP3    H1 6270   2.560   0.619   1.593
 2102TIP3    H2 6271   2.475   0.576   1.711
 2103TIP3   OH2 6272   1.921   3.208   5.042
 2103TIP3    H1 6273   1.974   3.270   5.091
 2103TIP3    H2 6274   1.830   3.233   5.061
 2104TIP3   OH2 6275   1.046   4.714   5.797
 2104TIP3    H1 6276   1.060   4.763   5.716
 2104TIP3    H2 6277   1.009   4.778   5.858
 2105TIP3   OH2 6278   0.690   0.508   3.512
 2105TIP3    H1 6279   0.638   0.587   3.529
 2105TIP3    H2 6280   0.779   0.540   3.497
 2106TIP3   OH2 6281   5.812   0.526   3.210
 2106TIP3    H1 6282   5.860   0.470   3.270
 2106TIP3    H2 6283   5.826   0.487   3.124
 2107TIP3   OH2 6284   3.447   4.284   1.368
 2107TIP3    H1 6285   3.455   4.257   1.459
 2107TIP3    H2 6286   3.534   4.273   1.331
 2108TIP3   OH2 6287   0.706   1.535   0.231
 2108TIP3    H1 6288   0.781   1.500   0.183
 2108TIP3    H2 6289   0.708   1.491   0.315
 2109TIP3   OH2 6290   6.141   4.256   4.750
 2109TIP3    H1 6291   6.136   4.269   4.655
 2109TIP3    H2 6292   6.073   4.314   4.785
 2110TIP3   OH2 6293   0.528   3.393   5.850
 2110TIP3    H1 6294   0.532   3.459   5.919
 2110TIP3    H2 6295   0.458   3.423   5.792
 2111TIP3   OH2 6296   0.404   2.645   3.213
 2111TIP3    H1 6297   0.337   2.605   3.159
 2111TIP3    H2 6298   0.363   2.723   3.250
 2112TIP3   OH2 6299   3.893   4.754   1.741
 2112TIP3    H1 6300   3.852   4.741   1.827
 2112TIP3    H2 6301   3.878   4.846   1.722
 2113TIP3   OH2 6302   3.693   6.450   1.557
 2113TIP3    H1 6303   3.763   6.427   1.497
 2113TIP3    H2 6304   3.644   6.369   1.570
 2114TIP3   OH2 6305   4.220   5.017   0.149
 2114TIP3    H1 6306   4.157   5.011   0.221
 2114TIP3    H2 6307   4.262   5.102   0.160
 2115TIP3   OH2 6308   3.482   0.005   3.845
 2115TIP3    H1 6309   3.509   0.015   3.754
 2115TIP3    H2 6310   3.387   0.019   3.843
 2116TIP3   OH2 6311   3.455   1.730   5.771
 2116TIP3    H1 6312   3.418   1.716   5.858
 2116TIP3    H2 6313   3.438   1.648   5.724
 2117TIP3   OH2 6314   1.174   2.654   5.664
 2117TIP3    H1 6315   1.225   2.650   5.583
 2117TIP3    H2 6316   1.175   2.747   5.688
 2118TIP3   OH2 6317   4.413   0.291   4.717
 2118TIP3    H1 6318   4.372   0.372   4.684
 2118TIP3    H2 6319   4.359   0.221   4.680
 2119TIP3   OH2 6320   5.443   4.548   2.911
 2119TIP3    H1 6321   5.447   4.559   2.816
 2119TIP3    H2 6322   5.350   4.534   2.929
 2120TIP3   OH2 6323   5.241   2.396   1.285
 2120TIP3    H1 6324   5.321   2.349   1.309
 2120TIP3    H2 6325   5.266   2.488   1.288
 2121TIP3   OH2 6326   4.452   1.049   4.342
 2121TIP3    H1 6327   4.527   1.100   4.372
 2121TIP3    H2 6328   4.489   0.980   4.287
 2122TIP3   OH2 6329   5.260   3.401   4.956
 2122TIP3    H1 6330   5.319   3.452   4.901
 2122TIP3    H2 6331   5.272   3.311   4.927
 2123TIP3   OH2 6332   7.113   4.902   3.409
 2123TIP3    H1 6333   7.199   4.882   3.446
 2123TIP3    H2 6334   7.060   4.825   3.429
 2124TIP3   OH2 6335   0.558   6.161   4.023
 2124TIP3    H1 6336   0.474   6.186   3.984
 2124TIP3    H2 6337   0.621   6.167   3.951
 2125TIP3   OH2 6338   3.953   0.914   3.318
 2125TIP3    H1 6339   3.902   0.834   3.329
 2125TIP3    H2 6340   3.946   0.935   3.225
 2126TIP3   OH2 6341   2.110   6.515   1.051
 2126TIP3    H1 6342   2.118   6.522   0.956
 2126TIP3    H2 6343   2.093   6.604   1.081
 2127TIP3   OH2 6344   1.919   5.739   2.222
 2127TIP3    H1 6345   1.861   5.776   2.289
 2127TIP3    H2 6346   1.963   5.666   2.266
 2128TIP3   OH2 6347   2.204   6.134   4.516
 2128TIP3    H1 6348   2.177   6.087   4.595
 2128TIP3    H2 6349   2.298   6.148   4.528
 2129TIP3   OH2 6350   1.198   6.255   0.086
 2129TIP3    H1 6351   1.106   6.261   0.058
 2129TIP3    H2 6352   1.248   6.271   0.006
 2130TIP3   OH2 6353   4.792   0.867   1.415
 2130TIP3    H1 6354   4.863   0.929   1.434
 2130TIP3    H2 6355   4.760   0.841   1.501
 2131TIP3   OH2 6356   2.983   6.136   2.161
 2131TIP3    H1 6357   3.024   6.176   2.084
 2131TIP3    H2 6358   2.936   6.060   2.126
 2132TIP3   OH2 6359   2.002   1.855   4.114
 2132TIP3    H1 6360   2.002   1.945   4.079
 2132TIP3    H2 6361   1.911   1.838   4.137
 2133TIP3   OH2 6362   1.549   6.237   5.525
 2133TIP3    H1 6363   1.561   6.261   5.617
 2133TIP3    H2 6364   1.488   6.163   5.527
 2134TIP3   OH2 6365   4.262   2.832   0.589
 2134TIP3    H1 6366   4.192   2.799   0.645
 2134TIP3    H2 6367   4.343   2.801   0.630
 2135TIP3   OH2 6368   4.148   1.839   0.309
 2135TIP3    H1 6369   4.146   1.855   0.215
 2135TIP3    H2 6370   4.221   1.892   0.341
 2136TIP3   OH2 6371   6.066   5.312   2.709
 2136TIP3    H1 6372   6.062   5.374   2.636
 2136TIP3    H2 6373   6.118   5.240   2.675
 2137TIP3   OH2 6374   1.278   3.013   3.938
 2137TIP3    H1 6375   1.268   3.006   4.033
 2137TIP3    H2 6376   1.371   3.030   3.925
 2138TIP3   OH2 6377   3.324   6.596   5.770
 2138TIP3    H1 6378   3.367   6.659   5.828
 2138TIP3    H2 6379   3.233   6.596   5.799
 2139TIP3   OH2 6380   0.136   1.264   3.683
 2139TIP3    H1 6381   0.172   1.221   3.606
 2139TIP3    H2 6382   0.096   1.344   3.650
 2140TIP3   OH2 6383   1.952   3.000  -0.009
 2140TIP3    H1 6384   1.954   3.043   0.076
 2140TIP3    H2 6385   1.884   2.933  -0.001
 2141TIP3   OH2 6386   0.785   2.064   2.680
 2141TIP3    H1 6387   0.711   2.021   2.722
 2141TIP3    H2 6388   0.838   1.993   2.645
 2142TIP3   OH2 6389   5.241   0.318   3.995
 2142TIP3    H1 6390   5.299   0.307   3.920
 2142TIP3    H2 6391   5.214   0.229   4.017
 2143TIP3   OH2 6392   4.518   5.885   2.552
 2143TIP3    H1 6393   4.516   5.789   2.555
 2143TIP3    H2 6394   4.427   5.911   2.565
 2144TIP3   OH2 6395   6.996   5.408   1.026
 2144TIP3    H1 6396   6.902   5.418   1.010
 2144TIP3    H2 6397   7.025   5.495   1.056
 2145TIP3   OH2 6398   2.035   6.212   0.923
 2145TIP3    H1 6399   1.956   6.193   0.872
 2145TIP3    H2 6400   2.046   6.307   0.916
 2146TIP3   OH2 6401   3.735   2.280   4.729
 2146TIP3    H1 6402   3.648   2.320   4.730
 2146TIP3    H2 6403   3.743   2.237   4.814
 2147TIP3   OH2 6404   1.988   0.177   4.560
 2147TIP3    H1 6405   2.073   0.134   4.562
 2147TIP3    H2 6406   1.982   0.214   4.472
 2148TIP3   OH2 6407   6.856   6.357   1.023
 2148TIP3    H1 6408   6.910   6.429   1.055
 2148TIP3    H2 6409   6.806   6.328   1.100
 2149TIP3   OH2 6410   4.781   0.596   0.526
 2149TIP3    H1 6411   4.711   0.658   0.509
 2149TIP3    H2 6412   4.810   0.567   0.439
 2150TIP3   OH2 6413   6.272   6.359   2.295
 2150TIP3    H1 6414   6.359   6.322   2.283
 2150TIP3    H2 6415   6.274   6.441   2.245
 2151TIP3   OH2 6416   7.092   1.273   3.084
 2151TIP3    H1 6417   7.035   1.214   3.134
 2151TIP3    H2 6418   7.178   1.232   3.088
 2152TIP3   OH2 6419   4.095   1.665   1.823
 2152TIP3    H1 6420   4.167   1.606   1.804
 2152TIP3    H2 6421   4.136   1.743   1.860
 2153TIP3   OH2 6422   6.425   5.478   3.237
 2153TIP3    H1 6423   6.483   5.550   3.212
 2153TIP3    H2 6424   6.453   5.404   3.183
 2154TIP3   OH2 6425   6.328   4.436   3.606
 2154TIP3    H1 6426   6.412   4.428   3.559
 2154TIP3    H2 6427   6.281   4.355   3.585
 2155TIP3   OH2 6428   6.821   4.143   4.724
 2155TIP3    H1 6429   6.913   4.152   4.749
 2155TIP3    H2 6430   6.823   4.133   4.629
 2156TIP3   OH2 6431   6.199   6.227   4.656
 2156TIP3    H1 6432   6.279   6.192   4.696
 2156TIP3    H2 6433   6.229   6.276   4.580
 2157TIP3   OH2 6434   2.655   0.876   0.798
 2157TIP3    H1 6435   2.612   0.809   0.746
 2157TIP3    H2 6436   2.583   0.926   0.837
 2158TIP3   OH2 6437   1.360   6.482   2.370
 2158TIP3    H1 6438   1.363   6.501   2.463
 2158TIP3    H2 6439   1.448   6.451   2.348
 2159TIP3   OH2 6440   4.897   0.463   4.500
 2159TIP3    H1 6441   4.854   0.547   4.483
 2159TIP3    H2 6442   4.931   0.436   4.414
 2160TIP3   OH2 6443   3.978   2.067   0.650
 2160TIP3    H1 6444   4.055   2.025   0.686
 2160TIP3    H2 6445   3.914   2.067   0.722
 2161TIP3   OH2 6446   4.174   5.210   4.086
 2161TIP3    H1 6447   4.139   5.227   4.173
 2161TIP3    H2 6448   4.109   5.246   4.026
 2162TIP3   OH2 6449   6.612   0.987   0.430
 2162TIP3    H1 6450   6.627   0.968   0.337
 2162TIP3    H2 6451   6.559   1.067   0.429
 2163TIP3   OH2 6452   1.341   2.667   3.063
 2163TIP3    H1 6453   1.406   2.699   2.999
 2163TIP3    H2 6454   1.265   2.724   3.050
 2164TIP3   OH2 6455   0.749   1.164   0.717
 2164TIP3    H1 6456   0.801   1.086   0.735
 2164TIP3    H2 6457   0.683   1.135   0.654
 2165TIP3   OH2 6458   6.409   1.956   5.728
 2165TIP3    H1 6459   6.371   1.995   5.807
 2165TIP3    H2 6460   6.497   1.928   5.755
 2166TIP3   OH2 6461   3.359   1.706   3.560
 2166TIP3    H1 6462   3.378   1.685   3.469
 2166TIP3    H2 6463   3.266   1.688   3.571
 2167TIP3   OH2 6464   2.337   5.761   2.631
 2167TIP3    H1 6465   2.390   5.736   2.707
 2167TIP3    H2 6466   2.328   5.681   2.581
 2168TIP3   OH2 6467   3.623   0.574   0.507
 2168TIP3    H1 6468   3.644   0.483   0.529
 2168TIP3    H2 6469   3.530   0.573   0.486
 2169TIP3   OH2 6470   5.500   0.454   4.745
 2169TIP3    H1 6471   5.493   0.421   4.834
 2169TIP3    H2 6472   5.590   0.434   4.718
 2170TIP3   OH2 6473   2.586   4.926   0.271
 2170TIP3    H1 6474   2.644   5.001   0.278
 2170TIP3    H2 6475   2.610   4.885   0.188
 2171TIP3   OH2 6476   2.054   5.783   3.542
 2171TIP3    H1 6477   2.057   5.708   3.483
 2171TIP3    H2 6478   2.046   5.744   3.629
 2172TIP3   OH2 6479   6.513   1.862   4.599
 2172TIP3    H1 6480   6.566   1.790   4.565
 2172TIP3    H2 6481   6.572   1.938   4.597
 2173TIP3   OH2 6482   2.444   5.305   0.914
 2173TIP3    H1 6483   2.525   5.355   0.900
 2173TIP3    H2 6484   2.434   5.301   1.009
 2174TIP3   OH2 6485   6.236   2.448   2.789
 2174TIP3    H1 6486   6.327   2.428   2.766
 2174TIP3    H2 6487   6.194   2.363   2.798
 2175TIP3   OH2 6488   4.528   5.044   5.123
 2175TIP3    H1 6489   4.599   5.005   5.173
 2175TIP3    H2 6490   4.537   5.138   5.137
 2176TIP3   OH2 6491   0.007   1.069   1.038
 2176TIP3    H1 6492   0.099   1.091   1.020
 2176TIP3    H2 6493  -0.030   1.050   0.952
 2177TIP3   OH2 6494   0.842   5.012   2.971
 2177TIP3    H1 6495   0.758   5.045   2.942
 2177TIP3    H2 6496   0.843   4.920   2.944
 2178TIP3   OH2 6497   2.074   1.299   2.534
 2178TIP3    H1 6498   2.153   1.347   2.510
 2178TIP3    H2 6499   2.010   1.367   2.556
 2179TIP3   OH2 6500   7.171   4.068   5.836
 2179TIP3    H1 6501   7.089   4.044   5.880
 2179TIP3    H2 6502   7.182   4.001   5.769
 2180TIP3   OH2 6503   2.638   0.493   5.429
 2180TIP3    H1 6504   2.598   0.413   5.395
 2180TIP3    H2 6505   2.599   0.504   5.516
 2181TIP3   OH2 6506   6.699   2.638   1.136
 2181TIP3    H1 6507   6.740   2.668   1.056
 2181TIP3    H2 6508   6.678   2.718   1.184
 2182TIP3   OH2 6509   5.735   5.942   4.068
 2182TIP3    H1 6510   5.679   5.962   3.993
 2182TIP3    H2 6511   5.715   5.851   4.089
 2183TIP3   OH2 6512   4.182   3.093   4.355
 2183TIP3    H1 6513   4.089   3.084   4.379
 2183TIP3    H2 6514   4.229   3.074   4.435
 2184TIP3   OH2 6515   4.699   2.687   1.074
 2184TIP3    H1 6516   4.771   2.677   1.013
 2184TIP3    H2 6517   4.692   2.602   1.117
 2185TIP3   OH2 6518   4.408   1.022   5.092
 2185TIP3    H1 6519   4.467   1.077   5.041
 2185TIP3    H2 6520   4.397   0.943   5.040
 2186TIP3   OH2 6521   0.715   1.304   5.022
 2186TIP3    H1 6522   0.810   1.299   5.016
 2186TIP3    H2 6523   0.698   1.321   5.115
 2187TIP3   OH2 6524   4.864   6.195   5.009
 2187TIP3    H1 6525   4.773   6.179   5.033
 2187TIP3    H2 6526   4.861   6.219   4.917
 2188TIP3   OH2 6527   4.563   2.626   0.497
 2188TIP3    H1 6528   4.616   2.648   0.574
 2188TIP3    H2 6529   4.509   2.553   0.526
 2189TIP3   OH2 6530   1.974   0.312   0.822
 2189TIP3    H1 6531   2.037   0.341   0.756
 2189TIP3    H2 6532   1.998   0.362   0.900
 2190TIP3   OH2 6533   1.224   5.535   1.062
 2190TIP3    H1 6534   1.268   5.478   1.126
 2190TIP3    H2 6535   1.222   5.621   1.104
 2191TIP3   OH2 6536   1.269   1.576   4.558
 2191TIP3    H1 6537   1.227   1.491   4.573
 2191TIP3    H2 6538   1.209   1.640   4.597
 2192TIP3   OH2 6539   6.213   6.358   2.011
 2192TIP3    H1 6540   6.169   6.435   2.045
 2192TIP3    H2 6541   6.148   6.288   2.016
 2193TIP3   OH2 6542   2.312   3.019   5.133
 2193TIP3    H1 6543   2.326   2.934   5.091
 2193TIP3    H2 6544   2.339   3.083   5.067
 2194TIP3   OH2 6545   2.647   2.562   5.628
 2194TIP3    H1 6546   2.563   2.528   5.596
 2194TIP3    H2 6547   2.671   2.630   5.565
 2195TIP3   OH2 6548   1.082   0.140   2.407
 2195TIP3    H1 6549   1.072   0.065   2.348
 2195TIP3    H2 6550   0.992   0.162   2.433
 2196TIP3   OH2 6551   6.990   0.482   0.112
 2196TIP3    H1 6552   6.986   0.515   0.023
 2196TIP3    H2 6553   6.967   0.557   0.167
 2197TIP3   OH2 6554   5.257   3.415   2.143
 2197TIP3    H1 6555   5.225   3.492   2.096
 2197TIP3    H2 6556   5.329   3.448   2.197
 2198TIP3   OH2 6557   4.707   5.597   0.831
 2198TIP3    H1 6558   4.779   5.660   0.839
 2198TIP3    H2 6559   4.654   5.631   0.759
 2199TIP3   OH2 6560   2.457   1.635   3.649
 2199TIP3    H1 6561   2.516   1.592   3.711
 2199TIP3    H2 6562   2.482   1.728   3.653
 2200TIP3   OH2 6563   0.057   6.150   3.455
 2200TIP3    H1 6564   0.078   6.070   3.504
 2200TIP3    H2 6565  -0.023   6.183   3.496
 2201TIP3   OH2 6566   3.780   2.518   2.628
 2201TIP3    H1 6567   3.692   2.513   2.592
 2201TIP3    H2 6568   3.836   2.477   2.561
 2202TIP3   OH2 6569   6.900   6.732   2.580
 2202TIP3    H1 6570   6.880   6.663   2.644
 2202TIP3    H2 6571   6.818   6.779   2.569
 2203TIP3   OH2 6572   2.244   4.073   4.749
 2203TIP3    H1 6573   2.209   3.984   4.740
 2203TIP3    H2 6574   2.240   4.091   4.843
 2204TIP3   OH2 6575   0.548   0.025   3.927
 2204TIP3    H1 6576   0.469   0.040   3.980
 2204TIP3    H2 6577   0.608   0.094   3.955
 2205TIP3   OH2 6578   2.419   5.774   4.327
 2205TIP3    H1 6579   2.364   5.712   4.373
 2205TIP3    H2 6580   2.496   5.785   4.383
 2206TIP3   OH2 6581   5.168   6.535   1.068
 2206TIP3    H1 6582   5.237   6.590   1.033
 2206TIP3    H2 6583   5.205   6.447   1.071
 2207TIP3   OH2 6584   2.496   4.055   3.236
 2207TIP3    H1 6585   2.548   4.108   3.296
 2207TIP3    H2 6586   2.411   4.047   3.280
 2208TIP3   OH2 6587   2.297   4.039   5.480
 2208TIP3    H1 6588   2.338   3.968   5.430
 2208TIP3    H2 6589   2.360   4.061   5.548
 2209TIP3   OH2 6590   2.037   4.706   5.208
 2209TIP3    H1 6591   2.043   4.610   5.213
 2209TIP3    H2 6592   2.079   4.728   5.126
 2210TIP3   OH2 6593   1.847   3.701   1.006
 2210TIP3    H1 6594   1.798   3.640   1.062
 2210TIP3    H2 6595   1.934   3.704   1.044
 2211TIP3   OH2 6596   5.862   0.803   0.985
 2211TIP3    H1 6597   5.807   0.734   0.948
 2211TIP3    H2 6598   5.832   0.812   1.075
 2212TIP3   OH2 6599   1.428   5.333   4.854
 2212TIP3    H1 6600   1.355   5.327   4.792
 2212TIP3    H2 6601   1.468   5.418   4.837
 2213TIP3   OH2 6602   1.419   5.387   5.502
 2213TIP3    H1 6603   1.405   5.382   5.597
 2213TIP3    H2 6604   1.474   5.465   5.491
 2214TIP3   OH2 6605   0.888   1.486   0.770
 2214TIP3    H1 6606   0.971   1.440   0.757
 2214TIP3    H2 6607   0.900   1.570   0.726
 2215TIP3   OH2 6608   6.061   2.579   3.044
 2215TIP3    H1 6609   5.981   2.527   3.048
 2215TIP3    H2 6610   6.075   2.610   3.133
 2216TIP3   OH2 6611   7.037   1.449   1.750
 2216TIP3    H1 6612   6.959   1.427   1.801
 2216TIP3    H2 6613   7.105   1.466   1.817
 2217TIP3   OH2 6614   5.132   5.421   5.775
 2217TIP3    H1 6615   5.180   5.469   5.707
 2217TIP3    H2 6616   5.086   5.352   5.727
 2218TIP3   OH2 6617   4.843   3.370   1.201
 2218TIP3    H1 6618   4.906   3.423   1.250
 2218TIP3    H2 6619   4.827   3.294   1.258
 2219TIP3   OH2 6620   1.545   2.543   0.248
 2219TIP3    H1 6621   1.485   2.612   0.220
 2219TIP3    H2 6622   1.581   2.507   0.166
 2220TIP3   OH2 6623   1.437   3.147   1.571
 2220TIP3    H1 6624   1.477   3.191   1.496
 2220TIP3    H2 6625   1.468   3.057   1.564
 2221TIP3   OH2 6626   6.832   5.493   0.669
 2221TIP3    H1 6627   6.916   5.536   0.652
 2221TIP3    H2 6628   6.849   5.439   0.747
 2222TIP3   OH2 6629   7.073   4.825   5.414
 2222TIP3    H1 6630   7.012   4.891   5.380
 2222TIP3    H2 6631   7.030   4.792   5.492
 2223TIP3   OH2 6632   4.702   4.857   0.625
 2223TIP3    H1 6633   4.650   4.778   0.637
 2223TIP3    H2 6634   4.639   4.924   0.601
 2224TIP3   OH2 6635   3.643   1.965   5.669
 2224TIP3    H1 6636   3.581   1.907   5.713
 2224TIP3    H2 6637   3.698   2.000   5.739
 2225TIP3   OH2 6638   1.950   1.687   5.487
 2225TIP3    H1 6639   1.984   1.625   5.423
 2225TIP3    H2 6640   1.912   1.631   5.555
 2226TIP3   OH2 6641   2.227   5.651   1.486
 2226TIP3    H1 6642   2.234   5.728   1.542
 2226TIP3    H2 6643   2.215   5.578   1.546
 2227TIP3   OH2 6644   3.232   2.515   1.061
 2227TIP3    H1 6645   3.242   2.483   1.150
 2227TIP3    H2 6646   3.314   2.559   1.041
 2228TIP3   OH2 6647   6.599   5.696   3.204
 2228TIP3    H1 6648   6.579   5.788   3.221
 2228TIP3    H2 6649   6.631   5.662   3.288
 2229TIP3   OH2 6650   0.522   0.560   5.843
 2229TIP3    H1 6651   0.543   0.620   5.771
 2229TIP3    H2 6652   0.541   0.473   5.808
 2230TIP3   OH2 6653   5.943   6.578   5.022
 2230TIP3    H1 6654   6.035   6.590   5.044
 2230TIP3    H2 6655   5.895   6.621   5.093
 2231TIP3   OH2 6656   1.839   6.335   4.643
 2231TIP3    H1 6657   1.897   6.284   4.700
 2231TIP3    H2 6658   1.881   6.421   4.637
 2232TIP3   OH2 6659   0.590   3.496   2.323
 2232TIP3    H1 6660   0.571   3.589   2.309
 2232TIP3    H2 6661   0.670   3.480   2.273
 2233TIP3   OH2 6662   4.705   3.957   5.513
 2233TIP3    H1 6663   4.729   3.884   5.570
 2233TIP3    H2 6664   4.670   3.915   5.434
 2234TIP3   OH2 6665   0.170   4.027   0.431
 2234TIP3    H1 6666   0.249   4.030   0.486
 2234TIP3    H2 6667   0.120   3.953   0.465
 2235TIP3   OH2 6668   6.953   1.525   0.255
 2235TIP3    H1 6669   6.882   1.537   0.318
 2235TIP3    H2 6670   7.021   1.587   0.284
 2236TIP3   OH2 6671   4.543   3.181   0.462
 2236TIP3    H1 6672   4.538   3.273   0.489
 2236TIP3    H2 6673   4.490   3.134   0.527
 2237TIP3   OH2 6674   5.466  -0.032   5.846
 2237TIP3    H1 6675   5.378   0.004   5.846
 2237TIP3    H2 6676   5.510   0.013   5.919
 2238TIP3   OH2 6677   1.920   5.277   3.234
 2238TIP3    H1 6678   1.838   5.271   3.184
 2238TIP3    H2 6679   1.958   5.190   3.229
 2239TIP3   OH2 6680   5.085   0.845   5.234
 2239TIP3    H1 6681   5.058   0.919   5.179
 2239TIP3    H2 6682   5.029   0.773   5.207
 2240TIP3   OH2 6683   6.791   6.348   5.049
 2240TIP3    H1 6684   6.744   6.395   5.118
 2240TIP3    H2 6685   6.883   6.350   5.077
 2241TIP3   OH2 6686   2.966   1.696   1.529
 2241TIP3    H1 6687   3.028   1.654   1.589
 2241TIP3    H2 6688   2.883   1.696   1.577
 2242TIP3   OH2 6689   4.530   1.525   3.237
 2242TIP3    H1 6690   4.586   1.603   3.241
 2242TIP3    H2 6691   4.537   1.486   3.324
 2243TIP3   OH2 6692   3.672   5.304   4.046
 2243TIP3    H1 6693   3.616   5.285   3.971
 2243TIP3    H2 6694   3.748   5.349   4.009
 2244TIP3   OH2 6695   5.841   2.513   0.623
 2244TIP3    H1 6696   5.920   2.520   0.569
 2244TIP3    H2 6697   5.769   2.507   0.560
 2245TIP3   OH2 6698   4.276   6.416   4.978
 2245TIP3    H1 6699   4.251   6.477   4.908
 2245TIP3    H2 6700   4.236   6.333   4.953
 2246TIP3   OH2 6701   3.577   5.786   4.956
 2246TIP3    H1 6702   3.555   5.693   4.953
 2246TIP3    H2 6703   3.539   5.817   5.039
 2247TIP3   OH2 6704   0.625   2.818   4.852
 2247TIP3    H1 6705   0.577   2.763   4.914
 2247TIP3    H2 6706   0.558   2.876   4.815
 2248TIP3   OH2 6707   3.653   1.615   5.607
 2248TIP3    H1 6708   3.746   1.596   5.620
 2248TIP3    H2 6709   3.626   1.658   5.688
 2249TIP3   OH2 6710   6.870   4.205   3.831
 2249TIP3    H1 6711   6.867   4.171   3.920
 2249TIP3    H2 6712   6.778   4.207   3.803
 2250TIP3   OH2 6713   3.553   4.102   0.966
 2250TIP3    H1 6714   3.541   4.195   0.987
 2250TIP3    H2 6715   3.554   4.058   1.051
 2251TIP3   OH2 6716   5.200   3.122   0.919
 2251TIP3    H1 6717   5.201   3.141   0.825
 2251TIP3    H2 6718   5.109   3.133   0.944
 2252TIP3   OH2 6719   5.557   0.973   4.425
 2252TIP3    H1 6720   5.592   0.916   4.357
 2252TIP3    H2 6721   5.583   0.931   4.507
 2253TIP3   OH2 6722   6.308   3.113   4.052
 2253TIP3    H1 6723   6.403   3.103   4.052
 2253TIP3    H2 6724   6.278   3.060   4.125
 2254TIP3   OH2 6725   7.162   0.826   0.847
 2254TIP3    H1 6726   7.166   0.788   0.934
 2254TIP3    H2 6727   7.227   0.897   0.849
 2255TIP3   OH2 6728   4.948   4.924   0.227
 2255TIP3    H1 6729   4.919   4.960   0.142
 2255TIP3    H2 6730   5.043   4.937   0.227
 2256TIP3   OH2 6731   0.724   1.553   3.045
 2256TIP3    H1 6732   0.668   1.535   2.969
 2256TIP3    H2 6733   0.664   1.545   3.120
 2257TIP3   OH2 6734   2.224   0.022   3.255
 2257TIP3    H1 6735   2.225  -0.036   3.331
 2257TIP3    H2 6736   2.251   0.107   3.289
 2258TIP3   OH2 6737   6.517   3.109   5.238
 2258TIP3    H1 6738   6.490   3.105   5.330
 2258TIP3    H2 6739   6.577   3.036   5.227
 2259TIP3   OH2 6740   6.583   3.460   4.211
 2259TIP3    H1 6741   6.672   3.426   4.200
 2259TIP3    H2 6742   6.557   3.431   4.299
 2260TIP3   OH2 6743   2.235   0.010   2.049
 2260TIP3    H1 6744   2.151  -0.012   2.008
 2260TIP3    H2 6745   2.211   0.040   2.136
 2261TIP3   OH2 6746   2.621   3.612   3.010
 2261TIP3    H1 6747   2.597   3.519   3.007
 2261TIP3    H2 6748   2.591   3.642   3.095
 2262TIP3   OH2 6749   1.358   5.640   4.331
 2262TIP3    H1 6750   1.403   5.624   4.248
 2262TIP3    H2 6751   1.428   5.647   4.396
 2263TIP3   OH2 6752   0.784   2.602   2.214
 2263TIP3    H1 6753   0.691   2.600   2.192
 2263TIP3    H2 6754   0.813   2.689   2.185
 2264TIP3   OH2 6755   5.762   6.400   4.882
 2264TIP3    H1 6756   5.833   6.461   4.903
 2264TIP3    H2 6757   5.725   6.375   4.967
 2265TIP3   OH2 6758   3.646   2.715   1.347
 2265TIP3    H1 6759   3.638   2.809   1.363
 2265TIP3    H2 6760   3.619   2.673   1.429
 2266TIP3   OH2 6761   3.983   3.296   2.399
 2266TIP3    H1 6762   4.048   3.253   2.345
 2266TIP3    H2 6763   3.958   3.231   2.465
 2267TIP3   OH2 6764   4.136   0.385   2.422
 2267TIP3    H1 6765   4.138   0.362   2.329
 2267TIP3    H2 6766   4.053   0.350   2.455
 2268TIP3   OH2 6767   0.831   6.141   3.024
 2268TIP3    H1 6768   0.810   6.225   2.984
 2268TIP3    H2 6769   0.754   6.120   3.077
 2269TIP3   OH2 6770   6.414   2.507   2.188
 2269TIP3    H1 6771   6.388   2.416   2.175
 2269TIP3    H2 6772   6.360   2.538   2.260
 2270TIP3   OH2 6773   4.456   3.826   4.766
 2270TIP3    H1 6774   4.367   3.817   4.732
 2270TIP3    H2 6775   4.511   3.833   4.688
 2271TIP3   OH2 6776   0.488   6.058   1.167
 2271TIP3    H1 6777   0.471   5.964   1.172
 2271TIP3    H2 6778   0.583   6.066   1.169
 2272TIP3   OH2 6779   6.753   4.753   1.370
 2272TIP3    H1 6780   6.822   4.740   1.435
 2272TIP3    H2 6781   6.688   4.808   1.414
 2273TIP3   OH2 6782   2.331   4.170   3.491
 2273TIP3    H1 6783   2.244   4.134   3.475
 2273TIP3    H2 6784   2.329   4.256   3.449
 2274TIP3   OH2 6785   5.962   3.619   4.293
 2274TIP3    H1 6786   5.956   3.708   4.329
 2274TIP3    H2 6787   6.021   3.573   4.353
 2275TIP3   OH2 6788   3.159   0.044   4.484
 2275TIP3    H1 6789   3.217   0.101   4.433
 2275TIP3    H2 6790   3.136  -0.027   4.423
 2276TIP3   OH2 6791   3.126   4.031   5.863
 2276TIP3    H1 6792   3.078   4.084   5.927
 2276TIP3    H2 6793   3.178   4.095   5.814
 2277TIP3   OH2 6794   0.786   3.222   3.024
 2277TIP3    H1 6795   0.764   3.156   3.089
 2277TIP3    H2 6796   0.804   3.301   3.074
 2278TIP3   OH2 6797   5.577   2.624   3.543
 2278TIP3    H1 6798   5.591   2.529   3.540
 2278TIP3    H2 6799   5.624   2.657   3.467
 2279TIP3   OH2 6800   3.952   0.234   3.168
 2279TIP3    H1 6801   4.043   0.260   3.154
 2279TIP3    H2 6802   3.900   0.303   3.126
 2280TIP3   OH2 6803   0.484   1.979   0.291
 2280TIP3    H1 6804   0.519   2.050   0.344
 2280TIP3    H2 6805   0.529   1.986   0.207
 2281TIP3   OH2 6806   7.126   4.453   1.775
 2281TIP3    H1 6807   7.198   4.437   1.714
 2281TIP3    H2 6808   7.143   4.540   1.811
 2282TIP3   OH2 6809   5.783   6.601   3.720
 2282TIP3    H1 6810   5.805   6.607   3.627
 2282TIP3    H2 6811   5.732   6.680   3.737
 2283TIP3   OH2 6812   2.418   4.915   3.859
 2283TIP3    H1 6813   2.408   4.859   3.783
 2283TIP3    H2 6814   2.486   4.977   3.835
 2284TIP3   OH2 6815   3.767   2.230   2.461
 2284TIP3    H1 6816   3.857   2.220   2.490
 2284TIP3    H2 6817   3.772   2.285   2.383
 2285TIP3   OH2 6818   0.396   0.899   5.192
 2285TIP3    H1 6819   0.372   0.974   5.138
 2285TIP3    H2 6820   0.322   0.888   5.252
 2286TIP3   OH2 6821   1.243   1.008   5.028
 2286TIP3    H1 6822   1.281   1.081   4.979
 2286TIP3    H2 6823   1.303   0.935   5.012
 2287TIP3   OH2 6824   5.967   3.811   4.846
 2287TIP3    H1 6825   6.053   3.850   4.864
 2287TIP3    H2 6826   5.905   3.883   4.860
 2288TIP3   OH2 6827   0.034   2.322   0.611
 2288TIP3    H1 6828   0.061   2.246   0.663
 2288TIP3    H2 6829  -0.056   2.303   0.585
 2289TIP3   OH2 6830   6.970   4.295   2.906
 2289TIP3    H1 6831   6.878   4.320   2.918
 2289TIP3    H2 6832   6.974   4.263   2.816
 2290TIP3   OH2 6833   0.277   4.538   4.938
 2290TIP3    H1 6834   0.215   4.571   4.873
 2290TIP3    H2 6835   0.263   4.592   5.015
 2291TIP3   OH2 6836   6.446   1.070   5.636
 2291TIP3    H1 6837   6.466   0.991   5.687
 2291TIP3    H2 6838   6.411   1.037   5.553
 2292TIP3   OH2 6839   5.801   5.343   1.219
 2292TIP3    H1 6840   5.719   5.329   1.267
 2292TIP3    H2 6841   5.805   5.271   1.157
 2293TIP3   OH2 6842   0.244   2.749   1.886
 2293TIP3    H1 6843   0.163   2.740   1.937
 2293TIP3    H2 6844   0.214   2.766   1.797
 2294TIP3   OH2 6845   1.734   4.628   0.462
 2294TIP3    H1 6846   1.803   4.571   0.496
 2294TIP3    H2 6847   1.728   4.698   0.528
 2295TIP3   OH2 6848   0.812   1.337   3.699
 2295TIP3    H1 6849   0.788   1.271   3.634
 2295TIP3    H2 6850   0.850   1.409   3.648
 2296TIP3   OH2 6851   6.311   4.734   1.342
 2296TIP3    H1 6852   6.243   4.784   1.386
 2296TIP3    H2 6853   6.325   4.779   1.259
 2297TIP3   OH2 6854   2.027   1.960   1.214
 2297TIP3    H1 6855   2.083   1.893   1.253
 2297TIP3    H2 6856   2.034   2.034   1.274
 2298TIP3   OH2 6857   7.145   1.088   3.579
 2298TIP3    H1 6858   7.202   1.097   3.503
 2298TIP3    H2 6859   7.180   1.150   3.643
 2299TIP3   OH2 6860   0.565   1.756   2.073
 2299TIP3    H1 6861   0.658   1.732   2.073
 2299TIP3    H2 6862   0.524   1.696   2.010
 2300TIP3   OH2 6863   1.843   2.413   3.717
 2300TIP3    H1 6864   1.817   2.323   3.694
 2300TIP3    H2 6865   1.813   2.466   3.643
 2301TIP3   OH2 6866   7.062   5.856   3.693
 2301TIP3    H1 6867   7.115   5.777   3.703
 2301TIP3    H2 6868   7.123   5.928   3.713
 2302TIP3   OH2 6869   1.994   5.221   0.758
 2302TIP3    H1 6870   2.088   5.221   0.778
 2302TIP3    H2 6871   1.989   5.244   0.666
 2303TIP3   OH2 6872   3.539   4.565   3.908
 2303TIP3    H1 6873   3.536   4.535   3.999
 2303TIP3    H2 6874   3.452   4.602   3.892
 2304TIP3   OH2 6875   0.543   6.009   4.920
 2304TIP3    H1 6876   0.563   6.074   4.988
 2304TIP3    H2 6877   0.627   5.968   4.901
 2305TIP3   OH2 6878   6.235   0.972   3.112
 2305TIP3    H1 6879   6.303   0.906   3.100
 2305TIP3    H2 6880   6.266   1.048   3.062
 2306TIP3   OH2 6881   6.929  -0.012   3.724
 2306TIP3    H1 6882   7.022  -0.027   3.741
 2306TIP3    H2 6883   6.924   0.013   3.631
 2307TIP3   OH2 6884   3.530   3.132   1.939
 2307TIP3    H1 6885   3.534   3.103   2.030
 2307TIP3    H2 6886   3.472   3.209   1.941
 2308TIP3   OH2 6887   3.230   6.662   4.248
 2308TIP3    H1 6888   3.157   6.698   4.297
 2308TIP3    H2 6889   3.193   6.638   4.163
 2309TIP3   OH2 6890   4.063   0.470   1.760
 2309TIP3    H1 6891   4.051   0.420   1.679
 2309TIP3    H2 6892   3.985   0.451   1.812
 2310TIP3   OH2 6893   4.356   4.334   2.535
 2310TIP3    H1 6894   4.436   4.383   2.552
 2310TIP3    H2 6895   4.286   4.396   2.552
 2311TIP3   OH2 6896   5.225   4.180   2.123
 2311TIP3    H1 6897   5.287   4.183   2.196
 2311TIP3    H2 6898   5.178   4.263   2.130
 2312TIP3   OH2 6899   1.450   5.561   3.150
 2312TIP3    H1 6900   1.478   5.649   3.175
 2312TIP3    H2 6901   1.520   5.504   3.181
 2313TIP3   OH2 6902   6.425   0.751   0.234
 2313TIP3    H1 6903   6.501   0.804   0.212
 2313TIP3    H2 6904   6.353   0.791   0.186
 2314TIP3   OH2 6905   4.051   1.782   2.225
 2314TIP3    H1 6906   4.041   1.693   2.192
 2314TIP3    H2 6907   4.077   1.771   2.316
 2315TIP3   OH2 6908   3.552   2.503   4.696
 2315TIP3    H1 6909   3.464   2.486   4.730
 2315TIP3    H2 6910   3.561   2.598   4.699
 2316TIP3   OH2 6911   5.866   5.358   0.671
 2316TIP3    H1 6912   5.802   5.419   0.708
 2316TIP3    H2 6913   5.861   5.372   0.577
 2317TIP3   OH2 6914   0.211   2.378   1.781
 2317TIP3    H1 6915   0.264   2.457   1.770
 2317TIP3    H2 6916   0.243   2.338   1.862
 2318TIP3   OH2 6917   5.357   4.802   5.243
 2318TIP3    H1 6918   5.327   4.878   5.193
 2318TIP3    H2 6919   5.408   4.751   5.180
 2319TIP3   OH2 6920   5.941   3.121   0.328
 2319TIP3    H1 6921   5.908   3.206   0.299
 2319TIP3    H2 6922   5.867   3.062   0.320
 2320TIP3   OH2 6923   1.967   0.002   1.967
 2320TIP3    H1 6924   1.969   0.089   2.008
 2320TIP3    H2 6925   1.886   0.002   1.915
 2321TIP3   OH2 6926   3.666   1.000   2.487
 2321TIP3    H1 6927   3.672   0.915   2.443
 2321TIP3    H2 6928   3.750   1.009   2.533
 2322TIP3   OH2 6929   0.624   3.072   3.726
 2322TIP3    H1 6930   0.589   3.013   3.793
 2322TIP3    H2 6931   0.682   3.017   3.674
 2323TIP3   OH2 6932   3.834   1.647   2.995
 2323TIP3    H1 6933   3.740   1.636   2.986
 2323TIP3    H2 6934   3.871   1.561   2.975
 2324TIP3   OH2 6935   0.329   2.761   4.939
 2324TIP3    H1 6936   0.382   2.685   4.914
 2324TIP3    H2 6937   0.317   2.810   4.857
 2325TIP3   OH2 6938   6.119   5.265   1.428
 2325TIP3    H1 6939   6.184   5.254   1.498
 2325TIP3    H2 6940   6.035   5.264   1.473
 2326TIP3   OH2 6941   5.827   6.391   1.582
 2326TIP3    H1 6942   5.748   6.441   1.602
 2326TIP3    H2 6943   5.883   6.453   1.536
 2327TIP3   OH2 6944   6.757   2.789   4.111
 2327TIP3    H1 6945   6.832   2.798   4.051
 2327TIP3    H2 6946   6.701   2.724   4.070
 2328TIP3   OH2 6947   1.650   1.401   5.861
 2328TIP3    H1 6948   1.642   1.454   5.940
 2328TIP3    H2 6949   1.719   1.445   5.810
 2329TIP3   OH2 6950   5.544   4.959   5.655
 2329TIP3    H1 6951   5.546   4.879   5.708
 2329TIP3    H2 6952   5.519   5.028   5.716
 2330TIP3   OH2 6953   2.337   0.271   3.343
 2330TIP3    H1 6954   2.277   0.319   3.399
 2330TIP3    H2 6955   2.406   0.240   3.402
 2331TIP3   OH2 6956   0.857   4.544   4.749
 2331TIP3    H1 6957   0.799   4.472   4.775
 2331TIP3    H2 6958   0.917   4.505   4.685
 2332TIP3   OH2 6959   2.586   1.642   1.786
 2332TIP3    H1 6960   2.647   1.612   1.719
 2332TIP3    H2 6961   2.550   1.723   1.751
 2333TIP3   OH2 6962   2.108   4.780   4.040
 2333TIP3    H1 6963   2.035   4.747   4.092
 2333TIP3    H2 6964   2.076   4.776   3.950
 2334TIP3   OH2 6965   2.869   6.062   1.275
 2334TIP3    H1 6966   2.774   6.065   1.279
 2334TIP3    H2 6967   2.889   5.988   1.217
 2335TIP3   OH2 6968   0.742   3.665   1.560
 2335TIP3    H1 6969   0.725   3.572   1.543
 2335TIP3    H2 6970   0.837   3.672   1.564
 2336TIP3   OH2 6971   5.452   5.205   5.824
 2336TIP3    H1 6972   5.459   5.149   5.901
 2336TIP3    H2 6973   5.358   5.206   5.805
 2337TIP3   OH2 6974   3.862   2.611   2.894
 2337TIP3    H1 6975   3.888   2.519   2.906
 2337TIP3    H2 6976   3.801   2.609   2.821
 2338TIP3   OH2 6977   6.565   6.539   1.165
 2338TIP3    H1 6978   6.550   6.445   1.178
 2338TIP3    H2 6979   6.563   6.550   1.070
 2339TIP3   OH2 6980   1.327   3.411   4.748
 2339TIP3    H1 6981   1.359   3.501   4.739
 2339TIP3    H2 6982   1.236   3.419   4.776
 2340TIP3   OH2 6983   2.662   3.464   4.650
 2340TIP3    H1 6984   2.723   3.456   4.577
 2340TIP3    H2 6985   2.598   3.530   4.622
 2341TIP3   OH2 6986   6.252   2.955   3.015
 2341TIP3    H1 6987   6.307   2.901   3.071
 2341TIP3    H2 6988   6.179   2.980   3.071
 2342TIP3   OH2 6989   1.908   5.769   2.796
 2342TIP3    H1 6990   1.930   5.707   2.865
 2342TIP3    H2 6991   1.813   5.767   2.791
 2343TIP3   OH2 6992   1.846   3.745   4.429
 2343TIP3    H1 6993   1.790   3.765   4.504
 2343TIP3    H2 6994   1.787   3.705   4.365
 2344TIP3   OH2 6995   6.785   6.098   5.305
 2344TIP3    H1 6996   6.697   6.123   5.277
 2344TIP3    H2 6997   6.843   6.158   5.258
 2345TIP3   OH2 6998   4.373   6.782   0.022
 2345TIP3    H1 6999   4.447   6.842   0.011
 2345TIP3    H2 7000   4.412   6.701   0.055
 2346TIP3   OH2 7001   2.732   0.118   5.131
 2346TIP3    H1 7002   2.793   0.094   5.062
 2346TIP3    H2 7003   2.704   0.207   5.110
 2347TIP3   OH2 7004   1.649   3.654   4.258
 2347TIP3    H1 7005   1.681   3.666   4.169
 2347TIP3    H2 7006   1.599   3.572   4.255
 2348TIP3   OH2 7007   2.702   2.795  -0.036
 2348TIP3    H1 7008   2.760   2.871  -0.033
 2348TIP3    H2 7009   2.745   2.730   0.019
 2349TIP3   OH2 7010   3.227   2.453   0.131
 2349TIP3    H1 7011   3.131   2.458   0.125
 2349TIP3    H2 7012   3.252   2.389   0.065
 2350TIP3   OH2 7013   0.141   6.525   5.223
 2350TIP3    H1 7014   0.170   6.541   5.134
 2350TIP3    H2 7015   0.060   6.476   5.214
 2351TIP3   OH2 7016   3.465   3.214   1.007
 2351TIP3    H1 7017   3.407   3.260   1.069
 2351TIP3    H2 7018   3.527   3.281   0.978
 2352TIP3   OH2 7019   0.136   1.005   0.456
 2352TIP3    H1 7020   0.214   0.994   0.401
 2352TIP3    H2 7021   0.127   0.922   0.502
 2353TIP3   OH2 7022   5.763   6.198   1.384
 2353TIP3    H1 7023   5.818   6.243   1.448
 2353TIP3    H2 7024   5.753   6.261   1.313
 2354TIP3   OH2 7025   4.666   1.895   1.926
 2354TIP3    H1 7026   4.654   1.823   1.988
 2354TIP3    H2 7027   4.743   1.942   1.958
 2355TIP3   OH2 7028  -0.007   4.040   2.156
 2355TIP3    H1 7029   0.034   3.967   2.111
 2355TIP3    H2 7030   0.008   4.115   2.099
 2356TIP3   OH2 7031   5.974   0.544   0.051
 2356TIP3    H1 7032   5.918   0.605   0.099
 2356TIP3    H2 7033   5.937   0.458   0.070
 2357TIP3   OH2 7034   0.640   2.069   1.930
 2357TIP3    H1 7035   0.627   2.115   1.847
 2357TIP3    H2 7036   0.641   2.140   1.995
 2358TIP3   OH2 7037   0.433   2.720   2.876
 2358TIP3    H1 7038   0.429   2.780   2.951
 2358TIP3    H2 7039   0.413   2.634   2.914
 2359TIP3   OH2 7040   5.785   0.215   0.795
 2359TIP3    H1 7041   5.696   0.181   0.804
 2359TIP3    H2 7042   5.838   0.161   0.853
 2360TIP3   OH2 7043   3.198   3.835   5.522
 2360TIP3    H1 7044   3.191   3.740   5.519
 2360TIP3    H2 7045   3.292   3.852   5.520
 2361TIP3   OH2 7046   1.810   5.771   3.384
 2361TIP3    H1 7047   1.860   5.778   3.303
 2361TIP3    H2 7048   1.807   5.677   3.402
 2362TIP3   OH2 7049   7.143   6.534   3.161
 2362TIP3    H1 7050   7.103   6.620   3.171
 2362TIP3    H2 7051   7.076   6.473   3.192
 2363TIP3   OH2 7052   0.943   5.412   4.518
 2363TIP3    H1 7053   0.941   5.462   4.436
 2363TIP3    H2 7054   0.978   5.327   4.493
 2364TIP3   OH2 7055   1.262   1.226   1.966
 2364TIP3    H1 7056   1.266   1.275   1.884
 2364TIP3    H2 7057   1.352   1.228   1.999
 2365TIP3   OH2 7058   4.964   4.138   1.598
 2365TIP3    H1 7059   4.874   4.165   1.617
 2365TIP3    H2 7060   5.005   4.131   1.685
 2366TIP3   OH2 7061   2.890   0.548   1.494
 2366TIP3    H1 7062   2.842   0.515   1.417
 2366TIP3    H2 7063   2.943   0.473   1.523
 2367TIP3   OH2 7064   4.497   1.338   1.708
 2367TIP3    H1 7065   4.537   1.273   1.651
 2367TIP3    H2 7066   4.506   1.302   1.796
 2368TIP3   OH2 7067   5.418   5.029   1.077
 2368TIP3    H1 7068   5.444   5.106   1.026
 2368TIP3    H2 7069   5.402   4.961   1.011
 2369TIP3   OH2 7070   5.873   0.914   4.453
 2369TIP3    H1 7071   5.881   0.826   4.488
 2369TIP3    H2 7072   5.868   0.970   4.530
 2370TIP3   OH2 7073   6.760   5.435   4.652
 2370TIP3    H1 7074   6.768   5.512   4.596
 2370TIP3    H2 7075   6.751   5.470   4.741
 2371TIP3   OH2 7076   1.744   5.791   1.998
 2371TIP3    H1 7077   1.831   5.775   2.034
 2371TIP3    H2 7078   1.718   5.707   1.961
 2372TIP3   OH2 7079   1.835   6.292   3.585
 2372TIP3    H1 7080   1.747   6.329   3.596
 2372TIP3    H2 7081   1.828   6.203   3.619
 2373TIP3   OH2 7082   1.300   0.057   1.737
 2373TIP3    H1 7083   1.204   0.060   1.730
 2373TIP3    H2 7084   1.317   0.082   1.828
 2374TIP3   OH2 7085   0.169   3.105   5.545
 2374TIP3    H1 7086   0.246   3.091   5.602
 2374TIP3    H2 7087   0.169   3.029   5.487
 2375TIP3   OH2 7088   3.769   4.650   4.198
 2375TIP3    H1 7089   3.704   4.580   4.189
 2375TIP3    H2 7090   3.735   4.706   4.267
 2376TIP3   OH2 7091   5.010   3.877   3.936
 2376TIP3    H1 7092   4.989   3.959   3.889
 2376TIP3    H2 7093   4.996   3.898   4.028
 2377TIP3   OH2 7094   3.003   4.805   4.348
 2377TIP3    H1 7095   3.097   4.822   4.347
 2377TIP3    H2 7096   2.980   4.804   4.441
 2378TIP3   OH2 7097   2.821   5.240   2.755
 2378TIP3    H1 7098   2.736   5.265   2.792
 2378TIP3    H2 7099   2.885   5.287   2.808
 2379TIP3   OH2 7100   0.222   1.038   0.090
 2379TIP3    H1 7101   0.189   1.126   0.107
 2379TIP3    H2 7102   0.248   1.039  -0.002
 2380TIP3   OH2 7103   3.146   3.272   1.772
 2380TIP3    H1 7104   3.241   3.275   1.756
 2380TIP3    H2 7105   3.137   3.225   1.855
 2381TIP3   OH2 7106   6.265   2.904   4.218
 2381TIP3    H1 7107   6.180   2.888   4.260
 2381TIP3    H2 7108   6.285   2.822   4.173
 2382TIP3   OH2 7109   4.954   4.148   3.812
 2382TIP3    H1 7110   4.938   4.241   3.797
 2382TIP3    H2 7111   5.049   4.137   3.799
 2383TIP3   OH2 7112   1.233   5.662   0.242
 2383TIP3    H1 7113   1.193   5.604   0.306
 2383TIP3    H2 7114   1.180   5.652   0.163
 2384TIP3   OH2 7115   0.112   3.499   2.494
 2384TIP3    H1 7116   0.115   3.441   2.569
 2384TIP3    H2 7117   0.036   3.555   2.509
 2385TIP3   OH2 7118   5.000   1.337   0.444
 2385TIP3    H1 7119   5.000   1.300   0.532
 2385TIP3    H2 7120   4.918   1.387   0.439
 2386TIP3   OH2 7121   5.340   3.084   2.611
 2386TIP3    H1 7122   5.317   3.176   2.592
 2386TIP3    H2 7123   5.257   3.037   2.605
 2387TIP3   OH2 7124   2.818   1.153   1.839
 2387TIP3    H1 7125   2.749   1.158   1.905
 2387TIP3    H2 7126   2.826   1.060   1.819
 2388TIP3   OH2 7127   4.474   3.219   1.536
 2388TIP3    H1 7128   4.478   3.283   1.608
 2388TIP3    H2 7129   4.432   3.266   1.464
 2389TIP3   OH2 7130   6.842   5.119   0.798
 2389TIP3    H1 7131   6.932   5.128   0.767
 2389TIP3    H2 7132   6.838   5.174   0.877
 2390TIP3   OH2 7133   5.885   1.448   1.468
 2390TIP3    H1 7134   5.871   1.467   1.376
 2390TIP3    H2 7135   5.966   1.398   1.470
 2391TIP3   OH2 7136   5.525   0.761   2.722
 2391TIP3    H1 7137   5.480   0.826   2.777
 2391TIP3    H2 7138   5.606   0.742   2.768
 2392TIP3   OH2 7139   0.279   0.121   5.543
 2392TIP3    H1 7140   0.287   0.031   5.511
 2392TIP3    H2 7141   0.304   0.117   5.635
 2393TIP3   OH2 7142   0.465   0.335   0.195
 2393TIP3    H1 7143   0.380   0.301   0.168
 2393TIP3    H2 7144   0.465   0.427   0.168
 2394TIP3   OH2 7145   2.515   1.233   3.805
 2394TIP3    H1 7146   2.498   1.156   3.859
 2394TIP3    H2 7147   2.537   1.199   3.719
 2395TIP3   OH2 7148   5.113   4.611   5.279
 2395TIP3    H1 7149   5.122   4.576   5.368
 2395TIP3    H2 7150   5.134   4.704   5.288
 2396TIP3   OH2 7151   1.905   2.643   4.252
 2396TIP3    H1 7152   1.979   2.688   4.292
 2396TIP3    H2 7153   1.842   2.632   4.324
 2397TIP3   OH2 7154   6.461   1.672   3.994
 2397TIP3    H1 7155   6.503   1.711   3.917
 2397TIP3    H2 7156   6.368   1.690   3.983
 2398TIP3   OH2 7157   3.393   4.385   3.198
 2398TIP3    H1 7158   3.431   4.332   3.128
 2398TIP3    H2 7159   3.410   4.335   3.278
 2399TIP3   OH2 7160   5.065   4.137   5.407
 2399TIP3    H1 7161   5.105   4.205   5.354
 2399TIP3    H2 7162   5.078   4.056   5.356
 2400TIP3   OH2 7163   3.423   3.256   1.660
 2400TIP3    H1 7164   3.392   3.189   1.600
 2400TIP3    H2 7165   3.518   3.244   1.662
 2401TIP3   OH2 7166   2.196   1.058   0.841
 2401TIP3    H1 7167   2.248   1.125   0.887
 2401TIP3    H2 7168   2.244   0.976   0.856
 2402TIP3   OH2 7169   7.202   2.283   5.888
 2402TIP3    H1 7170   7.264   2.210   5.886
 2402TIP3    H2 7171   7.256   2.360   5.867
 2403TIP3   OH2 7172   1.456   4.829   2.181
 2403TIP3    H1 7173   1.421   4.740   2.186
 2403TIP3    H2 7174   1.547   4.817   2.154
 2404TIP3   OH2 7175   0.627   5.728   4.780
 2404TIP3    H1 7176   0.613   5.637   4.808
 2404TIP3    H2 7177   0.701   5.758   4.833
 2405TIP3   OH2 7178   5.679   0.557   3.578
 2405TIP3    H1 7179   5.614   0.622   3.550
 2405TIP3    H2 7180   5.657   0.478   3.529
 2406TIP3   OH2 7181   0.831   0.377   1.294
 2406TIP3    H1 7182   0.867   0.447   1.349
 2406TIP3    H2 7183   0.753   0.347   1.341
 2407TIP3   OH2 7184   4.326   5.812   0.128
 2407TIP3    H1 7185   4.310   5.748   0.197
 2407TIP3    H2 7186   4.417   5.796   0.101
 2408TIP3   OH2 7187   1.848   1.196   3.407
 2408TIP3    H1 7188   1.877   1.179   3.318
 2408TIP3    H2 7189   1.764   1.242   3.397
 2409TIP3   OH2 7190   2.788   5.438   5.064
 2409TIP3    H1 7191   2.727   5.509   5.048
 2409TIP3    H2 7192   2.874   5.480   5.072
 2410TIP3   OH2 7193   4.652   0.818   2.720
 2410TIP3    H1 7194   4.707   0.742   2.740
 2410TIP3    H2 7195   4.608   0.795   2.638
 2411TIP3   OH2 7196   6.022   4.178   4.158
 2411TIP3    H1 7197   5.966   4.134   4.094
 2411TIP3    H2 7198   6.097   4.120   4.169
 2412TIP3   OH2 7199   5.241   3.901   2.818
 2412TIP3    H1 7200   5.171   3.956   2.855
 2412TIP3    H2 7201   5.320   3.953   2.830
 2413TIP3   OH2 7202   6.371   2.673   5.727
 2413TIP3    H1 7203   6.287   2.690   5.770
 2413TIP3    H2 7204   6.399   2.759   5.696
 2414TIP3   OH2 7205   2.022   5.735   5.750
 2414TIP3    H1 7206   2.094   5.694   5.703
 2414TIP3    H2 7207   1.944   5.712   5.700
 2415TIP3   OH2 7208   4.405   3.678   4.300
 2415TIP3    H1 7209   4.381   3.619   4.372
 2415TIP3    H2 7210   4.498   3.662   4.285
 2416TIP3   OH2 7211   5.107   4.422   2.171
 2416TIP3    H1 7212   5.017   4.444   2.195
 2416TIP3    H2 7213   5.161   4.482   2.223
 2417TIP3   OH2 7214   5.976   5.223   3.850
 2417TIP3    H1 7215   5.982   5.317   3.865
 2417TIP3    H2 7216   6.019   5.183   3.926
 2418TIP3   OH2 7217   5.440   0.972   2.848
 2418TIP3    H1 7218   5.376   1.035   2.815
 2418TIP3    H2 7219   5.403   0.942   2.931
 2419TIP3   OH2 7220   1.947   4.790   1.462
 2419TIP3    H1 7221   1.936   4.758   1.373
 2419TIP3    H2 7222   1.986   4.877   1.453
 2420TIP3   OH2 7223   4.731   5.889   2.061
 2420TIP3    H1 7224   4.642   5.911   2.034
 2420TIP3    H2 7225   4.745   5.938   2.142
 2421TIP3   OH2 7226   0.590   4.223   5.625
 2421TIP3    H1 7227   0.640   4.143   5.607
 2421TIP3    H2 7228   0.544   4.241   5.543
 2422TIP3   OH2 7229   2.937   4.223   4.314
 2422TIP3    H1 7230   2.977   4.238   4.399
 2422TIP3    H2 7231   3.008   4.238   4.251
 2423TIP3   OH2 7232   0.571   1.083   4.949
 2423TIP3    H1 7233   0.482   1.085   4.983
 2423TIP3    H2 7234   0.612   1.162   4.983
 2424TIP3   OH2 7235   4.548   6.112   2.383
 2424TIP3    H1 7236   4.546   6.186   2.443
 2424TIP3    H2 7237   4.528   6.036   2.437
 2425TIP3   OH2 7238   4.475   3.219   1.142
 2425TIP3    H1 7239   4.460   3.127   1.162
 2425TIP3    H2 7240   4.490   3.221   1.047
 2426TIP3   OH2 7241   2.585   2.171   3.395
 2426TIP3    H1 7242   2.661   2.119   3.420
 2426TIP3    H2 7243   2.590   2.176   3.299
 2427TIP3   OH2 7244   1.552   4.527   4.888
 2427TIP3    H1 7245   1.613   4.575   4.943
 2427TIP3    H2 7246   1.487   4.492   4.949
 2428TIP3   OH2 7247   6.958   3.276   1.343
 2428TIP3    H1 7248   6.888   3.225   1.384
 2428TIP3    H2 7249   6.914   3.329   1.277
 2429TIP3   OH2 7250   1.441   5.995   4.329
 2429TIP3    H1 7251   1.373   6.004   4.396
 2429TIP3    H2 7252   1.401   6.028   4.249
 2430TIP3   OH2 7253   4.659   1.181   5.484
 2430TIP3    H1 7254   4.572   1.140   5.477
 2430TIP3    H2 7255   4.699   1.168   5.399
 2431TIP3   OH2 7256   5.424   1.073   5.465
 2431TIP3    H1 7257   5.355   1.040   5.524
 2431TIP3    H2 7258   5.474   0.995   5.442
 2432TIP3   OH2 7259   3.549   5.501   4.942
 2432TIP3    H1 7260   3.618   5.451   4.984
 2432TIP3    H2 7261   3.469   5.452   4.960
 2433TIP3   OH2 7262   4.279   1.084   2.500
 2433TIP3    H1 7263   4.329   1.046   2.427
 2433TIP3    H2 7264   4.313   1.040   2.578
 2434TIP3   OH2 7265   5.837   6.336   3.165
 2434TIP3    H1 7266   5.917   6.364   3.209
 2434TIP3    H2 7267   5.867   6.277   3.096
 2435TIP3   OH2 7268   1.644   4.978   3.461
 2435TIP3    H1 7269   1.578   5.035   3.501
 2435TIP3    H2 7270   1.657   4.907   3.524
 2436TIP3   OH2 7271   1.700   4.885   0.583
 2436TIP3    H1 7272   1.790   4.883   0.551
 2436TIP3    H2 7273   1.706   4.925   0.670
 2437TIP3   OH2 7274   2.088   6.680   2.298
 2437TIP3    H1 7275   2.021   6.749   2.301
 2437TIP3    H2 7276   2.067   6.623   2.372
 2438TIP3   OH2 7277   3.449   5.165   4.343
 2438TIP3    H1 7278   3.461   5.213   4.425
 2438TIP3    H2 7279   3.369   5.202   4.305
 2439TIP3   OH2 7280   1.642   4.807   4.139
 2439TIP3    H1 7281   1.712   4.826   4.077
 2439TIP3    H2 7282   1.656   4.869   4.211
 2440TIP3   OH2 7283   4.809   0.966   4.521
 2440TIP3    H1 7284   4.773   0.978   4.433
 2440TIP3    H2 7285   4.896   1.006   4.517
 2441TIP3   OH2 7286   1.472   3.813   5.536
 2441TIP3    H1 7287   1.429   3.834   5.619
 2441TIP3    H2 7288   1.429   3.733   5.507
 2442TIP3   OH2 7289   1.415   4.646   0.043
 2442TIP3    H1 7290   1.506   4.661   0.068
 2442TIP3    H2 7291   1.409   4.676  -0.048
 2443TIP3   OH2 7292   1.705   3.239   5.423
 2443TIP3    H1 7293   1.689   3.209   5.512
 2443TIP3    H2 7294   1.795   3.214   5.404
 2444TIP3   OH2 7295   1.925   3.331   0.105
 2444TIP3    H1 7296   1.923   3.326   0.009
 2444TIP3    H2 7297   1.988   3.401   0.124
 2445TIP3   OH2 7298   2.886   1.776   1.199
 2445TIP3    H1 7299   2.931   1.714   1.256
 2445TIP3    H2 7300   2.866   1.726   1.120
 2446TIP3   OH2 7301   5.785   1.619   4.914
 2446TIP3    H1 7302   5.750   1.693   4.962
 2446TIP3    H2 7303   5.769   1.543   4.971
 2447TIP3   OH2 7304   4.533   6.777   0.668
 2447TIP3    H1 7305   4.447   6.797   0.705
 2447TIP3    H2 7306   4.553   6.689   0.701
 2448TIP3   OH2 7307   0.865   0.059   4.243
 2448TIP3    H1 7308   0.828   0.052   4.155
 2448TIP3    H2 7309   0.932  -0.009   4.246
 2449TIP3   OH2 7310   3.862  -0.032   3.181
 2449TIP3    H1 7311   3.886   0.061   3.181
 2449TIP3    H2 7312   3.911  -0.070   3.108
 2450TIP3   OH2 7313   1.621   6.388   2.363
 2450TIP3    H1 7314   1.594   6.297   2.378
 2450TIP3    H2 7315   1.649   6.419   2.450
 2451TIP3   OH2 7316   1.322   0.094   4.201
 2451TIP3    H1 7317   1.336   0.001   4.183
 2451TIP3    H2 7318   1.262   0.095   4.276
 2452TIP3   OH2 7319   6.064   2.713   0.940
 2452TIP3    H1 7320   6.130   2.778   0.962
 2452TIP3    H2 7321   6.053   2.722   0.845
 2453TIP3   OH2 7322   1.089   2.487   0.829
 2453TIP3    H1 7323   1.012   2.491   0.886
 2453TIP3    H2 7324   1.162   2.511   0.885
 2454TIP3   OH2 7325   5.406   1.219   4.780
 2454TIP3    H1 7326   5.396   1.300   4.829
 2454TIP3    H2 7327   5.328   1.215   4.725
 2455TIP3   OH2 7328   6.702   3.690   5.624
 2455TIP3    H1 7329   6.643   3.735   5.685
 2455TIP3    H2 7330   6.758   3.637   5.680
 2456TIP3   OH2 7331   7.142   0.503   5.041
 2456TIP3    H1 7332   7.060   0.485   5.086
 2456TIP3    H2 7333   7.206   0.514   5.111
 2457TIP3   OH2 7334   3.250   0.366   3.540
 2457TIP3    H1 7335   3.278   0.313   3.466
 2457TIP3    H2 7336   3.330   0.411   3.569
 2458TIP3   OH2 7337   3.853   1.151   5.165
 2458TIP3    H1 7338   3.784   1.217   5.172
 2458TIP3    H2 7339   3.914   1.187   5.101
 2459TIP3   OH2 7340   4.695   0.675   4.431
 2459TIP3    H1 7341   4.601   0.657   4.429
 2459TIP3    H2 7342   4.707   0.726   4.511
 2460TIP3   OH2 7343   5.405   3.443   1.472
 2460TIP3    H1 7344   5.331   3.497   1.502
 2460TIP3    H2 7345   5.472   3.456   1.540
 2461TIP3   OH2 7346   0.595   6.119   3.176
 2461TIP3    H1 7347   0.514   6.162   3.150
 2461TIP3    H2 7348   0.567   6.040   3.222
 2462TIP3   OH2 7349   1.909   3.410   5.633
 2462TIP3    H1 7350   1.940   3.397   5.722
 2462TIP3    H2 7351   1.932   3.328   5.588
 2463TIP3   OH2 7352   4.700   3.636   5.860
 2463TIP3    H1 7353   4.794   3.640   5.879
 2463TIP3    H2 7354   4.695   3.590   5.776
 2464TIP3   OH2 7355   0.859   5.876   2.832
 2464TIP3    H1 7356   0.797   5.935   2.874
 2464TIP3    H2 7357   0.810   5.794   2.821
 2465TIP3   OH2 7358   0.178   5.421   3.366
 2465TIP3    H1 7359   0.094   5.446   3.327
 2465TIP3    H2 7360   0.155   5.385   3.451
 2466TIP3   OH2 7361   5.691   4.110   3.081
 2466TIP3    H1 7362   5.733   4.147   3.003
 2466TIP3    H2 7363   5.763   4.070   3.130
 2467TIP3   OH2 7364   1.686   3.669   2.206
 2467TIP3    H1 7365   1.639   3.590   2.178
 2467TIP3    H2 7366   1.737   3.641   2.282
 2468TIP3   OH2 7367   5.063   4.675   1.654
 2468TIP3    H1 7368   5.048   4.611   1.724
 2468TIP3    H2 7369   5.120   4.630   1.592
 2469TIP3   OH2 7370   3.216   2.954   3.498
 2469TIP3    H1 7371   3.174   2.891   3.556
 2469TIP3    H2 7372   3.152   2.970   3.429
 2470TIP3   OH2 7373   0.752   5.929   4.627
 2470TIP3    H1 7374   0.832   5.878   4.641
 2470TIP3    H2 7375   0.681   5.867   4.642
 2471TIP3   OH2 7376   5.948   2.775   2.288
 2471TIP3    H1 7377   6.007   2.712   2.247
 2471TIP3    H2 7378   5.931   2.740   2.375
 2472TIP3   OH2 7379   1.274   6.574   0.877
 2472TIP3    H1 7380   1.292   6.597   0.968
 2472TIP3    H2 7381   1.360   6.557   0.838
 2473TIP3   OH2 7382   6.356   1.485   2.680
 2473TIP3    H1 7383   6.310   1.553   2.632
 2473TIP3    H2 7384   6.295   1.457   2.748
 2474TIP3   OH2 7385   4.832   0.502   1.448
 2474TIP3    H1 7386   4.770   0.438   1.412
 2474TIP3    H2 7387   4.777   0.565   1.494
 2475TIP3   OH2 7388   6.034   3.778   2.764
 2475TIP3    H1 7389   6.064   3.712   2.826
 2475TIP3    H2 7390   5.953   3.812   2.801
 2476TIP3   OH2 7391   4.938   0.141   0.850
 2476TIP3    H1 7392   4.988   0.073   0.896
 2476TIP3    H2 7393   4.991   0.160   0.772
 2477TIP3   OH2 7394   6.761   0.699   5.127
 2477TIP3    H1 7395   6.696   0.629   5.138
 2477TIP3    H2 7396   6.825   0.683   5.197
 2478TIP3   OH2 7397   2.943   1.089   0.939
 2478TIP3    H1 7398   3.028   1.076   0.979
 2478TIP3    H2 7399   2.934   1.016   0.877
 2479TIP3   OH2 7400   0.868   3.541   0.435
 2479TIP3    H1 7401   0.868   3.446   0.428
 2479TIP3    H2 7402   0.782   3.567   0.400
 2480TIP3   OH2 7403   2.417   0.899   0.086
 2480TIP3    H1 7404   2.336   0.942   0.061
 2480TIP3    H2 7405   2.453   0.953   0.156
 2481TIP3   OH2 7406   2.950   5.105   4.579
 2481TIP3    H1 7407   2.941   5.128   4.672
 2481TIP3    H2 7408   2.963   5.010   4.579
 2482TIP3   OH2 7409   7.132   1.208   4.725
 2482TIP3    H1 7410   7.072   1.167   4.663
 2482TIP3    H2 7411   7.213   1.157   4.718
 2483TIP3   OH2 7412   1.918   0.238   5.605
 2483TIP3    H1 7413   1.982   0.253   5.675
 2483TIP3    H2 7414   1.849   0.187   5.647
 2484TIP3   OH2 7415   1.847   2.839   3.090
 2484TIP3    H1 7416   1.924   2.840   3.147
 2484TIP3    H2 7417   1.879   2.874   3.007
 2485TIP3   OH2 7418   5.923   1.758   0.564
 2485TIP3    H1 7419   5.831   1.775   0.586
 2485TIP3    H2 7420   5.927   1.664   0.547
 2486TIP3   OH2 7421   2.513   4.517   1.125
 2486TIP3    H1 7422   2.420   4.539   1.116
 2486TIP3    H2 7423   2.513   4.430   1.165
 2487TIP3   OH2 7424   5.857   2.759   3.228
 2487TIP3    H1 7425   5.773   2.806   3.226
 2487TIP3    H2 7426   5.836   2.674   3.268
 2488TIP3   OH2 7427   2.408   6.061   1.509
 2488TIP3    H1 7428   2.386   5.984   1.562
 2488TIP3    H2 7429   2.475   6.107   1.560
 2489TIP3   OH2 7430   0.394   4.545   3.331
 2489TIP3    H1 7431   0.394   4.485   3.255
 2489TIP3    H2 7432   0.328   4.508   3.390
 2490TIP3   OH2 7433   4.446   5.422   3.790
 2490TIP3    H1 7434   4.541   5.433   3.792
 2490TIP3    H2 7435   4.416   5.462   3.871
 2491TIP3   OH2 7436   2.959   4.441   5.652
 2491TIP3    H1 7437   2.917   4.527   5.654
 2491TIP3    H2 7438   3.039   4.451   5.703
 2492TIP3   OH2 7439   4.264   3.664   4.039
 2492TIP3    H1 7440   4.309   3.671   4.123
 2492TIP3    H2 7441   4.186   3.610   4.058
 2493TIP3   OH2 7442   4.187   6.059   1.237
 2493TIP3    H1 7443   4.121   6.041   1.304
 2493TIP3    H2 7444   4.140   6.111   1.171
 2494TIP3   OH2 7445   4.852   3.407   2.032
 2494TIP3    H1 7446   4.869   3.316   2.053
 2494TIP3    H2 7447   4.758   3.410   2.012
 2495TIP3   OH2 7448   2.118   3.055   2.595
 2495TIP3    H1 7449   2.152   3.016   2.675
 2495TIP3    H2 7450   2.056   2.990   2.561
 2496TIP3   OH2 7451   5.437   5.923   0.981
 2496TIP3    H1 7452   5.376   5.955   0.914
 2496TIP3    H2 7453   5.402   5.836   1.004
 2497TIP3   OH2 7454   5.576   3.835   3.785
 2497TIP3    H1 7455   5.584   3.784   3.704
 2497TIP3    H2 7456   5.482   3.841   3.801
 2498TIP3   OH2 7457   5.926   4.450   2.752
 2498TIP3    H1 7458   5.935   4.520   2.817
 2498TIP3    H2 7459   5.867   4.486   2.686
 2499TIP3   OH2 7460   1.145   0.217   4.887
 2499TIP3    H1 7461   1.164   0.134   4.843
 2499TIP3    H2 7462   1.175   0.204   4.977
 2500TIP3   OH2 7463   1.833   5.403   3.762
 2500TIP3    H1 7464   1.797   5.342   3.697
 2500TIP3    H2 7465   1.897   5.351   3.810
 2501TIP3   OH2 7466   6.867   4.486   4.813
 2501TIP3    H1 7467   6.896   4.544   4.743
 2501TIP3    H2 7468   6.938   4.423   4.823
 2502TIP3   OH2 7469   4.533   3.180   4.420
 2502TIP3    H1 7470   4.536   3.152   4.328
 2502TIP3    H2 7471   4.487   3.110   4.465
 2503TIP3   OH2 7472   0.098   1.278   5.528
 2503TIP3    H1 7473   0.165   1.315   5.585
 2503TIP3    H2 7474   0.099   1.332   5.450
 2504TIP3   OH2 7475   4.871   5.793   5.639
 2504TIP3    H1 7476   4.878   5.886   5.658
 2504TIP3    H2 7477   4.941   5.775   5.577
 2505TIP3   OH2 7478   6.543   3.658   5.145
 2505TIP3    H1 7479   6.527   3.564   5.139
 2505TIP3    H2 7480   6.611   3.674   5.080
 2506TIP3   OH2 7481   4.018   1.382   3.604
 2506TIP3    H1 7482   3.947   1.341   3.654
 2506TIP3    H2 7483   4.054   1.311   3.552
 2507TIP3   OH2 7484   6.974   2.265   0.572
 2507TIP3    H1 7485   6.889   2.286   0.611
 2507TIP3    H2 7486   6.955   2.194   0.511
 2508TIP3   OH2 7487   1.355   5.231   1.845
 2508TIP3    H1 7488   1.412   5.189   1.781
 2508TIP3    H2 7489   1.267   5.220   1.811
 2509TIP3   OH2 7490   3.462   4.873   3.988
 2509TIP3    H1 7491   3.507   4.876   4.073
 2509TIP3    H2 7492   3.533   4.875   3.924
 2510TIP3   OH2 7493   4.302   6.441   5.555
 2510TIP3    H1 7494   4.342   6.465   5.472
 2510TIP3    H2 7495   4.209   6.463   5.544
 2511TIP3   OH2 7496   4.270   0.090   2.341
 2511TIP3    H1 7497   4.205   0.044   2.394
 2511TIP3    H2 7498   4.220   0.126   2.268
 2512TIP3   OH2 7499   0.218   3.580   5.487
 2512TIP3    H1 7500   0.243   3.507   5.429
 2512TIP3    H2 7501   0.301   3.622   5.509
 2513TIP3   OH2 7502   4.012   6.584   4.527
 2513TIP3    H1 7503   3.955   6.624   4.593
 2513TIP3    H2 7504   4.039   6.657   4.471
 2514TIP3   OH2 7505   5.401   1.743   0.230
 2514TIP3    H1 7506   5.323   1.715   0.279
 2514TIP3    H2 7507   5.384   1.714   0.140
 2515TIP3   OH2 7508   6.689   0.524   3.500
 2515TIP3    H1 7509   6.765   0.516   3.443
 2515TIP3    H2 7510   6.707   0.601   3.554
 2516TIP3   OH2 7511   4.735   4.532   4.333
 2516TIP3    H1 7512   4.762   4.458   4.387
 2516TIP3    H2 7513   4.767   4.609   4.381
 2517TIP3   OH2 7514   2.968   0.886   3.660
 2517TIP3    H1 7515   2.942   0.794   3.657
 2517TIP3    H2 7516   2.939   0.916   3.746
 2518TIP3   OH2 7517   3.017   5.550   1.372
 2518TIP3    H1 7518   3.109   5.543   1.344
 2518TIP3    H2 7519   2.969   5.497   1.307
 2519TIP3   OH2 7520   4.191   2.392   2.287
 2519TIP3    H1 7521   4.200   2.384   2.192
 2519TIP3    H2 7522   4.207   2.303   2.320
 2520TIP3   OH2 7523   6.181   1.709   2.092
 2520TIP3    H1 7524   6.238   1.675   2.023
 2520TIP3    H2 7525   6.218   1.676   2.173
 2521TIP3   OH2 7526   3.962   5.263   2.265
 2521TIP3    H1 7527   3.867   5.258   2.252
 2521TIP3    H2 7528   3.986   5.175   2.294
 2522TIP3   OH2 7529   4.421   5.566   5.521
 2522TIP3    H1 7530   4.433   5.633   5.589
 2522TIP3    H2 7531   4.354   5.508   5.556
 2523TIP3   OH2 7532   5.098   5.996   4.868
 2523TIP3    H1 7533   5.145   5.929   4.817
 2523TIP3    H2 7534   5.008   5.962   4.873
 2524TIP3   OH2 7535   0.472   4.459   2.654
 2524TIP3    H1 7536   0.467   4.522   2.725
 2524TIP3    H2 7537   0.486   4.375   2.696
 2525TIP3   OH2 7538   2.163   5.468   4.884
 2525TIP3    H1 7539   2.073   5.461   4.916
 2525TIP3    H2 7540   2.205   5.529   4.944
 2526TIP3   OH2 7541   6.822   3.257   2.935
 2526TIP3    H1 7542   6.918   3.257   2.933
 2526TIP3    H2 7543   6.800   3.276   3.026
 2527TIP3   OH2 7544   4.668   3.978   0.239
 2527TIP3    H1 7545   4.590   3.958   0.186
 2527TIP3    H2 7546   4.707   3.893   0.258
 2528TIP3   OH2 7547   6.301   6.784   2.339
 2528TIP3    H1 7548   6.228   6.840   2.313
 2528TIP3    H2 7549   6.287   6.769   2.433
 2529TIP3   OH2 7550   4.850   0.366   2.423
 2529TIP3    H1 7551   4.776   0.306   2.415
 2529TIP3    H2 7552   4.905   0.327   2.491
 2530TIP3   OH2 7553   6.859   3.838   5.458
 2530TIP3    H1 7554   6.800   3.828   5.383
 2530TIP3    H2 7555   6.810   3.804   5.532
 2531TIP3   OH2 7556   4.125   2.302   0.300
 2531TIP3    H1 7557   4.155   2.393   0.291
 2531TIP3    H2 7558   4.203   2.255   0.330
 2532TIP3   OH2 7559   4.181   4.138   3.012
 2532TIP3    H1 7560   4.200   4.228   3.040
 2532TIP3    H2 7561   4.267   4.098   3.000
 2533TIP3   OH2 7562   3.023   1.043   4.883
 2533TIP3    H1 7563   2.933   1.068   4.904
 2533TIP3    H2 7564   3.074   1.123   4.896
 2534TIP3   OH2 7565   6.678   5.260   3.182
 2534TIP3    H1 7566   6.676   5.194   3.251
 2534TIP3    H2 7567   6.741   5.325   3.211
 2535TIP3   OH2 7568   2.360   0.519   3.173
 2535TIP3    H1 7569   2.442   0.553   3.137
 2535TIP3    H2 7570   2.367   0.425   3.163
 2536TIP3   OH2 7571   1.126   4.063   4.550
 2536TIP3    H1 7572   1.217   4.091   4.542
 2536TIP3    H2 7573   1.090   4.075   4.461
 2537TIP3   OH2 7574   2.789   2.397   2.759
 2537TIP3    H1 7575   2.797   2.401   2.854
 2537TIP3    H2 7576   2.744   2.479   2.735
 2538TIP3   OH2 7577   0.153   1.305   0.054
 2538TIP3    H1 7578   0.080   1.315   0.116
 2538TIP3    H2 7579   0.169   1.393   0.021
 2539TIP3   OH2 7580   6.556   3.378   5.189
 2539TIP3    H1 7581   6.564   3.286   5.215
 2539TIP3    H2 7582   6.646   3.409   5.184
 2540TIP3   OH2 7583   2.734   3.927   4.548
 2540TIP3    H1 7584   2.710   3.839   4.519
 2540TIP3    H2 7585   2.655   3.960   4.592
 2541TIP3   OH2 7586   3.395   0.913   2.622
 2541TIP3    H1 7587   3.450   0.870   2.556
 2541TIP3    H2 7588   3.307   0.912   2.585
 2542TIP3   OH2 7589   2.839   2.761   0.862
 2542TIP3    H1 7590   2.847   2.707   0.784
 2542TIP3    H2 7591   2.898   2.720   0.926
 2543TIP3   OH2 7592   3.178   3.205   0.501
 2543TIP3    H1 7593   3.100   3.205   0.556
 2543TIP3    H2 7594   3.234   3.274   0.537
 2544TIP3   OH2 7595   0.170   6.490   1.278
 2544TIP3    H1 7596   0.168   6.523   1.368
 2544TIP3    H2 7597   0.196   6.398   1.288
 2545TIP3   OH2 7598   1.957   3.342   2.585
 2545TIP3    H1 7599   1.930   3.393   2.509
 2545TIP3    H2 7600   2.051   3.330   2.573
 2546TIP3   OH2 7601   4.233   4.938   4.662
 2546TIP3    H1 7602   4.232   4.862   4.605
 2546TIP3    H2 7603   4.296   4.917   4.730
 2547TIP3   OH2 7604   5.206   5.883   2.610
 2547TIP3    H1 7605   5.142   5.942   2.570
 2547TIP3    H2 7606   5.188   5.888   2.704
 2548TIP3   OH2 7607   7.070   2.789   1.603
 2548TIP3    H1 7608   7.030   2.798   1.516
 2548TIP3    H2 7609   6.997   2.766   1.661
 2549TIP3   OH2 7610   6.027   1.219   4.359
 2549TIP3    H1 7611   6.070   1.236   4.275
 2549TIP3    H2 7612   6.065   1.136   4.388
 2550TIP3   OH2 7613   6.052   3.245   4.354
 2550TIP3    H1 7614   6.143   3.225   4.333
 2550TIP3    H2 7615   6.054   3.278   4.443
 2551TIP3   OH2 7616   6.719   0.332   0.441
 2551TIP3    H1 7617   6.677   0.247   0.452
 2551TIP3    H2 7618   6.649   0.389   0.407
 2552TIP3   OH2 7619   3.155   1.696   3.123
 2552TIP3    H1 7620   3.189   1.677   3.036
 2552TIP3    H2 7621   3.061   1.682   3.115
 2553TIP3   OH2 7622   3.647   3.484   2.223
 2553TIP3    H1 7623   3.682   3.449   2.141
 2553TIP3    H2 7624   3.719   3.536   2.259
 2554TIP3   OH2 7625   5.802   6.729   2.231
 2554TIP3    H1 7626   5.752   6.651   2.254
 2554TIP3    H2 7627   5.777   6.748   2.140
 2555TIP3   OH2 7628   4.644   1.234   4.415
 2555TIP3    H1 7629   4.615   1.323   4.396
 2555TIP3    H2 7630   4.736   1.233   4.391
 2556TIP3   OH2 7631   6.321   0.155   5.729
 2556TIP3    H1 7632   6.376   0.082   5.700
 2556TIP3    H2 7633   6.235   0.138   5.690
 2557TIP3   OH2 7634   1.935   1.462   0.209
 2557TIP3    H1 7635   1.908   1.452   0.301
 2557TIP3    H2 7636   1.888   1.392   0.164
 2558TIP3   OH2 7637   4.199   4.303   0.355
 2558TIP3    H1 7638   4.140   4.235   0.324
 2558TIP3    H2 7639   4.202   4.292   0.450
 2559TIP3   OH2 7640   6.303   4.276   2.673
 2559TIP3    H1 7641   6.283   4.215   2.602
 2559TIP3    H2 7642   6.227   4.273   2.731
 2560TIP3   OH2 7643   3.977   1.639   4.700
 2560TIP3    H1 7644   4.057   1.631   4.751
 2560TIP3    H2 7645   4.007   1.651   4.610
 2561TIP3   OH2 7646   5.128   6.122   0.365
 2561TIP3    H1 7647   5.144   6.083   0.450
 2561TIP3    H2 7648   5.063   6.191   0.382
 2562TIP3   OH2 7649   0.233   2.485   3.721
 2562TIP3    H1 7650   0.216   2.409   3.666
 2562TIP3    H2 7651   0.255   2.555   3.659
 2563TIP3   OH2 7652   5.446   2.391   5.706
 2563TIP3    H1 7653   5.449   2.484   5.729
 2563TIP3    H2 7654   5.537   2.363   5.707
 2564TIP3   OH2 7655   5.174   2.792   5.353
 2564TIP3    H1 7656   5.196   2.800   5.446
 2564TIP3    H2 7657   5.156   2.699   5.340
 2565TIP3   OH2 7658   2.203   4.185   1.296
 2565TIP3    H1 7659   2.192   4.189   1.201
 2565TIP3    H2 7660   2.198   4.092   1.317
 2566TIP3   OH2 7661   5.857   1.496   1.198
 2566TIP3    H1 7662   5.888   1.405   1.202
 2566TIP3    H2 7663   5.920   1.540   1.142
 2567TIP3   OH2 7664   2.363   1.075   4.432
 2567TIP3    H1 7665   2.379   1.077   4.526
 2567TIP3    H2 7666   2.317   0.992   4.417
 2568TIP3   OH2 7667   5.133   3.994   0.191
 2568TIP3    H1 7668   5.190   3.918   0.202
 2568TIP3    H2 7669   5.146   4.022   0.101
 2569TIP3   OH2 7670   6.963   4.081   2.277
 2569TIP3    H1 7671   6.979   4.016   2.345
 2569TIP3    H2 7672   7.022   4.057   2.205
 2570TIP3   OH2 7673   5.317   3.628   0.902
 2570TIP3    H1 7674   5.371   3.550   0.917
 2570TIP3    H2 7675   5.282   3.616   0.814
 2571TIP3   OH2 7676   4.869   6.757   0.431
 2571TIP3    H1 7677   4.928   6.794   0.497
 2571TIP3    H2 7678   4.911   6.778   0.348
 2572TIP3   OH2 7679   0.648   3.424   4.023
 2572TIP3    H1 7680   0.706   3.351   4.002
 2572TIP3    H2 7681   0.665   3.444   4.114
 2573TIP3   OH2 7682   3.154   1.909   3.775
 2573TIP3    H1 7683   3.207   1.941   3.703
 2573TIP3    H2 7684   3.065   1.933   3.752
 2574TIP3   OH2 7685   3.192   4.183   0.636
 2574TIP3    H1 7686   3.164   4.136   0.558
 2574TIP3    H2 7687   3.238   4.260   0.603
 2575TIP3   OH2 7688   6.913   4.287   1.329
 2575TIP3    H1 7689   6.830   4.318   1.291
 2575TIP3    H2 7690   6.918   4.331   1.414
 2576TIP3   OH2 7691   3.027   0.225   1.068
 2576TIP3    H1 7692   3.020   0.150   1.010
 2576TIP3    H2 7693   2.948   0.277   1.051
 2577TIP3   OH2 7694  -0.022   4.606   4.193
 2577TIP3    H1 7695   0.052   4.641   4.143
 2577TIP3    H2 7696   0.016   4.578   4.277
 2578TIP3   OH2 7697   0.695   4.072   3.549
 2578TIP3    H1 7698   0.748   4.063   3.470
 2578TIP3    H2 7699   0.669   3.983   3.571
 2579TIP3   OH2 7700   2.737   3.273   3.473
 2579TIP3    H1 7701   2.648   3.307   3.468
 2579TIP3    H2 7702   2.727   3.178   3.466
 2580TIP3   OH2 7703   1.129   4.063   0.031
 2580TIP3    H1 7704   1.139   4.081   0.124
 2580TIP3    H2 7705   1.076   3.983   0.027
 2581TIP3   OH2 7706   3.647   3.229   3.645
 2581TIP3    H1 7707   3.653   3.222   3.740
 2581TIP3    H2 7708   3.645   3.138   3.615
 2582TIP3   OH2 7709   4.741   4.939   5.275
 2582TIP3    H1 7710   4.756   4.898   5.360
 2582TIP3    H2 7711   4.746   4.868   5.212
 2583TIP3   OH2 7712   3.957   3.436   3.860
 2583TIP3    H1 7713   3.874   3.397   3.885
 2583TIP3    H2 7714   3.945   3.530   3.872
 2584TIP3   OH2 7715   4.943   0.185   0.281
 2584TIP3    H1 7716   4.900   0.107   0.316
 2584TIP3    H2 7717   5.023   0.153   0.240
 2585TIP3   OH2 7718   1.877   5.368   2.839
 2585TIP3    H1 7719   1.941   5.298   2.826
 2585TIP3    H2 7720   1.793   5.329   2.816
 2586TIP3   OH2 7721   2.688   3.166   4.972
 2586TIP3    H1 7722   2.633   3.143   4.898
 2586TIP3    H2 7723   2.762   3.104   4.967
 2587TIP3   OH2 7724   3.063   0.530   3.260
 2587TIP3    H1 7725   3.004   0.509   3.333
 2587TIP3    H2 7726   3.067   0.450   3.208
 2588TIP3   OH2 7727   4.454   0.525   0.712
 2588TIP3    H1 7728   4.523   0.590   0.700
 2588TIP3    H2 7729   4.462   0.499   0.803
 2589TIP3   OH2 7730   4.228   2.863   5.150
 2589TIP3    H1 7731   4.195   2.800   5.086
 2589TIP3    H2 7732   4.164   2.935   5.148
 2590TIP3   OH2 7733   2.077   0.447   1.036
 2590TIP3    H1 7734   2.073   0.522   1.097
 2590TIP3    H2 7735   2.093   0.372   1.093
 2591TIP3   OH2 7736   0.284   3.213   1.771
 2591TIP3    H1 7737   0.211   3.271   1.788
 2591TIP3    H2 7738   0.254   3.127   1.799
 2592TIP3   OH2 7739   5.701   4.039   4.398
 2592TIP3    H1 7740   5.649   3.996   4.330
 2592TIP3    H2 7741   5.648   4.113   4.426
 2593TIP3   OH2 7742   1.297   0.296   1.308
 2593TIP3    H1 7743   1.209   0.317   1.338
 2593TIP3    H2 7744   1.328   0.229   1.368
 2594TIP3   OH2 7745   4.962   1.662   5.448
 2594TIP3    H1 7746   4.929   1.597   5.386
 2594TIP3    H2 7747   5.046   1.691   5.411
 2595TIP3   OH2 7748   5.520   4.948  -0.028
 2595TIP3    H1 7749   5.526   4.894   0.051
 2595TIP3    H2 7750   5.445   5.005  -0.012
 2596TIP3   OH2 7751   4.385   2.167   5.232
 2596TIP3    H1 7752   4.305   2.204   5.270
 2596TIP3    H2 7753   4.452   2.181   5.298
 2597TIP3   OH2 7754   3.341   2.529   4.869
 2597TIP3    H1 7755   3.370   2.470   4.939
 2597TIP3    H2 7756   3.251   2.549   4.891
 2598TIP3   OH2 7757   2.761   1.949   5.737
 2598TIP3    H1 7758   2.698   1.999   5.685
 2598TIP3    H2 7759   2.847   1.980   5.708
 2599TIP3   OH2 7760   5.198   3.817   0.519
 2599TIP3    H1 7761   5.289   3.841   0.538
 2599TIP3    H2 7762   5.146   3.883   0.564
 2600TIP3   OH2 7763   4.072   3.600   1.815
 2600TIP3    H1 7764   4.126   3.575   1.740
 2600TIP3    H2 7765   4.048   3.516   1.856
 2601TIP3   OH2 7766   3.693   4.090   1.300
 2601TIP3    H1 7767   3.729   4.125   1.219
 2601TIP3    H2 7768   3.748   4.014   1.320
 2602TIP3   OH2 7769   0.092   6.418   3.569
 2602TIP3    H1 7770   0.102   6.333   3.526
 2602TIP3    H2 7771   0.104   6.399   3.662
 2603TIP3   OH2 7772   4.784   1.126   5.212
 2603TIP3    H1 7773   4.853   1.122   5.146
 2603TIP3    H2 7774   4.729   1.050   5.193
 2604TIP3   OH2 7775   2.608   0.408   1.940
 2604TIP3    H1 7776   2.535   0.353   1.968
 2604TIP3    H2 7777   2.670   0.348   1.899
 2605TIP3   OH2 7778   0.412   6.377   3.352
 2605TIP3    H1 7779   0.318   6.393   3.360
 2605TIP3    H2 7780   0.430   6.389   3.258
 2606TIP3   OH2 7781   5.896   5.799   0.388
 2606TIP3    H1 7782   5.857   5.884   0.367
 2606TIP3    H2 7783   5.858   5.776   0.473
 2607TIP3   OH2 7784   5.993   4.661   1.122
 2607TIP3    H1 7785   6.031   4.590   1.173
 2607TIP3    H2 7786   6.040   4.659   1.039
 2608TIP3   OH2 7787   1.012   4.742   1.731
 2608TIP3    H1 7788   1.042   4.778   1.815
 2608TIP3    H2 7789   0.971   4.816   1.686
 2609TIP3   OH2 7790   0.715   5.688   1.287
 2609TIP3    H1 7791   0.699   5.671   1.194
 2609TIP3    H2 7792   0.806   5.660   1.300
 2610TIP3   OH2 7793   3.285   1.423   3.568
 2610TIP3    H1 7794   3.202   1.406   3.522
 2610TIP3    H2 7795   3.350   1.372   3.520
 2611TIP3   OH2 7796   2.967   2.152   0.595
 2611TIP3    H1 7797   3.034   2.216   0.622
 2611TIP3    H2 7798   3.007   2.107   0.521
 2612TIP3   OH2 7799   5.493   2.640   1.603
 2612TIP3    H1 7800   5.466   2.730   1.588
 2612TIP3    H2 7801   5.420   2.587   1.572
 2613TIP3   OH2 7802   5.361   5.102   3.972
 2613TIP3    H1 7803   5.409   5.040   3.916
 2613TIP3    H2 7804   5.379   5.188   3.934
 2614TIP3   OH2 7805   2.667   0.644   3.849
 2614TIP3    H1 7806   2.620   0.692   3.917
 2614TIP3    H2 7807   2.598   0.618   3.786
 2615TIP3   OH2 7808   5.584   2.903   2.910
 2615TIP3    H1 7809   5.608   2.833   2.850
 2615TIP3    H2 7810   5.591   2.983   2.858
 2616TIP3   OH2 7811   0.551   0.256   5.438
 2616TIP3    H1 7812   0.477   0.210   5.477
 2616TIP3    H2 7813   0.599   0.189   5.389
 2617TIP3   OH2 7814   6.836   1.480   2.616
 2617TIP3    H1 7815   6.781   1.525   2.679
 2617TIP3    H2 7816   6.890   1.422   2.669
 2618TIP3   OH2 7817   6.390   4.716   5.121
 2618TIP3    H1 7818   6.383   4.648   5.189
 2618TIP3    H2 7819   6.481   4.745   5.127
 2619TIP3   OH2 7820   6.747   6.637   4.371
 2619TIP3    H1 7821   6.740   6.724   4.330
 2619TIP3    H2 7822   6.670   6.590   4.340
 2620TIP3   OH2 7823   5.546   1.480   0.733
 2620TIP3    H1 7824   5.453   1.476   0.756
 2620TIP3    H2 7825   5.564   1.397   0.689
 2621TIP3   OH2 7826   3.194   5.871   0.420
 2621TIP3    H1 7827   3.248   5.937   0.463
 2621TIP3    H2 7828   3.250   5.833   0.353
 2622TIP3   OH2 7829   6.245   3.863   3.751
 2622TIP3    H1 7830   6.153   3.887   3.738
 2622TIP3    H2 7831   6.257   3.864   3.845
 2623TIP3   OH2 7832   3.852   6.296   5.413
 2623TIP3    H1 7833   3.794   6.344   5.472
 2623TIP3    H2 7834   3.888   6.225   5.466
 2624TIP3   OH2 7835   3.427   5.166   2.807
 2624TIP3    H1 7836   3.468   5.079   2.800
 2624TIP3    H2 7837   3.455   5.199   2.892
 2625TIP3   OH2 7838   4.871   3.282   3.007
 2625TIP3    H1 7839   4.800   3.220   3.026
 2625TIP3    H2 7840   4.860   3.352   3.072
 2626TIP3   OH2 7841   6.236   2.957   1.348
 2626TIP3    H1 7842   6.206   3.004   1.426
 2626TIP3    H2 7843   6.325   2.989   1.334
 2627TIP3   OH2 7844   1.367   5.455   3.798
 2627TIP3    H1 7845   1.310   5.481   3.870
 2627TIP3    H2 7846   1.312   5.400   3.743
 2628TIP3   OH2 7847   1.038   6.410   0.559
 2628TIP3    H1 7848   1.112   6.358   0.529
 2628TIP3    H2 7849   1.052   6.497   0.521
 2629TIP3   OH2 7850   0.568   4.261   0.591
 2629TIP3    H1 7851   0.663   4.269   0.588
 2629TIP3    H2 7852   0.542   4.313   0.667
 2630TIP3   OH2 7853   4.487   2.811   5.201
 2630TIP3    H1 7854   4.494   2.716   5.201
 2630TIP3    H2 7855   4.394   2.829   5.191
 2631TIP3   OH2 7856   2.315   6.018   4.939
 2631TIP3    H1 7857   2.390   5.974   4.899
 2631TIP3    H2 7858   2.354   6.087   4.992
 2632TIP3   OH2 7859   4.329   0.940   3.810
 2632TIP3    H1 7860   4.350   0.851   3.838
 2632TIP3    H2 7861   4.360   0.996   3.881
 2633TIP3   OH2 7862   2.986   6.643   3.391
 2633TIP3    H1 7863   3.081   6.655   3.394
 2633TIP3    H2 7864   2.951   6.718   3.439
 2634TIP3   OH2 7865   4.507   3.834   3.685
 2634TIP3    H1 7866   4.588   3.884   3.684
 2634TIP3    H2 7867   4.523   3.763   3.747
 2635TIP3   OH2 7868   3.057   6.048   1.484
 2635TIP3    H1 7869   3.057   6.131   1.532
 2635TIP3    H2 7870   3.001   6.064   1.408
 2636TIP3   OH2 7871   1.009   1.963   2.094
 2636TIP3    H1 7872   0.959   2.008   2.162
 2636TIP3    H2 7873   1.078   2.025   2.070
 2637TIP3   OH2 7874   6.724   4.836   4.841
 2637TIP3    H1 7875   6.632   4.860   4.836
 2637TIP3    H2 7876   6.731   4.784   4.922
 2638TIP3   OH2 7877   5.823   5.548   2.448
 2638TIP3    H1 7878   5.763   5.570   2.377
 2638TIP3    H2 7879   5.767   5.517   2.519
 2639TIP3   OH2 7880   6.529   1.061   2.060
 2639TIP3    H1 7881   6.508   0.971   2.082
 2639TIP3    H2 7882   6.496   1.073   1.971
 2640TIP3   OH2 7883   6.742   3.245   4.044
 2640TIP3    H1 7884   6.779   3.332   4.029
 2640TIP3    H2 7885   6.815   3.185   4.026
 2641TIP3   OH2 7886   6.105   4.835   0.361
 2641TIP3    H1 7887   6.194   4.845   0.395
 2641TIP3    H2 7888   6.071   4.757   0.405
 2642TIP3   OH2 7889   3.470   3.805   5.409
 2642TIP3    H1 7890   3.501   3.782   5.496
 2642TIP3    H2 7891   3.549   3.820   5.358
 2643TIP3   OH2 7892   4.569   4.938   3.159
 2643TIP3    H1 7893   4.574   4.989   3.240
 2643TIP3    H2 7894   4.616   4.990   3.095
 2644TIP3   OH2 7895   4.870   2.132   4.177
 2644TIP3    H1 7896   4.917   2.101   4.100
 2644TIP3    H2 7897   4.784   2.157   4.144
 2645TIP3   OH2 7898   0.565   0.678   1.308
 2645TIP3    H1 7899   0.533   0.667   1.218
 2645TIP3    H2 7900   0.644   0.731   1.299
 2646TIP3   OH2 7901   3.900   3.082   1.982
 2646TIP3    H1 7902   3.817   3.035   1.981
 2646TIP3    H2 7903   3.967   3.014   1.987
 2647TIP3   OH2 7904   2.895   5.642   0.769
 2647TIP3    H1 7905   2.971   5.619   0.716
 2647TIP3    H2 7906   2.905   5.736   0.785
 2648TIP3   OH2 7907   6.175   6.032   1.680
 2648TIP3    H1 7908   6.137   6.042   1.592
 2648TIP3    H2 7909   6.100   6.027   1.738
 2649TIP3   OH2 7910   0.989   0.735   3.162
 2649TIP3    H1 7911   1.032   0.712   3.245
 2649TIP3    H2 7912   0.932   0.661   3.144
 2650TIP3   OH2 7913   5.084   6.585   0.055
 2650TIP3    H1 7914   5.037   6.557   0.133
 2650TIP3    H2 7915   5.130   6.665   0.082
 2651TIP3   OH2 7916   4.220   5.974   2.723
 2651TIP3    H1 7917   4.158   5.906   2.696
 2651TIP3    H2 7918   4.172   6.056   2.711
 2652TIP3   OH2 7919   4.573   1.595   4.908
 2652TIP3    H1 7920   4.503   1.568   4.849
 2652TIP3    H2 7921   4.566   1.690   4.913
 2653TIP3   OH2 7922   3.721   1.181   1.711
 2653TIP3    H1 7923   3.809   1.164   1.744
 2653TIP3    H2 7924   3.666   1.188   1.789
 2654TIP3   OH2 7925   3.516   2.564   5.197
 2654TIP3    H1 7926   3.421   2.557   5.193
 2654TIP3    H2 7927   3.547   2.473   5.200
 2655TIP3   OH2 7928   5.184   0.721   0.740
 2655TIP3    H1 7929   5.212   0.671   0.817
 2655TIP3    H2 7930   5.266   0.748   0.699
 2656TIP3   OH2 7931   1.038   3.395   2.173
 2656TIP3    H1 7932   1.091   3.474   2.179
 2656TIP3    H2 7933   1.005   3.380   2.261
 2657TIP3   OH2 7934   4.264   0.161   5.066
 2657TIP3    H1 7935   4.340   0.169   5.009
 2657TIP3    H2 7936   4.268   0.071   5.099
 2658TIP3   OH2 7937   5.473   6.257   4.763
 2658TIP3    H1 7938   5.487   6.344   4.726
 2658TIP3    H2 7939   5.432   6.273   4.848
 2659TIP3   OH2 7940   5.523   4.387   0.474
 2659TIP3    H1 7941   5.463   4.313   0.470
 2659TIP3    H2 7942   5.505   4.438   0.395
 2660TIP3   OH2 7943   6.037   1.303   3.740
 2660TIP3    H1 7944   6.109   1.330   3.682
 2660TIP3    H2 7945   5.958   1.324   3.691
 2661TIP3   OH2 7946   5.301   0.535   0.271
 2661TIP3    H1 7947   5.248   0.573   0.202
 2661TIP3    H2 7948   5.386   0.520   0.231
 2662TIP3   OH2 7949   6.457   0.792   2.015
 2662TIP3    H1 7950   6.467   0.698   2.032
 2662TIP3    H2 7951   6.483   0.802   1.924
 2663TIP3   OH2 7952   4.368   6.413   4.537
 2663TIP3    H1 7953   4.456   6.445   4.556
 2663TIP3    H2 7954   4.345   6.453   4.454
 2664TIP3   OH2 7955   5.272   3.249   0.638
 2664TIP3    H1 7956   5.318   3.166   0.622
 2664TIP3    H2 7957   5.213   3.258   0.563
 2665TIP3   OH2 7958   1.110   4.303   4.805
 2665TIP3    H1 7959   1.137   4.219   4.842
 2665TIP3    H2 7960   1.089   4.357   4.881
 2666TIP3   OH2 7961   7.035   0.025   4.467
 2666TIP3    H1 7962   7.002  -0.028   4.539
 2666TIP3    H2 7963   7.059  -0.039   4.400
 2667TIP3   OH2 7964   4.102   0.706   3.736
 2667TIP3    H1 7965   4.092   0.759   3.657
 2667TIP3    H2 7966   4.013   0.690   3.766
 2668TIP3   OH2 7967   6.493   4.194   3.381
 2668TIP3    H1 7968   6.559   4.262   3.392
 2668TIP3    H2 7969   6.532   4.134   3.316
 2669TIP3   OH2 7970   6.942   1.380   1.047
 2669TIP3    H1 7971   6.951   1.308   1.110
 2669TIP3    H2 7972   6.875   1.436   1.085
 2670TIP3   OH2 7973   2.707   5.770   1.091
 2670TIP3    H1 7974   2.720   5.676   1.084
 2670TIP3    H2 7975   2.793   5.805   1.117
 2671TIP3   OH2 7976   1.289   3.854   1.656
 2671TIP3    H1 7977   1.328   3.888   1.737
 2671TIP3    H2 7978   1.256   3.768   1.680
 2672TIP3   OH2 7979   3.694   0.759   4.069
 2672TIP3    H1 7980   3.650   0.693   4.015
 2672TIP3    H2 7981   3.642   0.838   4.057
 2673TIP3   OH2 7982   4.666   3.024   1.538
 2673TIP3    H1 7983   4.700   3.018   1.449
 2673TIP3    H2 7984   4.589   3.079   1.531
 2674TIP3   OH2 7985   5.995   0.082   5.121
 2674TIP3    H1 7986   6.032   0.004   5.162
 2674TIP3    H2 7987   5.933   0.116   5.186
 2675TIP3   OH2 7988   6.661   4.550   0.086
 2675TIP3    H1 7989   6.590   4.491   0.059
 2675TIP3    H2 7990   6.689   4.593   0.005
 2676TIP3   OH2 7991   6.552   5.865   0.150
 2676TIP3    H1 7992   6.497   5.827   0.219
 2676TIP3    H2 7993   6.578   5.791   0.096
 2677TIP3   OH2 7994   2.528   2.404   4.440
 2677TIP3    H1 7995   2.443   2.360   4.446
 2677TIP3    H2 7996   2.592   2.338   4.466
 2678TIP3   OH2 7997   6.093   4.629   1.783
 2678TIP3    H1 7998   6.091   4.599   1.874
 2678TIP3    H2 7999   6.098   4.548   1.731
 2679TIP3   OH2 8000   2.464   3.260   0.886
 2679TIP3    H1 8001   2.388   3.202   0.895
 2679TIP3    H2 8002   2.427   3.349   0.892
 2680TIP3   OH2 8003   7.097   4.733   1.818
 2680TIP3    H1 8004   7.159   4.806   1.814
 2680TIP3    H2 8005   7.072   4.728   1.911
 2681TIP3   OH2 8006   6.595   0.783   1.282
 2681TIP3    H1 8007   6.506   0.818   1.287
 2681TIP3    H2 8008   6.590   0.714   1.216
 2682TIP3   OH2 8009   6.692   4.340   1.058
 2682TIP3    H1 8010   6.655   4.252   1.058
 2682TIP3    H2 8011   6.774   4.332   1.008
 2683TIP3   OH2 8012   0.008   0.033   4.177
 2683TIP3    H1 8013  -0.059  -0.018   4.131
 2683TIP3    H2 8014  -0.012   0.124   4.156
 2684TIP3   OH2 8015   3.984   6.681   4.907
 2684TIP3    H1 8016   3.899   6.669   4.866
 2684TIP3    H2 8017   3.973   6.646   4.996
 2685TIP3   OH2 8018   7.167   1.922   1.454
 2685TIP3    H1 8019   7.122   1.960   1.529
 2685TIP3    H2 8020   7.103   1.863   1.415
 2686TIP3   OH2 8021   1.285   6.466   3.790
 2686TIP3    H1 8022   1.225   6.502   3.725
 2686TIP3    H2 8023   1.370   6.504   3.768
 2687TIP3   OH2 8024   4.398   0.107   3.607
 2687TIP3    H1 8025   4.461   0.174   3.633
 2687TIP3    H2 8026   4.382   0.057   3.687
 2688TIP3   OH2 8027   0.387   0.368   2.086
 2688TIP3    H1 8028   0.460   0.338   2.139
 2688TIP3    H2 8029   0.309   0.345   2.137
 2689TIP3   OH2 8030   3.592   5.945   0.328
 2689TIP3    H1 8031   3.506   5.956   0.286
 2689TIP3    H2 8032   3.634   5.874   0.278
 2690TIP3   OH2 8033   3.860   1.842   5.446
 2690TIP3    H1 8034   3.795   1.911   5.455
 2690TIP3    H2 8035   3.876   1.812   5.536
 2691TIP3   OH2 8036   2.552   4.573   0.375
 2691TIP3    H1 8037   2.622   4.639   0.379
 2691TIP3    H2 8038   2.565   4.520   0.453
 2692TIP3   OH2 8039   5.465   3.190   2.028
 2692TIP3    H1 8040   5.376   3.222   2.012
 2692TIP3    H2 8041   5.508   3.192   1.943
 2693TIP3   OH2 8042   3.493   1.239   0.183
 2693TIP3    H1 8043   3.440   1.220   0.261
 2693TIP3    H2 8044   3.488   1.334   0.173
 2694TIP3   OH2 8045   4.864   4.810   5.518
 2694TIP3    H1 8046   4.795   4.856   5.567
 2694TIP3    H2 8047   4.894   4.741   5.578
 2695TIP3   OH2 8048   1.915   1.450   5.134
 2695TIP3    H1 8049   1.847   1.517   5.147
 2695TIP3    H2 8050   1.878   1.371   5.174
 2696TIP3   OH2 8051   3.399   2.198   0.005
 2696TIP3    H1 8052   3.472   2.261   0.009
 2696TIP3    H2 8053   3.435   2.119   0.045
 2697TIP3   OH2 8054   5.166   5.443   0.121
 2697TIP3    H1 8055   5.131   5.443   0.032
 2697TIP3    H2 8056   5.088   5.434   0.177
 2698TIP3   OH2 8057   1.922   1.925   3.342
 2698TIP3    H1 8058   1.882   2.004   3.379
 2698TIP3    H2 8059   1.970   1.886   3.415
 2699TIP3   OH2 8060   0.570   1.062   2.410
 2699TIP3    H1 8061   0.637   1.113   2.364
 2699TIP3    H2 8062   0.562   1.105   2.495
 2700TIP3   OH2 8063   3.685   3.907   0.810
 2700TIP3    H1 8064   3.641   3.984   0.844
 2700TIP3    H2 8065   3.634   3.882   0.733
 2701TIP3   OH2 8066   2.933   5.579   3.751
 2701TIP3    H1 8067   2.847   5.606   3.782
 2701TIP3    H2 8068   2.939   5.615   3.663
 2702TIP3   OH2 8069   6.213   4.869   5.656
 2702TIP3    H1 8070   6.253   4.910   5.579
 2702TIP3    H2 8071   6.247   4.919   5.730
 2703TIP3   OH2 8072   5.420   2.522   1.003
 2703TIP3    H1 8073   5.384   2.578   1.072
 2703TIP3    H2 8074   5.511   2.551   0.994
 2704TIP3   OH2 8075   0.443   6.085   0.769
 2704TIP3    H1 8076   0.435   5.992   0.791
 2704TIP3    H2 8077   0.374   6.127   0.820
 2705TIP3   OH2 8078   5.417   3.898   5.295
 2705TIP3    H1 8079   5.477   3.847   5.348
 2705TIP3    H2 8080   5.330   3.879   5.332
 2706TIP3   OH2 8081   1.497   1.628   5.385
 2706TIP3    H1 8082   1.410   1.608   5.351
 2706TIP3    H2 8083   1.511   1.564   5.455
 2707TIP3   OH2 8084   3.783   4.351   4.246
 2707TIP3    H1 8085   3.737   4.268   4.260
 2707TIP3    H2 8086   3.773   4.398   4.328
 2708TIP3   OH2 8087   1.665   3.912   2.062
 2708TIP3    H1 8088   1.706   3.839   2.108
 2708TIP3    H2 8089   1.619   3.961   2.130
 2709TIP3   OH2 8090   6.576   0.136   3.350
 2709TIP3    H1 8091   6.562   0.065   3.413
 2709TIP3    H2 8092   6.647   0.104   3.294
 2710TIP3   OH2 8093   4.820   0.419   5.305
 2710TIP3    H1 8094   4.884   0.382   5.243
 2710TIP3    H2 8095   4.735   0.396   5.268
 2711TIP3   OH2 8096   3.547   1.670   4.936
 2711TIP3    H1 8097   3.451   1.672   4.936
 2711TIP3    H2 8098   3.573   1.761   4.917
 2712TIP3   OH2 8099   1.680   6.601   3.518
 2712TIP3    H1 8100   1.744   6.609   3.589
 2712TIP3    H2 8101   1.713   6.658   3.449
 2713TIP3   OH2 8102   4.866   0.731   1.121
 2713TIP3    H1 8103   4.918   0.651   1.112
 2713TIP3    H2 8104   4.872   0.773   1.035
 2714TIP3   OH2 8105   5.540   0.172   2.791
 2714TIP3    H1 8106   5.621   0.201   2.832
 2714TIP3    H2 8107   5.546   0.205   2.701
 2715TIP3   OH2 8108   5.219   4.577   1.449
 2715TIP3    H1 8109   5.264   4.555   1.368
 2715TIP3    H2 8110   5.289   4.588   1.514
 2716TIP3   OH2 8111   0.120   2.699   5.810
 2716TIP3    H1 8112   0.181   2.628   5.790
 2716TIP3    H2 8113   0.115   2.750   5.729
 2717TIP3   OH2 8114   6.276   5.242   2.080
 2717TIP3    H1 8115   6.211   5.309   2.101
 2717TIP3    H2 8116   6.357   5.274   2.119
 2718TIP3   OH2 8117   1.910   4.678   2.343
 2718TIP3    H1 8118   1.977   4.700   2.278
 2718TIP3    H2 8119   1.881   4.763   2.377
 2719TIP3   OH2 8120   1.029   4.618   4.264
 2719TIP3    H1 8121   0.975   4.678   4.316
 2719TIP3    H2 8122   1.077   4.567   4.329
 2720TIP3   OH2 8123   5.423   3.385   4.726
 2720TIP3    H1 8124   5.334   3.368   4.695
 2720TIP3    H2 8125   5.468   3.301   4.716
 2721TIP3   OH2 8126   4.226   0.647   1.886
 2721TIP3    H1 8127   4.180   0.724   1.852
 2721TIP3    H2 8128   4.200   0.576   1.827
 2722TIP3   OH2 8129   3.471   2.347   2.457
 2722TIP3    H1 8130   3.430   2.260   2.461
 2722TIP3    H2 8131   3.469   2.369   2.364
 2723TIP3   OH2 8132   1.364   3.342   2.459
 2723TIP3    H1 8133   1.428   3.413   2.455
 2723TIP3    H2 8134   1.306   3.366   2.530
 2724TIP3   OH2 8135   2.589   0.903   4.860
 2724TIP3    H1 8136   2.587   0.825   4.915
 2724TIP3    H2 8137   2.603   0.869   4.771
 2725TIP3   OH2 8138   5.822   3.684   1.224
 2725TIP3    H1 8139   5.906   3.730   1.227
 2725TIP3    H2 8140   5.777   3.720   1.148
 2726TIP3   OH2 8141   3.136   3.460   4.521
 2726TIP3    H1 8142   3.131   3.555   4.512
 2726TIP3    H2 8143   3.163   3.429   4.434
 2727TIP3   OH2 8144   1.230   4.256   4.108
 2727TIP3    H1 8145   1.151   4.251   4.163
 2727TIP3    H2 8146   1.268   4.168   4.113
 2728TIP3   OH2 8147   5.780   3.477   4.559
 2728TIP3    H1 8148   5.774   3.565   4.522
 2728TIP3    H2 8149   5.752   3.487   4.650
 2729TIP3   OH2 8150   3.975   0.205   5.101
 2729TIP3    H1 8151   3.926   0.160   5.032
 2729TIP3    H2 8152   3.917   0.276   5.128
 2730TIP3   OH2 8153   6.715   4.916   1.820
 2730TIP3    H1 8154   6.675   4.998   1.847
 2730TIP3    H2 8155   6.779   4.942   1.753
 2731TIP3   OH2 8156   5.133   3.980   4.981
 2731TIP3    H1 8157   5.189   4.056   4.996
 2731TIP3    H2 8158   5.186   3.921   4.928
 2732TIP3   OH2 8159   6.842   1.006   2.647
 2732TIP3    H1 8160   6.890   0.953   2.583
 2732TIP3    H2 8161   6.830   0.947   2.722
 2733TIP3   OH2 8162   0.381   5.260   2.925
 2733TIP3    H1 8163   0.296   5.248   2.882
 2733TIP3    H2 8164   0.358   5.292   3.013
 2734TIP3   OH2 8165   0.044   4.656   5.290
 2734TIP3    H1 8166   0.003   4.570   5.301
 2734TIP3    H2 8167  -0.017   4.718   5.330
 2735TIP3   OH2 8168   1.939   0.059   1.305
 2735TIP3    H1 8169   1.945  -0.017   1.247
 2735TIP3    H2 8170   2.007   0.118   1.274
 2736TIP3   OH2 8171   3.491   4.904   2.769
 2736TIP3    H1 8172   3.419   4.891   2.708
 2736TIP3    H2 8173   3.564   4.855   2.730
 2737TIP3   OH2 8174   4.847   2.223   5.154
 2737TIP3    H1 8175   4.931   2.267   5.145
 2737TIP3    H2 8176   4.858   2.164   5.229
 2738TIP3   OH2 8177   6.071   1.889   4.476
 2738TIP3    H1 8178   6.027   1.824   4.530
 2738TIP3    H2 8179   6.027   1.972   4.496
 2739TIP3   OH2 8180   6.893   0.180   3.494
 2739TIP3    H1 8181   6.875   0.257   3.440
 2739TIP3    H2 8182   6.881   0.106   3.434
 2740TIP3   OH2 8183   2.203   4.466   1.069
 2740TIP3    H1 8184   2.145   4.392   1.091
 2740TIP3    H2 8185   2.214   4.461   0.974
 2741TIP3   OH2 8186   4.504   1.445   2.981
 2741TIP3    H1 8187   4.521   1.466   3.073
 2741TIP3    H2 8188   4.488   1.530   2.940
 2742TIP3   OH2 8189   0.985   3.496   1.593
 2742TIP3    H1 8190   0.984   3.539   1.508
 2742TIP3    H2 8191   1.078   3.496   1.618
 2743TIP3   OH2 8192   2.044   3.906   0.879
 2743TIP3    H1 8193   2.016   3.961   0.805
 2743TIP3    H2 8194   1.964   3.860   0.906
 2744TIP3   OH2 8195   3.112   1.637   2.031
 2744TIP3    H1 8196   3.196   1.639   1.985
 2744TIP3    H2 8197   3.121   1.565   2.094
 2745TIP3   OH2 8198   7.112   2.897   5.880
 2745TIP3    H1 8199   7.175   2.969   5.878
 2745TIP3    H2 8200   7.164   2.819   5.861
 2746TIP3   OH2 8201   4.758   1.566   4.715
 2746TIP3    H1 8202   4.829   1.614   4.757
 2746TIP3    H2 8203   4.687   1.566   4.779
 2747TIP3   OH2 8204   4.079   0.852   2.721
 2747TIP3    H1 8205   4.099   0.898   2.803
 2747TIP3    H2 8206   4.155   0.796   2.706
 2748TIP3   OH2 8207   5.910   6.057   1.810
 2748TIP3    H1 8208   5.892   6.011   1.728
 2748TIP3    H2 8209   5.823   6.075   1.847
 2749TIP3   OH2 8210   0.196   0.966   0.821
 2749TIP3    H1 8211   0.258   0.894   0.822
 2749TIP3    H2 8212   0.241   1.037   0.775
 2750TIP3   OH2 8213   5.543   0.183   1.414
 2750TIP3    H1 8214   5.587   0.267   1.403
 2750TIP3    H2 8215   5.460   0.193   1.369
 2751TIP3   OH2 8216   4.845   6.594   5.135
 2751TIP3    H1 8217   4.760   6.554   5.156
 2751TIP3    H2 8218   4.904   6.520   5.121
 2752TIP3   OH2 8219   5.468   0.868   3.954
 2752TIP3    H1 8220   5.435   0.946   3.998
 2752TIP3    H2 8221   5.392   0.809   3.950
 2753TIP3   OH2 8222   1.166   1.389   2.344
 2753TIP3    H1 8223   1.131   1.332   2.276
 2753TIP3    H2 8224   1.121   1.473   2.330
 2754TIP3   OH2 8225   4.471   0.961   0.737
 2754TIP3    H1 8226   4.523   1.005   0.805
 2754TIP3    H2 8227   4.421   1.031   0.695
 2755TIP3   OH2 8228   5.604   4.850   2.007
 2755TIP3    H1 8229   5.647   4.798   1.939
 2755TIP3    H2 8230   5.663   4.925   2.020
 2756TIP3   OH2 8231   0.370   6.645   0.578
 2756TIP3    H1 8232   0.286   6.600   0.586
 2756TIP3    H2 8233   0.430   6.578   0.545
 2757TIP3   OH2 8234   2.297   3.687   3.260
 2757TIP3    H1 8235   2.264   3.612   3.211
 2757TIP3    H2 8236   2.391   3.687   3.243
 2758TIP3   OH2 8237   1.020   3.973   3.552
 2758TIP3    H1 8238   0.938   3.980   3.504
 2758TIP3    H2 8239   1.061   4.060   3.542
 2759TIP3   OH2 8240   5.153   0.995   0.802
 2759TIP3    H1 8241   5.225   0.994   0.865
 2759TIP3    H2 8242   5.141   0.903   0.777
 2760TIP3   OH2 8243   6.683   3.016   2.998
 2760TIP3    H1 8244   6.597   3.057   3.015
 2760TIP3    H2 8245   6.733   3.084   2.953
 2761TIP3   OH2 8246   5.918   1.160   2.188
 2761TIP3    H1 8247   5.914   1.088   2.126
 2761TIP3    H2 8248   5.897   1.120   2.273
 2762TIP3   OH2 8249   1.042   4.160   4.308
 2762TIP3    H1 8250   0.970   4.122   4.259
 2762TIP3    H2 8251   1.004   4.236   4.352
 2763TIP3   OH2 8252   1.755   3.585   2.451
 2763TIP3    H1 8253   1.770   3.498   2.415
 2763TIP3    H2 8254   1.665   3.584   2.483
 2764TIP3   OH2 8255   5.708   5.072   2.912
 2764TIP3    H1 8256   5.777   5.043   2.971
 2764TIP3    H2 8257   5.676   4.991   2.871
 2765TIP3   OH2 8258   6.340   4.596   5.668
 2765TIP3    H1 8259   6.289   4.676   5.655
 2765TIP3    H2 8260   6.282   4.526   5.641
 2766TIP3   OH2 8261   0.178   1.067   4.727
 2766TIP3    H1 8262   0.146   1.010   4.796
 2766TIP3    H2 8263   0.211   1.008   4.659
 2767TIP3   OH2 8264   2.885   3.592   1.365
 2767TIP3    H1 8265   2.863   3.655   1.296
 2767TIP3    H2 8266   2.821   3.609   1.434
 2768TIP3   OH2 8267   3.492   2.812   4.397
 2768TIP3    H1 8268   3.489   2.717   4.393
 2768TIP3    H2 8269   3.433   2.841   4.327
 2769TIP3   OH2 8270   3.616   2.328   4.023
 2769TIP3    H1 8271   3.563   2.277   4.084
 2769TIP3    H2 8272   3.675   2.264   3.983
 2770TIP3   OH2 8273   5.333   4.344   3.858
 2770TIP3    H1 8274   5.399   4.409   3.835
 2770TIP3    H2 8275   5.380   4.262   3.866
 2771TIP3   OH2 8276   1.029   4.018   0.564
 2771TIP3    H1 8277   0.959   3.955   0.544
 2771TIP3    H2 8278   1.073   3.981   0.641
 2772TIP3   OH2 8279   4.733   3.738   3.996
 2772TIP3    H1 8280   4.768   3.654   4.028
 2772TIP3    H2 8281   4.645   3.716   3.965
 2773TIP3   OH2 8282   5.734   5.089   0.125
 2773TIP3    H1 8283   5.640   5.068   0.122
 2773TIP3    H2 8284   5.741   5.155   0.194
 2774TIP3   OH2 8285   6.146   5.064   1.245
 2774TIP3    H1 8286   6.126   5.143   1.296
 2774TIP3    H2 8287   6.126   4.991   1.304
 2775TIP3   OH2 8288   2.512   2.646   4.380
 2775TIP3    H1 8289   2.510   2.551   4.392
 2775TIP3    H2 8290   2.596   2.663   4.337
 2776TIP3   OH2 8291   2.628   6.565   2.561
 2776TIP3    H1 8292   2.670   6.580   2.476
 2776TIP3    H2 8293   2.652   6.475   2.584
 2777TIP3   OH2 8294   6.357   3.740   2.529
 2777TIP3    H1 8295   6.283   3.737   2.468
 2777TIP3    H2 8296   6.412   3.811   2.495
 2778TIP3   OH2 8297   5.203   6.044   3.578
 2778TIP3    H1 8298   5.119   6.049   3.531
 2778TIP3    H2 8299   5.184   5.989   3.654
 2779TIP3   OH2 8300   5.356   5.125   2.263
 2779TIP3    H1 8301   5.435   5.179   2.260
 2779TIP3    H2 8302   5.311   5.153   2.342
 2780TIP3   OH2 8303   2.344   1.103   2.345
 2780TIP3    H1 8304   2.348   1.036   2.276
 2780TIP3    H2 8305   2.359   1.054   2.426
 2781TIP3   OH2 8306   0.538   5.236   3.852
 2781TIP3    H1 8307   0.534   5.145   3.882
 2781TIP3    H2 8308   0.586   5.232   3.770
 2782TIP3   OH2 8309   6.834   2.382   3.038
 2782TIP3    H1 8310   6.923   2.355   3.014
 2782TIP3    H2 8311   6.828   2.363   3.132
 2783TIP3   OH2 8312   5.747   6.385   2.682
 2783TIP3    H1 8313   5.715   6.319   2.620
 2783TIP3    H2 8314   5.833   6.352   2.709
 2784TIP3   OH2 8315   1.036   4.000   1.907
 2784TIP3    H1 8316   1.069   4.050   1.833
 2784TIP3    H2 8317   1.112   3.987   1.964
 2785TIP3   OH2 8318   2.050   2.124   2.269
 2785TIP3    H1 8319   1.965   2.127   2.313
 2785TIP3    H2 8320   2.052   2.037   2.228
 2786TIP3   OH2 8321   3.396   5.998   5.632
 2786TIP3    H1 8322   3.440   6.081   5.647
 2786TIP3    H2 8323   3.467   5.934   5.626
 2787TIP3   OH2 8324   6.949   4.999   2.306
 2787TIP3    H1 8325   7.035   5.003   2.263
 2787TIP3    H2 8326   6.887   4.992   2.234
 2788TIP3   OH2 8327   0.830   4.667   0.494
 2788TIP3    H1 8328   0.903   4.694   0.549
 2788TIP3    H2 8329   0.763   4.734   0.507
 2789TIP3   OH2 8330   2.921   4.551   2.644
 2789TIP3    H1 8331   2.966   4.536   2.727
 2789TIP3    H2 8332   2.988   4.534   2.578
 2790TIP3   OH2 8333   3.196   1.161   3.452
 2790TIP3    H1 8334   3.276   1.158   3.504
 2790TIP3    H2 8335   3.164   1.071   3.453
 2791TIP3   OH2 8336   5.045   2.288   2.666
 2791TIP3    H1 8337   4.973   2.289   2.603
 2791TIP3    H2 8338   5.123   2.299   2.613
 2792TIP3   OH2 8339   5.111   3.647   1.580
 2792TIP3    H1 8340   5.053   3.718   1.606
 2792TIP3    H2 8341   5.179   3.689   1.526
 2793TIP3   OH2 8342   5.980   3.927   2.105
 2793TIP3    H1 8343   6.032   3.988   2.052
 2793TIP3    H2 8344   5.970   3.971   2.190
 2794TIP3   OH2 8345   6.039   5.474   3.967
 2794TIP3    H1 8346   5.986   5.465   4.047
 2794TIP3    H2 8347   6.128   5.486   3.999
 2795TIP3   OH2 8348   6.570   4.895   4.462
 2795TIP3    H1 8349   6.636   4.832   4.493
 2795TIP3    H2 8350   6.492   4.842   4.446
 2796TIP3   OH2 8351   2.509   5.559   5.048
 2796TIP3    H1 8352   2.419   5.587   5.063
 2796TIP3    H2 8353   2.561   5.611   5.109
 2797TIP3   OH2 8354   1.975   5.640   3.806
 2797TIP3    H1 8355   1.910   5.579   3.771
 2797TIP3    H2 8356   1.954   5.646   3.900
 2798TIP3   OH2 8357   5.037   0.665   3.170
 2798TIP3    H1 8358   5.070   0.622   3.249
 2798TIP3    H2 8359   5.039   0.758   3.191
 2799TIP3   OH2 8360   2.330   6.211   3.747
 2799TIP3    H1 8361   2.318   6.137   3.806
 2799TIP3    H2 8362   2.251   6.263   3.757
 2800TIP3   OH2 8363   4.238   6.712   1.566
 2800TIP3    H1 8364   4.225   6.779   1.499
 2800TIP3    H2 8365   4.152   6.699   1.604
 2801TIP3   OH2 8366   1.230   5.756   0.501
 2801TIP3    H1 8367   1.315   5.762   0.544
 2801TIP3    H2 8368   1.251   5.748   0.408
 2802TIP3   OH2 8369   3.139   3.790   2.785
 2802TIP3    H1 8370   3.188   3.871   2.800
 2802TIP3    H2 8371   3.198   3.736   2.733
 2803TIP3   OH2 8372   5.323   3.344   1.836
 2803TIP3    H1 8373   5.391   3.404   1.865
 2803TIP3    H2 8374   5.242   3.394   1.844
 2804TIP3   OH2 8375   3.478   1.827   2.771
 2804TIP3    H1 8376   3.563   1.832   2.728
 2804TIP3    H2 8377   3.473   1.906   2.824
 2805TIP3   OH2 8378   6.314   6.343   0.772
 2805TIP3    H1 8379   6.264   6.371   0.849
 2805TIP3    H2 8380   6.340   6.425   0.730
 2806TIP3   OH2 8381   3.072   2.962   4.736
 2806TIP3    H1 8382   3.126   2.899   4.689
 2806TIP3    H2 8383   3.027   3.012   4.668
 2807TIP3   OH2 8384   3.980   5.503   2.742
 2807TIP3    H1 8385   3.886   5.488   2.753
 2807TIP3    H2 8386   4.001   5.570   2.807
 2808TIP3   OH2 8387   4.247   2.541   0.239
 2808TIP3    H1 8388   4.218   2.611   0.297
 2808TIP3    H2 8389   4.324   2.576   0.195
 2809TIP3   OH2 8390   7.186   1.720   3.867
 2809TIP3    H1 8391   7.104   1.744   3.909
 2809TIP3    H2 8392   7.220   1.801   3.831
 2810TIP3   OH2 8393   5.485   1.013   0.100
 2810TIP3    H1 8394   5.497   1.107   0.116
 2810TIP3    H2 8395   5.568   0.985   0.062
 2811TIP3   OH2 8396   1.111   2.666   2.034
 2811TIP3    H1 8397   1.184   2.608   2.016
 2811TIP3    H2 8398   1.088   2.704   1.950
 2812TIP3   OH2 8399   6.515   2.188   0.910
 2812TIP3    H1 8400   6.595   2.146   0.943
 2812TIP3    H2 8401   6.512   2.272   0.955
 2813TIP3   OH2 8402   3.324   3.950   5.243
 2813TIP3    H1 8403   3.271   3.993   5.310
 2813TIP3    H2 8404   3.395   3.908   5.291
 2814TIP3   OH2 8405   3.856   3.368   4.368
 2814TIP3    H1 8406   3.908   3.436   4.325
 2814TIP3    H2 8407   3.848   3.299   4.301
 2815TIP3   OH2 8408   2.879   3.564   5.556
 2815TIP3    H1 8409   2.906   3.607   5.474
 2815TIP3    H2 8410   2.930   3.483   5.558
 2816TIP3   OH2 8411   6.695   3.036   4.672
 2816TIP3    H1 8412   6.672   2.951   4.635
 2816TIP3    H2 8413   6.713   3.017   4.764
 2817TIP3   OH2 8414   0.512   0.727   3.589
 2817TIP3    H1 8415   0.560   0.805   3.618
 2817TIP3    H2 8416   0.487   0.683   3.670
 2818TIP3   OH2 8417   5.873   5.540   1.388
 2818TIP3    H1 8418   5.807   5.606   1.372
 2818TIP3    H2 8419   5.853   5.470   1.325
 2819TIP3   OH2 8420   3.395   4.982   1.535
 2819TIP3    H1 8421   3.422   5.006   1.623
 2819TIP3    H2 8422   3.397   4.887   1.533
 2820TIP3   OH2 8423   0.178   4.761   0.329
 2820TIP3    H1 8424   0.147   4.684   0.377
 2820TIP3    H2 8425   0.119   4.769   0.255
 2821TIP3   OH2 8426   6.069   1.711   3.770
 2821TIP3    H1 8427   5.976   1.730   3.753
 2821TIP3    H2 8428   6.080   1.728   3.863
 2822TIP3   OH2 8429   4.530   1.378   3.491
 2822TIP3    H1 8430   4.617   1.395   3.526
 2822TIP3    H2 8431   4.479   1.348   3.567
 2823TIP3   OH2 8432   2.492   3.874   0.577
 2823TIP3    H1 8433   2.576   3.864   0.622
 2823TIP3    H2 8434   2.464   3.784   0.559
 2824TIP3   OH2 8435   7.009   1.339   0.552
 2824TIP3    H1 8436   6.914   1.341   0.535
 2824TIP3    H2 8437   7.020   1.272   0.619
 2825TIP3   OH2 8438   4.435   3.086   4.995
 2825TIP3    H1 8439   4.458   2.993   4.993
 2825TIP3    H2 8440   4.476   3.120   5.074
 2826TIP3   OH2 8441   4.760   6.634   2.815
 2826TIP3    H1 8442   4.742   6.719   2.775
 2826TIP3    H2 8443   4.838   6.649   2.869
 2827TIP3   OH2 8444   3.607   2.446   1.434
 2827TIP3    H1 8445   3.529   2.392   1.449
 2827TIP3    H2 8446   3.617   2.496   1.515
 2828TIP3   OH2 8447   4.481   1.384   0.222
 2828TIP3    H1 8448   4.488   1.298   0.181
 2828TIP3    H2 8449   4.564   1.396   0.267
 2829TIP3   OH2 8450   1.490   4.276   0.262
 2829TIP3    H1 8451   1.515   4.184   0.264
 2829TIP3    H2 8452   1.573   4.323   0.247
 2830TIP3   OH2 8453   0.535   2.225   0.410
 2830TIP3    H1 8454   0.592   2.274   0.469
 2830TIP3    H2 8455   0.460   2.282   0.395
 2831TIP3   OH2 8456   0.922   5.007   0.082
 2831TIP3    H1 8457   0.965   4.972   0.004
 2831TIP3    H2 8458   0.895   4.930   0.131
 2832TIP3   OH2 8459   3.306   5.847   4.514
 2832TIP3    H1 8460   3.228   5.901   4.521
 2832TIP3    H2 8461   3.294   5.779   4.581
 2833TIP3   OH2 8462   2.067   6.488   2.502
 2833TIP3    H1 8463   2.033   6.400   2.486
 2833TIP3    H2 8464   1.993   6.536   2.540
 2834TIP3   OH2 8465   5.122   1.963   1.930
 2834TIP3    H1 8466   5.097   1.871   1.919
 2834TIP3    H2 8467   5.125   1.998   1.841
 2835TIP3   OH2 8468   6.549   4.050   1.089
 2835TIP3    H1 8469   6.484   4.105   1.133
 2835TIP3    H2 8470   6.503   3.968   1.073
 2836TIP3   OH2 8471   5.998   0.457   3.652
 2836TIP3    H1 8472   6.093   0.454   3.646
 2836TIP3    H2 8473   5.973   0.530   3.595
 2837TIP3   OH2 8474   1.389   6.625   4.310
 2837TIP3    H1 8475   1.309   6.628   4.258
 2837TIP3    H2 8476   1.360   6.619   4.400
 2838TIP3   OH2 8477   3.996   5.632   1.200
 2838TIP3    H1 8478   3.955   5.583   1.271
 2838TIP3    H2 8479   4.051   5.568   1.155
 2839TIP3   OH2 8480   1.665   1.612   0.267
 2839TIP3    H1 8481   1.659   1.548   0.196
 2839TIP3    H2 8482   1.591   1.590   0.325
 2840TIP3   OH2 8483   3.695   5.378   1.958
 2840TIP3    H1 8484   3.654   5.459   1.928
 2840TIP3    H2 8485   3.772   5.368   1.903
 2841TIP3   OH2 8486   6.947   3.888   2.494
 2841TIP3    H1 8487   6.854   3.869   2.504
 2841TIP3    H2 8488   6.986   3.806   2.464
 2842TIP3   OH2 8489   1.463   2.887   4.742
 2842TIP3    H1 8490   1.519   2.961   4.717
 2842TIP3    H2 8491   1.519   2.810   4.734
 2843TIP3   OH2 8492   6.055   4.623   0.515
 2843TIP3    H1 8493   6.123   4.556   0.515
 2843TIP3    H2 8494   5.989   4.590   0.455
 2844TIP3   OH2 8495   3.687   4.475   0.488
 2844TIP3    H1 8496   3.755   4.543   0.484
 2844TIP3    H2 8497   3.651   4.483   0.577
 2845TIP3   OH2 8498   6.530   4.660   1.649
 2845TIP3    H1 8499   6.552   4.657   1.742
 2845TIP3    H2 8500   6.565   4.579   1.613
 2846TIP3   OH2 8501   0.357   6.566   0.249
 2846TIP3    H1 8502   0.301   6.537   0.321
 2846TIP3    H2 8503   0.317   6.648   0.219
 2847TIP3   OH2 8504   0.029   2.536   0.942
 2847TIP3    H1 8505   0.074   2.544   0.858
 2847TIP3    H2 8506   0.050   2.617   0.989
 2848TIP3   OH2 8507   1.726   0.164   2.350
 2848TIP3    H1 8508   1.653   0.115   2.313
 2848TIP3    H2 8509   1.705   0.171   2.443
 2849TIP3   OH2 8510   4.347   0.883   3.170
 2849TIP3    H1 8511   4.333   0.817   3.238
 2849TIP3    H2 8512   4.385   0.958   3.216
 2850TIP3   OH2 8513   2.535   2.223   2.331
 2850TIP3    H1 8514   2.460   2.221   2.271
 2850TIP3    H2 8515   2.610   2.201   2.276
 2851TIP3   OH2 8516   1.886   6.364   1.152
 2851TIP3    H1 8517   1.975   6.390   1.128
 2851TIP3    H2 8518   1.842   6.349   1.068
 2852TIP3   OH2 8519   4.991   0.425   5.520
 2852TIP3    H1 8520   4.919   0.435   5.459
 2852TIP3    H2 8521   5.017   0.333   5.512
 2853TIP3   OH2 8522   4.156   1.901   1.077
 2853TIP3    H1 8523   4.175   1.952   1.155
 2853TIP3    H2 8524   4.085   1.948   1.033
 2854TIP3   OH2 8525   7.112   1.782   4.923
 2854TIP3    H1 8526   7.168   1.818   4.992
 2854TIP3    H2 8527   7.068   1.859   4.886
 2855TIP3   OH2 8528   0.831   5.357   3.922
 2855TIP3    H1 8529   0.784   5.281   3.886
 2855TIP3    H2 8530   0.773   5.431   3.905
 2856TIP3   OH2 8531   5.823   2.444   4.984
 2856TIP3    H1 8532   5.848   2.523   5.031
 2856TIP3    H2 8533   5.727   2.443   4.987
 2857TIP3   OH2 8534   2.199   6.142   2.729
 2857TIP3    H1 8535   2.138   6.077   2.694
 2857TIP3    H2 8536   2.162   6.166   2.814
 2858TIP3   OH2 8537   5.197   5.624   2.552
 2858TIP3    H1 8538   5.214   5.717   2.569
 2858TIP3    H2 8539   5.157   5.592   2.633
 2859TIP3   OH2 8540   4.237   6.361   0.912
 2859TIP3    H1 8541   4.178   6.308   0.965
 2859TIP3    H2 8542   4.183   6.395   0.841
 2860TIP3   OH2 8543   2.627   5.566   2.334
 2860TIP3    H1 8544   2.581   5.485   2.314
 2860TIP3    H2 8545   2.719   5.547   2.317
 2861TIP3   OH2 8546   0.240   5.767   2.860
 2861TIP3    H1 8547   0.240   5.777   2.956
 2861TIP3    H2 8548   0.153   5.794   2.833
 2862TIP3   OH2 8549   7.093   0.204   4.719
 2862TIP3    H1 8550   7.071   0.171   4.806
 2862TIP3    H2 8551   7.040   0.152   4.659
 2863TIP3   OH2 8552   4.765   4.175   0.759
 2863TIP3    H1 8553   4.693   4.155   0.699
 2863TIP3    H2 8554   4.755   4.269   0.778
 2864TIP3   OH2 8555   0.180   1.767   5.683
 2864TIP3    H1 8556   0.158   1.848   5.639
 2864TIP3    H2 8557   0.105   1.709   5.666
 2865TIP3   OH2 8558   3.995   4.657   4.617
 2865TIP3    H1 8559   3.984   4.672   4.524
 2865TIP3    H2 8560   3.958   4.735   4.659
 2866TIP3   OH2 8561   1.728   4.366   0.117
 2866TIP3    H1 8562   1.782   4.339   0.044
 2866TIP3    H2 8563   1.776   4.439   0.157
 2867TIP3   OH2 8564   7.049   2.592   1.191
 2867TIP3    H1 8565   7.129   2.622   1.149
 2867TIP3    H2 8566   7.022   2.516   1.140
 2868TIP3   OH2 8567   1.521   4.978   4.495
 2868TIP3    H1 8568   1.450   5.010   4.439
 2868TIP3    H2 8569   1.601   4.994   4.445
 2869TIP3   OH2 8570   5.514   6.062   5.389
 2869TIP3    H1 8571   5.588   6.097   5.438
 2869TIP3    H2 8572   5.457   6.137   5.374
 2870TIP3   OH2 8573   1.840   2.208   5.638
 2870TIP3    H1 8574   1.860   2.121   5.672
 2870TIP3    H2 8575   1.874   2.208   5.548
 2871TIP3   OH2 8576   2.531   0.319   5.127
 2871TIP3    H1 8577   2.478   0.324   5.048
 2871TIP3    H2 8578   2.502   0.240   5.171
 2872TIP3   OH2 8579   4.646   4.444   0.761
 2872TIP3    H1 8580   4.666   4.436   0.667
 2872TIP3    H2 8581   4.550   4.440   0.765
 2873TIP3   OH2 8582   4.030   6.320   1.866
 2873TIP3    H1 8583   4.015   6.327   1.772
 2873TIP3    H2 8584   4.012   6.228   1.887
 2874TIP3   OH2 8585   5.800   4.820   5.499
 2874TIP3    H1 8586   5.707   4.819   5.523
 2874TIP3    H2 8587   5.801   4.811   5.404
 2875TIP3   OH2 8588   3.869   2.203   3.893
 2875TIP3    H1 8589   3.813   2.127   3.876
 2875TIP3    H2 8590   3.954   2.165   3.915
 2876TIP3   OH2 8591   0.401   3.545   0.828
 2876TIP3    H1 8592   0.332   3.595   0.785
 2876TIP3    H2 8593   0.414   3.469   0.771
 2877TIP3   OH2 8594   4.749   4.119   0.016
 2877TIP3    H1 8595   4.747   4.062   0.093
 2877TIP3    H2 8596   4.714   4.065  -0.055
 2878TIP3   OH2 8597   5.326   4.886   3.810
 2878TIP3    H1 8598   5.367   4.802   3.829
 2878TIP3    H2 8599   5.251   4.890   3.868
 2879TIP3   OH2 8600   4.189   3.607   5.556
 2879TIP3    H1 8601   4.197   3.608   5.651
 2879TIP3    H2 8602   4.132   3.533   5.537
 2880TIP3   OH2 8603   6.217   3.626   0.035
 2880TIP3    H1 8604   6.186   3.700   0.087
 2880TIP3    H2 8605   6.218   3.552   0.096
 2881TIP3   OH2 8606   2.052   1.416   0.555
 2881TIP3    H1 8607   2.004   1.334   0.544
 2881TIP3    H2 8608   1.985   1.479   0.583
 2882TIP3   OH2 8609   6.315   0.849   4.585
 2882TIP3    H1 8610   6.244   0.810   4.637
 2882TIP3    H2 8611   6.381   0.780   4.580
 2883TIP3   OH2 8612   3.074   4.319   3.716
 2883TIP3    H1 8613   3.026   4.242   3.684
 2883TIP3    H2 8614   3.153   4.282   3.756
 2884TIP3   OH2 8615   1.656   5.193   2.808
 2884TIP3    H1 8616   1.561   5.202   2.818
 2884TIP3    H2 8617   1.668   5.161   2.718
 2885TIP3   OH2 8618   4.606   4.748   4.863
 2885TIP3    H1 8619   4.684   4.801   4.876
 2885TIP3    H2 8620   4.533   4.808   4.876
 2886TIP3   OH2 8621   5.165   4.698   2.732
 2886TIP3    H1 8622   5.113   4.619   2.745
 2886TIP3    H2 8623   5.221   4.678   2.657
 2887TIP3   OH2 8624   4.837   0.178   4.801
 2887TIP3    H1 8625   4.826   0.273   4.807
 2887TIP3    H2 8626   4.931   0.164   4.807
 2888TIP3   OH2 8627   4.750   2.069   0.807
 2888TIP3    H1 8628   4.838   2.050   0.839
 2888TIP3    H2 8629   4.741   2.164   0.817
 2889TIP3   OH2 8630   3.791   3.357   0.161
 2889TIP3    H1 8631   3.829   3.417   0.225
 2889TIP3    H2 8632   3.703   3.340   0.194
 2890TIP3   OH2 8633   3.310   4.866   1.217
 2890TIP3    H1 8634   3.391   4.918   1.215
 2890TIP3    H2 8635   3.338   4.780   1.249
 2891TIP3   OH2 8636   6.817   1.253   0.181
 2891TIP3    H1 8637   6.762   1.310   0.127
 2891TIP3    H2 8638   6.797   1.280   0.271
 2892TIP3   OH2 8639   1.585   0.079   0.412
 2892TIP3    H1 8640   1.617  -0.009   0.434
 2892TIP3    H2 8641   1.624   0.136   0.478
 2893TIP3   OH2 8642   3.066   1.095   1.552
 2893TIP3    H1 8643   3.146   1.102   1.604
 2893TIP3    H2 8644   3.049   1.001   1.546
 2894TIP3   OH2 8645   0.129   0.287   2.208
 2894TIP3    H1 8646   0.048   0.315   2.166
 2894TIP3    H2 8647   0.121   0.317   2.298
 2895TIP3   OH2 8648   5.339   5.458   2.273
 2895TIP3    H1 8649   5.354   5.405   2.351
 2895TIP3    H2 8650   5.353   5.548   2.302
 2896TIP3   OH2 8651   5.292   1.885   3.802
 2896TIP3    H1 8652   5.300   1.801   3.848
 2896TIP3    H2 8653   5.301   1.951   3.871
 2897TIP3   OH2 8654   7.111   5.963   1.215
 2897TIP3    H1 8655   7.189   6.018   1.224
 2897TIP3    H2 8656   7.046   6.006   1.271
 2898TIP3   OH2 8657   2.437   4.228   3.720
 2898TIP3    H1 8658   2.407   4.235   3.629
 2898TIP3    H2 8659   2.377   4.164   3.760
 2899TIP3   OH2 8660   2.515   4.865   0.563
 2899TIP3    H1 8661   2.523   4.856   0.469
 2899TIP3    H2 8662   2.435   4.915   0.576
 2900TIP3   OH2 8663   1.504   0.694   3.855
 2900TIP3    H1 8664   1.585   0.687   3.804
 2900TIP3    H2 8665   1.439   0.644   3.806
 2901TIP3   OH2 8666   4.647   4.995   4.139
 2901TIP3    H1 8667   4.557   5.015   4.110
 2901TIP3    H2 8668   4.635   4.951   4.223
 2902TIP3   OH2 8669   5.639   5.945   0.310
 2902TIP3    H1 8670   5.619   5.861   0.269
 2902TIP3    H2 8671   5.554   5.988   0.320
 2903TIP3   OH2 8672   5.308   2.221   4.789
 2903TIP3    H1 8673   5.327   2.315   4.791
 2903TIP3    H2 8674   5.273   2.205   4.701
 2904TIP3   OH2 8675   3.801   1.400   5.881
 2904TIP3    H1 8676   3.826   1.443   5.962
 2904TIP3    H2 8677   3.859   1.438   5.815
 2905TIP3   OH2 8678   0.389   1.397   5.260
 2905TIP3    H1 8679   0.398   1.303   5.246
 2905TIP3    H2 8680   0.326   1.425   5.193
 2906TIP3   OH2 8681   1.255   4.125   2.051
 2906TIP3    H1 8682   1.320   4.174   2.002
 2906TIP3    H2 8683   1.236   4.180   2.127
 2907TIP3   OH2 8684   3.490   2.869   2.336
 2907TIP3    H1 8685   3.543   2.875   2.416
 2907TIP3    H2 8686   3.401   2.852   2.368
 2908TIP3   OH2 8687   0.844   1.034   1.416
 2908TIP3    H1 8688   0.818   1.126   1.421
 2908TIP3    H2 8689   0.866   1.011   1.506
 2909TIP3   OH2 8690   2.792   1.358   2.488
 2909TIP3    H1 8691   2.710   1.407   2.488
 2909TIP3    H2 8692   2.796   1.316   2.402
 2910TIP3   OH2 8693   5.675   6.417   3.423
 2910TIP3    H1 8694   5.701   6.375   3.341
 2910TIP3    H2 8695   5.753   6.464   3.452
 2911TIP3   OH2 8696   4.667   2.236   1.527
 2911TIP3    H1 8697   4.732   2.276   1.585
 2911TIP3    H2 8698   4.667   2.144   1.552
 2912TIP3   OH2 8699   2.214   1.737   1.287
 2912TIP3    H1 8700   2.299   1.703   1.313
 2912TIP3    H2 8701   2.191   1.689   1.208
 2913TIP3   OH2 8702   0.510   5.578   3.554
 2913TIP3    H1 8703   0.517   5.555   3.647
 2913TIP3    H2 8704   0.467   5.663   3.554
 2914TIP3   OH2 8705   1.917   4.518   0.745
 2914TIP3    H1 8706   1.868   4.464   0.807
 2914TIP3    H2 8707   2.001   4.534   0.787
 2915TIP3   OH2 8708   0.257   0.628   1.912
 2915TIP3    H1 8709   0.227   0.682   1.838
 2915TIP3    H2 8710   0.194   0.645   1.982
 2916TIP3   OH2 8711   2.914   1.016   5.290
 2916TIP3    H1 8712   2.934   0.958   5.215
 2916TIP3    H2 8713   2.853   1.080   5.254
 2917TIP3   OH2 8714   5.585   6.208   3.743
 2917TIP3    H1 8715   5.558   6.202   3.834
 2917TIP3    H2 8716   5.672   6.248   3.746
 2918TIP3   OH2 8717   5.053   5.354   3.683
 2918TIP3    H1 8718   4.997   5.369   3.607
 2918TIP3    H2 8719   4.993   5.333   3.754
 2919TIP3   OH2 8720   6.732   2.622   1.687
 2919TIP3    H1 8721   6.696   2.582   1.608
 2919TIP3    H2 8722   6.669   2.690   1.711
 2920TIP3   OH2 8723   4.559   3.508   1.697
 2920TIP3    H1 8724   4.512   3.543   1.622
 2920TIP3    H2 8725   4.633   3.459   1.660
 2921TIP3   OH2 8726   5.433   0.915   3.684
 2921TIP3    H1 8727   5.472   0.840   3.639
 2921TIP3    H2 8728   5.434   0.890   3.777
 2922TIP3   OH2 8729   3.751   4.481   5.458
 2922TIP3    H1 8730   3.669   4.434   5.444
 2922TIP3    H2 8731   3.818   4.413   5.455
 2923TIP3   OH2 8732   5.106   5.366   4.171
 2923TIP3    H1 8733   5.088   5.434   4.237
 2923TIP3    H2 8734   5.103   5.412   4.087
 2924TIP3   OH2 8735   2.047   4.139   5.483
 2924TIP3    H1 8736   1.993   4.063   5.458
 2924TIP3    H2 8737   2.137   4.107   5.478
 2925TIP3   OH2 8738   1.572  -0.002   3.865
 2925TIP3    H1 8739   1.523   0.048   3.800
 2925TIP3    H2 8740   1.582   0.057   3.939
 2926TIP3   OH2 8741   2.226   5.048   4.005
 2926TIP3    H1 8742   2.174   4.980   4.049
 2926TIP3    H2 8743   2.306   5.003   3.979
 2927TIP3   OH2 8744   4.493   2.530   2.237
 2927TIP3    H1 8745   4.510   2.436   2.245
 2927TIP3    H2 8746   4.525   2.553   2.150
 2928TIP3   OH2 8747   5.324   6.558   3.890
 2928TIP3    H1 8748   5.349   6.650   3.895
 2928TIP3    H2 8749   5.321   6.529   3.981
 2929TIP3   OH2 8750   0.048   3.212   4.650
 2929TIP3    H1 8751   0.112   3.251   4.590
 2929TIP3    H2 8752  -0.036   3.247   4.622
 2930TIP3   OH2 8753   2.239   0.187   5.197
 2930TIP3    H1 8754   2.311   0.147   5.244
 2930TIP3    H2 8755   2.162   0.135   5.221
 2931TIP3   OH2 8756   3.604   1.438   2.504
 2931TIP3    H1 8757   3.679   1.452   2.563
 2931TIP3    H2 8758   3.564   1.524   2.496
 2932TIP3   OH2 8759   1.344   4.266   0.867
 2932TIP3    H1 8760   1.387   4.243   0.949
 2932TIP3    H2 8761   1.325   4.359   0.876
 2933TIP3   OH2 8762   5.113   1.029   4.830
 2933TIP3    H1 8763   5.102   0.938   4.857
 2933TIP3    H2 8764   5.160   1.070   4.904
 2934TIP3   OH2 8765   1.518   4.472   3.220
 2934TIP3    H1 8766   1.594   4.492   3.166
 2934TIP3    H2 8767   1.526   4.378   3.239
 2935TIP3   OH2 8768   6.613   0.758   4.904
 2935TIP3    H1 8769   6.645   0.702   4.833
 2935TIP3    H2 8770   6.673   0.740   4.977
 2936TIP3   OH2 8771   3.590   6.565   0.953
 2936TIP3    H1 8772   3.522   6.534   1.012
 2936TIP3    H2 8773   3.631   6.485   0.919
 2937TIP3   OH2 8774   5.751   6.287   0.634
 2937TIP3    H1 8775   5.766   6.197   0.660
 2937TIP3    H2 8776   5.820   6.337   0.676
 2938TIP3   OH2 8777   5.510   1.500   5.680
 2938TIP3    H1 8778   5.513   1.595   5.667
 2938TIP3    H2 8779   5.601   1.472   5.671
 2939TIP3   OH2 8780   4.979   3.693   5.882
 2939TIP3    H1 8781   5.037   3.707   5.956
 2939TIP3    H2 8782   5.036   3.693   5.805
 2940TIP3   OH2 8783   0.333   0.606   0.082
 2940TIP3    H1 8784   0.365   0.691   0.113
 2940TIP3    H2 8785   0.386   0.587   0.005
 2941TIP3   OH2 8786   1.964   2.981   3.651
 2941TIP3    H1 8787   1.968   3.024   3.565
 2941TIP3    H2 8788   2.042   3.011   3.697
 2942TIP3   OH2 8789   2.730   0.256   2.773
 2942TIP3    H1 8790   2.826   0.257   2.771
 2942TIP3    H2 8791   2.705   0.216   2.690
 2943TIP3   OH2 8792   1.535   1.067   1.877
 2943TIP3    H1 8793   1.616   1.044   1.831
 2943TIP3    H2 8794   1.549   1.158   1.904
 2944TIP3   OH2 8795   6.548   0.513   5.176
 2944TIP3    H1 8796   6.528   0.561   5.257
 2944TIP3    H2 8797   6.536   0.421   5.199
 2945TIP3   OH2 8798   2.280   1.937   0.119
 2945TIP3    H1 8799   2.242   1.932   0.207
 2945TIP3    H2 8800   2.352   2.000   0.128
 2946TIP3   OH2 8801   4.078   6.051   1.901
 2946TIP3    H1 8802   4.164   6.092   1.890
 2946TIP3    H2 8803   4.090   5.962   1.868
 2947TIP3   OH2 8804   1.812   5.988   5.167
 2947TIP3    H1 8805   1.830   6.019   5.256
 2947TIP3    H2 8806   1.818   6.067   5.113
 2948TIP3   OH2 8807   2.216   3.605   2.608
 2948TIP3    H1 8808   2.228   3.519   2.569
 2948TIP3    H2 8809   2.151   3.648   2.553
 2949TIP3   OH2 8810   2.999   0.330   0.562
 2949TIP3    H1 8811   3.047   0.409   0.587
 2949TIP3    H2 8812   3.049   0.296   0.487
 2950TIP3   OH2 8813   4.930   6.611   4.358
 2950TIP3    H1 8814   4.925   6.703   4.383
 2950TIP3    H2 8815   4.913   6.611   4.264
 2951TIP3   OH2 8816   4.227   0.934   1.722
 2951TIP3    H1 8817   4.311   0.968   1.691
 2951TIP3    H2 8818   4.208   0.985   1.800
 2952TIP3   OH2 8819   5.605   0.493   1.768
 2952TIP3    H1 8820   5.615   0.401   1.790
 2952TIP3    H2 8821   5.576   0.534   1.850
 2953TIP3   OH2 8822   0.059   4.794   0.082
 2953TIP3    H1 8823   0.002   4.867   0.057
 2953TIP3    H2 8824   0.038   4.725   0.020
 2954TIP3   OH2 8825   5.244   5.363   4.932
 2954TIP3    H1 8826   5.177   5.363   5.001
 2954TIP3    H2 8827   5.243   5.453   4.899
 2955TIP3   OH2 8828   4.278   4.384   2.251
 2955TIP3    H1 8829   4.189   4.355   2.232
 2955TIP3    H2 8830   4.294   4.356   2.341
 2956TIP3   OH2 8831   2.628   3.051   2.096
 2956TIP3    H1 8832   2.593   3.086   2.014
 2956TIP3    H2 8833   2.554   3.005   2.136
 2957TIP3   OH2 8834   4.705   3.300   4.914
 2957TIP3    H1 8835   4.795   3.332   4.920
 2957TIP3    H2 8836   4.693   3.278   4.821
 2958TIP3   OH2 8837   3.088   0.892   2.801
 2958TIP3    H1 8838   3.030   0.968   2.804
 2958TIP3    H2 8839   3.054   0.839   2.729
 2959TIP3   OH2 8840   0.095   6.323   3.819
 2959TIP3    H1 8841   0.166   6.318   3.883
 2959TIP3    H2 8842   0.018   6.343   3.871
 2960TIP3   OH2 8843   3.140   6.807   3.821
 2960TIP3    H1 8844   3.231   6.782   3.804
 2960TIP3    H2 8845   3.106   6.739   3.879
 2961TIP3   OH2 8846   4.551   3.937   3.442
 2961TIP3    H1 8847   4.489   3.954   3.371
 2961TIP3    H2 8848   4.500   3.887   3.507
 2962TIP3   OH2 8849   1.040   4.423   0.748
 2962TIP3    H1 8850   1.035   4.518   0.737
 2962TIP3    H2 8851   1.006   4.407   0.836
 2963TIP3   OH2 8852   3.123   2.679   2.915
 2963TIP3    H1 8853   3.165   2.765   2.908
 2963TIP3    H2 8854   3.039   2.690   2.872
 2964TIP3   OH2 8855   0.444   6.296   3.759
 2964TIP3    H1 8856   0.539   6.293   3.771
 2964TIP3    H2 8857   0.419   6.382   3.793
 2965TIP3   OH2 8858   0.698   6.559   1.568
 2965TIP3    H1 8859   0.631   6.615   1.529
 2965TIP3    H2 8860   0.688   6.475   1.524
 2966TIP3   OH2 8861   2.009   3.311   2.858
 2966TIP3    H1 8862   2.022   3.335   2.766
 2966TIP3    H2 8863   1.915   3.322   2.872
 2967TIP3   OH2 8864   1.859   3.522   3.307
 2967TIP3    H1 8865   1.922   3.495   3.374
 2967TIP3    H2 8866   1.866   3.455   3.239
 2968TIP3   OH2 8867   4.311   4.246   5.826
 2968TIP3    H1 8868   4.279   4.164   5.789
 2968TIP3    H2 8869   4.401   4.227   5.853
 2969TIP3   OH2 8870   0.298   2.855   3.341
 2969TIP3    H1 8871   0.277   2.928   3.283
 2969TIP3    H2 8872   0.214   2.816   3.363
 2970TIP3   OH2 8873   6.882   1.200   3.546
 2970TIP3    H1 8874   6.886   1.295   3.561
 2970TIP3    H2 8875   6.971   1.170   3.564
 2971TIP3   OH2 8876   2.827   6.484   4.611
 2971TIP3    H1 8877   2.801   6.575   4.596
 2971TIP3    H2 8878   2.778   6.434   4.547
 2972TIP3   OH2 8879   1.366   0.362   2.641
 2972TIP3    H1 8880   1.343   0.408   2.560
 2972TIP3    H2 8881   1.340   0.421   2.711
 2973TIP3   OH2 8882   3.999   1.660   2.715
 2973TIP3    H1 8883   4.010   1.566   2.702
 2973TIP3    H2 8884   4.049   1.679   2.794
 2974TIP3   OH2 8885   4.678   4.711   2.766
 2974TIP3    H1 8886   4.605   4.747   2.817
 2974TIP3    H2 8887   4.721   4.789   2.729
 2975TIP3   OH2 8888   3.737   4.792   4.453
 2975TIP3    H1 8889   3.808   4.856   4.453
 2975TIP3    H2 8890   3.669   4.832   4.507
 2976TIP3   OH2 8891   3.313   6.598   3.001
 2976TIP3    H1 8892   3.254   6.628   2.932
 2976TIP3    H2 8893   3.376   6.669   3.012
 2977TIP3   OH2 8894   1.978   3.858   2.440
 2977TIP3    H1 8895   1.917   3.931   2.445
 2977TIP3    H2 8896   2.048   3.888   2.382
 2978TIP3   OH2 8897   5.371   2.850   4.851
 2978TIP3    H1 8898   5.388   2.911   4.923
 2978TIP3    H2 8899   5.431   2.879   4.782
 2979TIP3   OH2 8900   3.192   2.796   0.574
 2979TIP3    H1 8901   3.175   2.752   0.657
 2979TIP3    H2 8902   3.111   2.786   0.525
 2980TIP3   OH2 8903   3.011   3.346   5.468
 2980TIP3    H1 8904   3.021   3.406   5.394
 2980TIP3    H2 8905   2.988   3.262   5.427
 2981TIP3   OH2 8906   4.537   3.756   1.829
 2981TIP3    H1 8907   4.585   3.684   1.789
 2981TIP3    H2 8908   4.504   3.807   1.756
 2982TIP3   OH2 8909   0.843   3.803   0.546
 2982TIP3    H1 8910   0.843   3.707   0.553
 2982TIP3    H2 8911   0.754   3.828   0.571
 2983TIP3   OH2 8912   6.279   2.633   3.949
 2983TIP3    H1 8913   6.284   2.628   3.854
 2983TIP3    H2 8914   6.194   2.595   3.971
 2984TIP3   OH2 8915   6.993   0.892   2.401
 2984TIP3    H1 8916   6.926   0.874   2.334
 2984TIP3    H2 8917   7.032   0.807   2.419
 2985TIP3   OH2 8918   2.380   0.920   2.134
 2985TIP3    H1 8919   2.311   0.896   2.072
 2985TIP3    H2 8920   2.407   0.836   2.173
 2986TIP3   OH2 8921   2.425   0.462   2.377
 2986TIP3    H1 8922   2.467   0.377   2.382
 2986TIP3    H2 8923   2.454   0.508   2.456
 2987TIP3   OH2 8924   2.665   4.246   0.211
 2987TIP3    H1 8925   2.759   4.234   0.199
 2987TIP3    H2 8926   2.650   4.227   0.304
 2988TIP3   OH2 8927   6.510   6.425   4.239
 2988TIP3    H1 8928   6.453   6.450   4.167
 2988TIP3    H2 8929   6.577   6.369   4.198
 2989TIP3   OH2 8930   4.574   2.344   2.523
 2989TIP3    H1 8931   4.567   2.439   2.535
 2989TIP3    H2 8932   4.661   2.322   2.556
 2990TIP3   OH2 8933   3.682   4.173   3.813
 2990TIP3    H1 8934   3.725   4.247   3.857
 2990TIP3    H2 8935   3.645   4.211   3.733
 2991TIP3   OH2 8936  -0.023   2.247   1.578
 2991TIP3    H1 8937  -0.035   2.213   1.489
 2991TIP3    H2 8938  -0.109   2.236   1.620
 2992TIP3   OH2 8939   1.026   3.257   3.855
 2992TIP3    H1 8940   1.054   3.247   3.764
 2992TIP3    H2 8941   1.040   3.350   3.874
 2993TIP3   OH2 8942   2.772   6.003   0.518
 2993TIP3    H1 8943   2.813   6.089   0.512
 2993TIP3    H2 8944   2.838   5.943   0.482
 2994TIP3   OH2 8945   3.730   4.587   0.203
 2994TIP3    H1 8946   3.759   4.587   0.295
 2994TIP3    H2 8947   3.719   4.495   0.182
 2995TIP3   OH2 8948   5.261   5.666   5.132
 2995TIP3    H1 8949   5.351   5.697   5.140
 2995TIP3    H2 8950   5.249   5.650   5.039
 2996TIP3   OH2 8951   0.784   1.106   3.137
 2996TIP3    H1 8952   0.723   1.052   3.188
 2996TIP3    H2 8953   0.811   1.049   3.064
 2997TIP3   OH2 8954   2.370   3.063   1.499
 2997TIP3    H1 8955   2.292   3.026   1.457
 2997TIP3    H2 8956   2.441   3.004   1.474
 2998TIP3   OH2 8957   4.213   1.588   3.885
 2998TIP3    H1 8958   4.285   1.648   3.907
 2998TIP3    H2 8959   4.162   1.582   3.966
 2999TIP3   OH2 8960   0.911   6.036   4.150
 2999TIP3    H1 8961   0.859   6.104   4.107
 2999TIP3    H2 8962   0.871   6.026   4.236
 3000TIP3   OH2 8963   2.355   1.342   4.034
 3000TIP3    H1 8964   2.289   1.410   4.046
 3000TIP3    H2 8965   2.366   1.335   3.940
 3001TIP3   OH2 8966   6.718   2.363   0.615
 3001TIP3    H1 8967   6.724   2.397   0.704
 3001TIP3    H2 8968   6.733   2.439   0.559
 3002TIP3   OH2 8969   6.724   5.172   2.616
 3002TIP3    H1 8970   6.664   5.225   2.668
 3002TIP3    H2 8971   6.724   5.086   2.658
 3003TIP3   OH2 8972   0.849   0.199   0.390
 3003TIP3    H1 8973   0.862   0.242   0.305
 3003TIP3    H2 8974   0.755   0.208   0.407
 3004TIP3   OH2 8975   2.313   3.477   1.436
 3004TIP3    H1 8976   2.338   3.448   1.524
 3004TIP3    H2 8977   2.223   3.509   1.446
 3005TIP3   OH2 8978   6.412   0.197   2.089
 3005TIP3    H1 8979   6.491   0.179   2.038
 3005TIP3    H2 8980   6.403   0.120   2.146
 3006TIP3   OH2 8981   1.121   2.697   4.436
 3006TIP3    H1 8982   1.213   2.701   4.464
 3006TIP3    H2 8983   1.115   2.617   4.385
 3007TIP3   OH2 8984   2.482   3.421   2.069
 3007TIP3    H1 8985   2.479   3.338   2.022
 3007TIP3    H2 8986   2.521   3.400   2.154
 3008TIP3   OH2 8987   4.504   1.633   0.407
 3008TIP3    H1 8988   4.456   1.554   0.382
 3008TIP3    H2 8989   4.449   1.676   0.472
 3009TIP3   OH2 8990   4.485   5.740   1.411
 3009TIP3    H1 8991   4.503   5.646   1.416
 3009TIP3    H2 8992   4.398   5.750   1.449
 3010TIP3   OH2 8993   6.678   1.176   4.168
 3010TIP3    H1 8994   6.628   1.098   4.190
 3010TIP3    H2 8995   6.733   1.193   4.245
 3011TIP3   OH2 8996   0.477   3.495   2.016
 3011TIP3    H1 8997   0.449   3.404   2.026
 3011TIP3    H2 8998   0.562   3.499   2.061
 3012TIP3   OH2 8999   1.421   4.668   2.806
 3012TIP3    H1 9000   1.359   4.735   2.778
 3012TIP3    H2 9001   1.464   4.641   2.725
 3013TIP3   OH2 9002   6.076   4.431   5.537
 3013TIP3    H1 9003   5.997   4.379   5.518
 3013TIP3    H2 9004   6.044   4.521   5.546
 3014TIP3   OH2 9005   1.270   2.957   3.342
 3014TIP3    H1 9006   1.325   2.999   3.407
 3014TIP3    H2 9007   1.256   3.024   3.275
 3015TIP3   OH2 9008   2.939   1.592   0.484
 3015TIP3    H1 9009   2.876   1.634   0.543
 3015TIP3    H2 9010   2.885   1.557   0.412
 3016TIP3   OH2 9011   4.857   1.923   4.386
 3016TIP3    H1 9012   4.836   1.833   4.360
 3016TIP3    H2 9013   4.899   1.961   4.308
 3017TIP3   OH2 9014   3.129   5.298   0.691
 3017TIP3    H1 9015   3.202   5.340   0.646
 3017TIP3    H2 9016   3.149   5.204   0.686
 3018TIP3   OH2 9017   1.428   6.663   5.025
 3018TIP3    H1 9018   1.492   6.662   5.095
 3018TIP3    H2 9019   1.419   6.755   5.001
 3019TIP3   OH2 9020   2.482   2.568   3.372
 3019TIP3    H1 9021   2.410   2.579   3.433
 3019TIP3    H2 9022   2.532   2.494   3.407
 3020TIP3   OH2 9023   0.468   0.889   0.553
 3020TIP3    H1 9024   0.432   0.963   0.505
 3020TIP3    H2 9025   0.511   0.836   0.487
 3021TIP3   OH2 9026   2.245   1.973   1.552
 3021TIP3    H1 9027   2.234   2.049   1.610
 3021TIP3    H2 9028   2.166   1.921   1.566
 3022TIP3   OH2 9029   4.029   3.075   3.593
 3022TIP3    H1 9030   4.051   2.984   3.574
 3022TIP3    H2 9031   4.028   3.117   3.507
 3023TIP3   OH2 9032   2.508   0.160   4.493
 3023TIP3    H1 9033   2.600   0.172   4.472
 3023TIP3    H2 9034   2.487   0.072   4.462
 3024TIP3   OH2 9035   4.393   4.127   3.575
 3024TIP3    H1 9036   4.488   4.140   3.565
 3024TIP3    H2 9037   4.375   4.147   3.666
 3025TIP3   OH2 9038   4.828   2.738   5.162
 3025TIP3    H1 9039   4.860   2.812   5.212
 3025TIP3    H2 9040   4.759   2.700   5.217
 3026TIP3   OH2 9041   0.078   1.475   5.336
 3026TIP3    H1 9042   0.133   1.552   5.318
 3026TIP3    H2 9043   0.107   1.410   5.272
 3027TIP3   OH2 9044   1.283   3.609   5.341
 3027TIP3    H1 9045   1.378   3.615   5.336
 3027TIP3    H2 9046   1.266   3.541   5.406
 3028TIP3   OH2 9047   4.973   2.129   3.453
 3028TIP3    H1 9048   5.011   2.215   3.434
 3028TIP3    H2 9049   5.034   2.088   3.514
 3029TIP3   OH2 9050   3.267   0.308   1.050
 3029TIP3    H1 9051   3.184   0.263   1.062
 3029TIP3    H2 9052   3.321   0.246   1.001
 3030TIP3   OH2 9053   6.145   1.232   3.338
 3030TIP3    H1 9054   6.105   1.292   3.274
 3030TIP3    H2 9055   6.236   1.223   3.309
 3031TIP3   OH2 9056   0.807   5.041   2.208
 3031TIP3    H1 9057   0.713   5.049   2.192
 3031TIP3    H2 9058   0.842   5.127   2.187
 3032TIP3   OH2 9059   1.430   0.985   3.822
 3032TIP3    H1 9060   1.420   0.890   3.816
 3032TIP3    H2 9061   1.418   1.005   3.915
 3033TIP3   OH2 9062   4.521   0.298   1.953
 3033TIP3    H1 9063   4.575   0.230   1.994
 3033TIP3    H2 9064   4.569   0.322   1.874
 3034TIP3   OH2 9065   2.501   1.861   1.047
 3034TIP3    H1 9066   2.480   1.769   1.031
 3034TIP3    H2 9067   2.546   1.861   1.132
 3035TIP3   OH2 9068   6.800   3.488   5.244
 3035TIP3    H1 9069   6.819   3.439   5.324
 3035TIP3    H2 9070   6.862   3.561   5.244
 3036TIP3   OH2 9071   6.688   4.159   2.246
 3036TIP3    H1 9072   6.761   4.099   2.265
 3036TIP3    H2 9073   6.611   4.115   2.283
 3037TIP3   OH2 9074   0.286   1.386   1.874
 3037TIP3    H1 9075   0.316   1.297   1.855
 3037TIP3    H2 9076   0.202   1.374   1.918
 3038TIP3   OH2 9077   1.038   5.200   2.876
 3038TIP3    H1 9078   0.984   5.220   2.799
 3038TIP3    H2 9079   0.991   5.130   2.921
 3039TIP3   OH2 9080   2.930   4.147   0.145
 3039TIP3    H1 9081   2.898   4.077   0.088
 3039TIP3    H2 9082   2.935   4.107   0.232
 3040TIP3   OH2 9083   5.699   1.736   1.089
 3040TIP3    H1 9084   5.780   1.685   1.100
 3040TIP3    H2 9085   5.725   1.826   1.105
 3041TIP3   OH2 9086   1.279   4.826   3.823
 3041TIP3    H1 9087   1.219   4.791   3.889
 3041TIP3    H2 9088   1.258   4.778   3.743
 3042TIP3   OH2 9089   3.129   1.040   1.883
 3042TIP3    H1 9090   3.181   1.097   1.826
 3042TIP3    H2 9091   3.172   0.955   1.878
 3043TIP3   OH2 9092   1.877   0.806   3.074
 3043TIP3    H1 9093   1.789   0.790   3.038
 3043TIP3    H2 9094   1.881   0.753   3.153
 3044TIP3   OH2 9095   6.022   1.402   2.133
 3044TIP3    H1 9096   6.106   1.375   2.096
 3044TIP3    H2 9097   5.981   1.320   2.161
 3045TIP3   OH2 9098   1.021   5.866   4.667
 3045TIP3    H1 9099   1.097   5.913   4.701
 3045TIP3    H2 9100   1.055   5.815   4.593
 3046TIP3   OH2 9101   1.375   5.664   2.896
 3046TIP3    H1 9102   1.400   5.630   2.982
 3046TIP3    H2 9103   1.302   5.608   2.869
 3047TIP3   OH2 9104   3.502   6.595   4.031
 3047TIP3    H1 9105   3.557   6.669   4.053
 3047TIP3    H2 9106   3.440   6.629   3.966
 3048TIP3   OH2 9107   5.252   1.473   3.683
 3048TIP3    H1 9108   5.273   1.379   3.683
 3048TIP3    H2 9109   5.159   1.476   3.660
 3049TIP3   OH2 9110   6.801   6.678   5.030
 3049TIP3    H1 9111   6.823   6.696   5.122
 3049TIP3    H2 9112   6.847   6.746   4.980
 3050TIP3   OH2 9113   2.969   1.580   4.765
 3050TIP3    H1 9114   3.045   1.638   4.769
 3050TIP3    H2 9115   2.966   1.551   4.673
 3051TIP3   OH2 9116   4.762   2.368   5.550
 3051TIP3    H1 9117   4.740   2.432   5.618
 3051TIP3    H2 9118   4.856   2.375   5.540
 3052TIP3   OH2 9119   5.100   2.600   4.667
 3052TIP3    H1 9120   5.010   2.584   4.639
 3052TIP3    H2 9121   5.092   2.626   4.759
 3053TIP3   OH2 9122   1.922   5.029   4.884
 3053TIP3    H1 9123   1.848   5.067   4.836
 3053TIP3    H2 9124   1.999   5.064   4.841
 3054TIP3   OH2 9125   2.296   0.070   1.367
 3054TIP3    H1 9126   2.258   0.091   1.453
 3054TIP3    H2 9127   2.372   0.015   1.387
 3055TIP3   OH2 9128   6.293   5.252   4.488
 3055TIP3    H1 9129   6.378   5.296   4.490
 3055TIP3    H2 9130   6.234   5.316   4.448
 3056TIP3   OH2 9131   6.085   5.486   2.472
 3056TIP3    H1 9132   6.023   5.553   2.443
 3056TIP3    H2 9133   6.118   5.447   2.391
 3057TIP3   OH2 9134   3.122   2.384   3.432
 3057TIP3    H1 9135   3.077   2.388   3.516
 3057TIP3    H2 9136   3.053   2.384   3.366
 3058TIP3   OH2 9137   0.939   0.099   3.374
 3058TIP3    H1 9138   0.959   0.188   3.345
 3058TIP3    H2 9139   0.887   0.112   3.454
 3059TIP3   OH2 9140   1.368   4.211   0.006
 3059TIP3    H1 9141   1.425   4.224   0.081
 3059TIP3    H2 9142   1.316   4.134   0.028
 3060TIP3   OH2 9143   2.857   5.931   2.058
 3060TIP3    H1 9144   2.837   5.944   1.965
 3060TIP3    H2 9145   2.774   5.903   2.097
 3061TIP3   OH2 9146   6.307   4.031   0.139
 3061TIP3    H1 9147   6.373   3.967   0.112
 3061TIP3    H2 9148   6.290   4.083   0.061
 3062TIP3   OH2 9149   4.001   2.335   3.571
 3062TIP3    H1 9150   3.964   2.406   3.623
 3062TIP3    H2 9151   4.091   2.325   3.603
 3063TIP3   OH2 9152   4.998   1.595   2.078
 3063TIP3    H1 9153   4.949   1.660   2.129
 3063TIP3    H2 9154   4.964   1.604   1.989
 3064TIP3   OH2 9155   4.588   2.495   1.469
 3064TIP3    H1 9156   4.495   2.488   1.490
 3064TIP3    H2 9157   4.625   2.410   1.495
 3065TIP3   OH2 9158   1.884   6.581   4.331
 3065TIP3    H1 9159   1.932   6.498   4.331
 3065TIP3    H2 9160   1.838   6.583   4.247
 3066TIP3   OH2 9161   3.781   4.283   5.793
 3066TIP3    H1 9162   3.717   4.331   5.740
 3066TIP3    H2 9163   3.728   4.227   5.849
 3067TIP3   OH2 9164   4.991   1.412   4.112
 3067TIP3    H1 9165   5.004   1.332   4.060
 3067TIP3    H2 9166   4.948   1.473   4.052
 3068TIP3   OH2 9167   2.393   2.181   2.098
 3068TIP3    H1 9168   2.468   2.145   2.050
 3068TIP3    H2 9169   2.322   2.119   2.081
 3069TIP3   OH2 9170   5.314   4.193   4.960
 3069TIP3    H1 9171   5.296   4.263   5.022
 3069TIP3    H2 9172   5.408   4.176   4.968
 3070TIP3   OH2 9173   6.949   0.449   0.490
 3070TIP3    H1 9174   7.017   0.384   0.508
 3070TIP3    H2 9175   6.868   0.398   0.486
 3071TIP3   OH2 9176   2.095   1.263   2.234
 3071TIP3    H1 9177   2.027   1.219   2.183
 3071TIP3    H2 9178   2.116   1.201   2.305
 3072TIP3   OH2 9179   0.949   6.388   5.614
 3072TIP3    H1 9180   1.040   6.403   5.589
 3072TIP3    H2 9181   0.937   6.293   5.605
 3073TIP3   OH2 9182   4.727   3.999   4.091
 3073TIP3    H1 9183   4.712   3.904   4.095
 3073TIP3    H2 9184   4.787   4.016   4.165
 3074TIP3   OH2 9185   6.375   5.709   0.284
 3074TIP3    H1 9186   6.365   5.616   0.305
 3074TIP3    H2 9187   6.324   5.755   0.351
 3075TIP3   OH2 9188   4.452   4.432   0.369
 3075TIP3    H1 9189   4.372   4.392   0.335
 3075TIP3    H2 9190   4.520   4.368   0.350
 3076TIP3   OH2 9191   4.045   0.903   4.494
 3076TIP3    H1 9192   4.049   0.999   4.494
 3076TIP3    H2 9193   3.954   0.884   4.516
 3077TIP3   OH2 9194   4.950   5.219   1.125
 3077TIP3    H1 9195   5.042   5.234   1.104
 3077TIP3    H2 9196   4.952   5.174   1.210
 3078TIP3   OH2 9197   1.930   2.861   4.641
 3078TIP3    H1 9198   1.890   2.899   4.719
 3078TIP3    H2 9199   1.877   2.893   4.568
 3079TIP3   OH2 9200   6.058   4.315   0.079
 3079TIP3    H1 9201   6.099   4.273   0.004
 3079TIP3    H2 9202   5.965   4.295   0.070
 3080TIP3   OH2 9203   2.300   4.328   4.196
 3080TIP3    H1 9204   2.208   4.346   4.217
 3080TIP3    H2 9205   2.298   4.305   4.103
 3081TIP3   OH2 9206   7.165   1.804   5.384
 3081TIP3    H1 9207   7.117   1.882   5.411
 3081TIP3    H2 9208   7.185   1.759   5.467
 3082TIP3   OH2 9209   2.403   6.857   1.646
 3082TIP3    H1 9210   2.334   6.814   1.697
 3082TIP3    H2 9211   2.480   6.854   1.703
 3083TIP3   OH2 9212   4.419   4.018   2.959
 3083TIP3    H1 9213   4.423   3.926   2.985
 3083TIP3    H2 9214   4.443   4.017   2.867
 3084TIP3   OH2 9215   4.038   3.329   5.543
 3084TIP3    H1 9216   3.956   3.287   5.568
 3084TIP3    H2 9217   4.101   3.257   5.536
 3085TIP3   OH2 9218   5.212   1.658   2.837
 3085TIP3    H1 9219   5.153   1.734   2.833
 3085TIP3    H2 9220   5.239   1.654   2.928
 3086TIP3   OH2 9221   5.529   2.799   4.358
 3086TIP3    H1 9222   5.436   2.778   4.372
 3086TIP3    H2 9223   5.528   2.885   4.316
 3087TIP3   OH2 9224   5.043   5.397   5.117
 3087TIP3    H1 9225   5.044   5.471   5.178
 3087TIP3    H2 9226   4.966   5.346   5.142
 3088TIP3   OH2 9227   3.072   0.057   1.316
 3088TIP3    H1 9228   3.067   0.109   1.235
 3088TIP3    H2 9229   2.995   0.085   1.366
 3089TIP3   OH2 9230   5.538   4.456   2.342
 3089TIP3    H1 9231   5.467   4.519   2.331
 3089TIP3    H2 9232   5.494   4.373   2.359
 3090TIP3   OH2 9233   0.502   4.539   1.251
 3090TIP3    H1 9234   0.428   4.581   1.207
 3090TIP3    H2 9235   0.461   4.471   1.306
 3091TIP3   OH2 9236   4.261   2.823   2.582
 3091TIP3    H1 9237   4.311   2.787   2.508
 3091TIP3    H2 9238   4.228   2.746   2.629
 3092TIP3   OH2 9239   2.719   6.367   4.039
 3092TIP3    H1 9240   2.628   6.375   4.066
 3092TIP3    H2 9241   2.714   6.344   3.946
 3093TIP3   OH2 9242   1.280   0.340   0.982
 3093TIP3    H1 9243   1.246   0.259   1.020
 3093TIP3    H2 9244   1.373   0.339   1.006
 3094TIP3   OH2 9245   6.813   1.437   1.911
 3094TIP3    H1 9246   6.722   1.411   1.896
 3094TIP3    H2 9247   6.817   1.457   2.004
 3095TIP3   OH2 9248   1.644   6.725   0.469
 3095TIP3    H1 9249   1.637   6.636   0.504
 3095TIP3    H2 9250   1.692   6.773   0.536
 3096TIP3   OH2 9251   7.078   6.574   2.455
 3096TIP3    H1 9252   7.011   6.642   2.463
 3096TIP3    H2 9253   7.107   6.558   2.545
 3097TIP3   OH2 9254   3.737   5.826   4.126
 3097TIP3    H1 9255   3.815   5.863   4.168
 3097TIP3    H2 9256   3.677   5.809   4.199
 3098TIP3   OH2 9257   4.803   1.675   2.473
 3098TIP3    H1 9258   4.771   1.706   2.558
 3098TIP3    H2 9259   4.897   1.668   2.484
 3099TIP3   OH2 9260   5.107   1.097   5.100
 3099TIP3    H1 9261   5.031   1.111   5.042
 3099TIP3    H2 9262   5.160   1.176   5.090
 3100TIP3   OH2 9263   6.477   3.335   2.078
 3100TIP3    H1 9264   6.500   3.383   1.999
 3100TIP3    H2 9265   6.422   3.395   2.128
 3101TIP3   OH2 9266   3.624   2.102   3.603
 3101TIP3    H1 9267   3.713   2.070   3.614
 3101TIP3    H2 9268   3.597   2.130   3.690
 3102TIP3   OH2 9269   4.435   1.814   1.022
 3102TIP3    H1 9270   4.451   1.740   1.081
 3102TIP3    H2 9271   4.343   1.837   1.036
 3103TIP3   OH2 9272   3.005   2.037   4.260
 3103TIP3    H1 9273   2.952   1.957   4.256
 3103TIP3    H2 9274   3.095   2.006   4.250
 3104TIP3   OH2 9275   6.795   1.164   2.919
 3104TIP3    H1 9276   6.749   1.220   2.982
 3104TIP3    H2 9277   6.727   1.133   2.860
 3105TIP3   OH2 9278   1.582   4.755   4.731
 3105TIP3    H1 9279   1.646   4.701   4.684
 3105TIP3    H2 9280   1.535   4.694   4.787
 3106TIP3   OH2 9281   2.445   5.982   2.173
 3106TIP3    H1 9282   2.435   5.996   2.267
 3106TIP3    H2 9283   2.521   5.924   2.165
 3107TIP3   OH2 9284   2.246   2.116   1.032
 3107TIP3    H1 9285   2.268   2.120   1.125
 3107TIP3    H2 9286   2.271   2.028   1.005
 3108TIP3   OH2 9287   0.359   2.500   0.019
 3108TIP3    H1 9288   0.291   2.549   0.066
 3108TIP3    H2 9289   0.381   2.556  -0.056
 3109TIP3   OH2 9290   0.078   6.007   2.944
 3109TIP3    H1 9291   0.044   6.077   2.889
 3109TIP3    H2 9292   0.086   6.047   3.031
 3110TIP3   OH2 9293   5.947   0.469   4.176
 3110TIP3    H1 9294   5.986   0.544   4.131
 3110TIP3    H2 9295   5.853   0.477   4.159
 3111TIP3   OH2 9296   1.721   2.786   1.824
 3111TIP3    H1 9297   1.652   2.828   1.774
 3111TIP3    H2 9298   1.689   2.786   1.914
 3112TIP3   OH2 9299   0.550   5.049   2.208
 3112TIP3    H1 9300   0.511   4.997   2.137
 3112TIP3    H2 9301   0.496   5.128   2.212
 3113TIP3   OH2 9302   5.995   5.035   2.897
 3113TIP3    H1 9303   5.967   4.966   2.957
 3113TIP3    H2 9304   5.937   5.027   2.822
 3114TIP3   OH2 9305   7.088   3.808   0.157
 3114TIP3    H1 9306   7.011   3.861   0.180
 3114TIP3    H2 9307   7.145   3.869   0.109
 3115TIP3   OH2 9308   6.548   6.458   0.672
 3115TIP3    H1 9309   6.540   6.530   0.735
 3115TIP3    H2 9310   6.639   6.430   0.680
 3116TIP3   OH2 9311   4.023   2.206   2.482
 3116TIP3    H1 9312   4.019   2.292   2.525
 3116TIP3    H2 9313   4.057   2.147   2.550
 3117TIP3   OH2 9314   3.088   0.883   0.550
 3117TIP3    H1 9315   3.030   0.864   0.623
 3117TIP3    H2 9316   3.087   0.979   0.543
 3118TIP3   OH2 9317   5.184   4.340   0.635
 3118TIP3    H1 9318   5.156   4.281   0.705
 3118TIP3    H2 9319   5.115   4.407   0.631
 3119TIP3   OH2 9320   4.219   0.968   0.135
 3119TIP3    H1 9321   4.141   1.018   0.111
 3119TIP3    H2 9322   4.209   0.952   0.229
 3120TIP3   OH2 9323   3.541   3.183   3.884
 3120TIP3    H1 9324   3.524   3.089   3.878
 3120TIP3    H2 9325   3.454   3.222   3.894
 3121TIP3   OH2 9326   3.135   6.508   1.127
 3121TIP3    H1 9327   3.064   6.482   1.186
 3121TIP3    H2 9328   3.132   6.603   1.125
 3122TIP3   OH2 9329   0.679   4.499   4.287
 3122TIP3    H1 9330   0.695   4.591   4.268
 3122TIP3    H2 9331   0.620   4.470   4.218
 3123TIP3   OH2 9332   3.866   6.163   0.738
 3123TIP3    H1 9333   3.912   6.145   0.819
 3123TIP3    H2 9334   3.892   6.093   0.679
 3124TIP3   OH2 9335   4.467   4.743   5.105
 3124TIP3    H1 9336   4.540   4.779   5.053
 3124TIP3    H2 9337   4.500   4.743   5.195
 3125TIP3   OH2 9338   6.680   1.325   3.121
 3125TIP3    H1 9339   6.737   1.397   3.093
 3125TIP3    H2 9340   6.725   1.287   3.196
 3126TIP3   OH2 9341   3.310   2.049   4.002
 3126TIP3    H1 9342   3.292   1.956   4.018
 3126TIP3    H2 9343   3.223   2.089   3.995
 3127TIP3   OH2 9344   1.951   3.018   4.327
 3127TIP3    H1 9345   1.861   2.996   4.351
 3127TIP3    H2 9346   1.982   3.072   4.400
 3128TIP3   OH2 9347   0.310   6.037   4.795
 3128TIP3    H1 9348   0.244   6.015   4.860
 3128TIP3    H2 9349   0.393   6.031   4.843
 3129TIP3   OH2 9350   6.240   2.517   2.427
 3129TIP3    H1 9351   6.186   2.586   2.387
 3129TIP3    H2 9352   6.179   2.469   2.483
 3130TIP3   OH2 9353   1.565   3.959  -0.046
 3130TIP3    H1 9354   1.498   3.931   0.016
 3130TIP3    H2 9355   1.646   3.958   0.004
 3131TIP3   OH2 9356   6.631   0.459   0.759
 3131TIP3    H1 9357   6.543   0.429   0.737
 3131TIP3    H2 9358   6.688   0.388   0.730
 3132TIP3   OH2 9359   1.153   5.917   5.760
 3132TIP3    H1 9360   1.095   5.993   5.753
 3132TIP3    H2 9361   1.113   5.862   5.827
 3133TIP3   OH2 9362   2.082   1.753   0.700
 3133TIP3    H1 9363   2.168   1.717   0.676
 3133TIP3    H2 9364   2.056   1.702   0.777
 3134TIP3   OH2 9365   1.386   2.655   1.151
 3134TIP3    H1 9366   1.338   2.597   1.210
 3134TIP3    H2 9367   1.478   2.634   1.167
 3135TIP3   OH2 9368   6.633   4.382   1.510
 3135TIP3    H1 9369   6.639   4.287   1.509
 3135TIP3    H2 9370   6.679   4.410   1.431
 3136TIP3   OH2 9371   1.512   4.838   2.450
 3136TIP3    H1 9372   1.475   4.818   2.364
 3136TIP3    H2 9373   1.489   4.763   2.504
 3137TIP3   OH2 9374   1.168   4.863   2.318
 3137TIP3    H1 9375   1.259   4.891   2.305
 3137TIP3    H2 9376   1.144   4.900   2.403
 3138TIP3   OH2 9377   5.751   0.852   5.345
 3138TIP3    H1 9378   5.822   0.795   5.318
 3138TIP3    H2 9379   5.707   0.804   5.416
 3139TIP3   OH2 9380   4.052   0.920   0.600
 3139TIP3    H1 9381   4.137   0.902   0.561
 3139TIP3    H2 9382   4.038   1.014   0.585
 3140TIP3   OH2 9383   4.798   3.679   3.685
 3140TIP3    H1 9384   4.819   3.763   3.726
 3140TIP3    H2 9385   4.843   3.614   3.740
 3141TIP3   OH2 9386   2.533   5.074   2.572
 3141TIP3    H1 9387   2.541   4.987   2.613
 3141TIP3    H2 9388   2.506   5.131   2.644
 3142TIP3   OH2 9389   2.380   5.947   0.218
 3142TIP3    H1 9390   2.300   5.952   0.166
 3142TIP3    H2 9391   2.362   5.999   0.296
 3143TIP3   OH2 9392   2.145   1.319   1.193
 3143TIP3    H1 9393   2.128   1.407   1.160
 3143TIP3    H2 9394   2.065   1.295   1.240
 3144TIP3   OH2 9395   5.994   0.068   1.276
 3144TIP3    H1 9396   6.053   0.120   1.330
 3144TIP3    H2 9397   6.052   0.008   1.228
 3145TIP3   OH2 9398   6.257   2.712   2.041
 3145TIP3    H1 9399   6.265   2.806   2.023
 3145TIP3    H2 9400   6.340   2.689   2.082
 3146TIP3   OH2 9401   3.064   1.585   1.315
 3146TIP3    H1 9402   3.136   1.531   1.348
 3146TIP3    H2 9403   3.026   1.624   1.394
 3147TIP3   OH2 9404   0.923   6.424   3.243
 3147TIP3    H1 9405   0.874   6.359   3.295
 3147TIP3    H2 9406   1.013   6.415   3.274
 3148TIP3   OH2 9407   3.438   4.040   4.638
 3148TIP3    H1 9408   3.533   4.046   4.653
 3148TIP3    H2 9409   3.429   3.978   4.566
 3149TIP3   OH2 9410   6.850   4.148   5.343
 3149TIP3    H1 9411   6.880   4.081   5.405
 3149TIP3    H2 9412   6.789   4.102   5.286
 3150TIP3   OH2 9413   5.942   5.585   3.731
 3150TIP3    H1 9414   5.912   5.505   3.688
 3150TIP3    H2 9415   5.984   5.554   3.812
 3151TIP3   OH2 9416   4.533   4.079   5.894
 3151TIP3    H1 9417   4.617   4.034   5.891
 3151TIP3    H2 9418   4.505   4.083   5.803
 3152TIP3   OH2 9419   1.707   2.070   0.790
 3152TIP3    H1 9420   1.708   2.033   0.879
 3152TIP3    H2 9421   1.785   2.125   0.786
 3153TIP3   OH2 9422   4.586   3.043   5.363
 3153TIP3    H1 9423   4.590   3.103   5.288
 3153TIP3    H2 9424   4.567   2.958   5.323
 3154TIP3   OH2 9425   2.235   4.864   5.328
 3154TIP3    H1 9426   2.307   4.807   5.354
 3154TIP3    H2 9427   2.158   4.807   5.328
 3155TIP3   OH2 9428   3.786   1.865   4.616
 3155TIP3    H1 9429   3.846   1.915   4.560
 3155TIP3    H2 9430   3.843   1.803   4.662
 3156TIP3   OH2 9431   2.405   0.263   3.079
 3156TIP3    H1 9432   2.482   0.206   3.078
 3156TIP3    H2 9433   2.372   0.256   3.169
 3157TIP3   OH2 9434   6.811   0.214   4.657
 3157TIP3    H1 9435   6.796   0.163   4.578
 3157TIP3    H2 9436   6.788   0.155   4.729
 3158TIP3   OH2 9437   5.944   2.639   1.703
 3158TIP3    H1 9438   5.985   2.558   1.673
 3158TIP3    H2 9439   5.854   2.614   1.726
 3159TIP3   OH2 9440   1.225   3.559   4.155
 3159TIP3    H1 9441   1.234   3.489   4.090
 3159TIP3    H2 9442   1.214   3.513   4.239
 3160TIP3   OH2 9443   0.902   0.322   2.220
 3160TIP3    H1 9444   0.878   0.379   2.294
 3160TIP3    H2 9445   0.818   0.295   2.183
 3161TIP3   OH2 9446   0.223   4.248   4.944
 3161TIP3    H1 9447   0.303   4.199   4.926
 3161TIP3    H2 9448   0.240   4.335   4.908
 3162TIP3   OH2 9449   7.006   6.221   3.547
 3162TIP3    H1 9450   6.953   6.174   3.611
 3162TIP3    H2 9451   6.967   6.308   3.543
 3163TIP3   OH2 9452   1.154   1.781   5.567
 3163TIP3    H1 9453   1.191   1.761   5.482
 3163TIP3    H2 9454   1.217   1.745   5.630
 3164TIP3   OH2 9455   1.231   3.565   1.759
 3164TIP3    H1 9456   1.301   3.568   1.824
 3164TIP3    H2 9457   1.260   3.500   1.695
 3165TIP3   OH2 9458   5.983   5.123   5.331
 3165TIP3    H1 9459   5.968   5.217   5.343
 3165TIP3    H2 9460   5.967   5.085   5.418
 3166TIP3   OH2 9461   0.745   6.580   2.367
 3166TIP3    H1 9462   0.664   6.620   2.400
 3166TIP3    H2 9463   0.774   6.523   2.438
 3167TIP3   OH2 9464   6.197   6.616   1.654
 3167TIP3    H1 9465   6.146   6.683   1.700
 3167TIP3    H2 9466   6.278   6.660   1.628
 3168TIP3   OH2 9467   2.056   4.214   1.057
 3168TIP3    H1 9468   1.963   4.219   1.037
 3168TIP3    H2 9469   2.098   4.206   0.971
 3169TIP3   OH2 9470   1.506   0.481   5.696
 3169TIP3    H1 9471   1.466   0.568   5.695
 3169TIP3    H2 9472   1.432   0.421   5.686
 3170TIP3   OH2 9473   3.775   4.723   1.230
 3170TIP3    H1 9474   3.711   4.694   1.165
 3170TIP3    H2 9475   3.840   4.773   1.179
 3171TIP3   OH2 9476   1.100   0.328   3.686
 3171TIP3    H1 9477   1.093   0.296   3.596
 3171TIP3    H2 9478   1.169   0.393   3.684
 3172TIP3   OH2 9479   3.032   2.452   3.698
 3172TIP3    H1 9480   3.125   2.473   3.703
 3172TIP3    H2 9481   2.996   2.481   3.782
 3173TIP3   OH2 9482   4.708   2.933   0.686
 3173TIP3    H1 9483   4.791   2.954   0.643
 3173TIP3    H2 9484   4.655   3.013   0.677
 3174TIP3   OH2 9485   4.860   3.361   4.452
 3174TIP3    H1 9486   4.907   3.432   4.495
 3174TIP3    H2 9487   4.782   3.348   4.506
 3175TIP3   OH2 9488   6.497   6.345   3.206
 3175TIP3    H1 9489   6.423   6.338   3.146
 3175TIP3    H2 9490   6.459   6.336   3.293
 3176TIP3   OH2 9491   1.060   4.134   0.284
 3176TIP3    H1 9492   1.095   4.062   0.336
 3176TIP3    H2 9493   1.118   4.208   0.304
 3177TIP3   OH2 9494   3.592   1.412   2.798
 3177TIP3    H1 9495   3.555   1.327   2.776
 3177TIP3    H2 9496   3.682   1.409   2.767
 3178TIP3   OH2 9497   3.696   3.905   0.089
 3178TIP3    H1 9498   3.753   3.982   0.083
 3178TIP3    H2 9499   3.649   3.903   0.006
 3179TIP3   OH2 9500   0.451   3.547   1.246
 3179TIP3    H1 9501   0.361   3.556   1.280
 3179TIP3    H2 9502   0.464   3.453   1.238
 3180TIP3   OH2 9503   2.207   6.008   2.316
 3180TIP3    H1 9504   2.165   5.965   2.241
 3180TIP3    H2 9505   2.219   6.099   2.288
 3181TIP3   OH2 9506   6.066   3.357   3.510
 3181TIP3    H1 9507   5.977   3.359   3.547
 3181TIP3    H2 9508   6.113   3.293   3.563
 3182TIP3   OH2 9509   4.923   5.751   0.845
 3182TIP3    H1 9510   4.941   5.835   0.802
 3182TIP3    H2 9511   4.935   5.770   0.938
 3183TIP3   OH2 9512   3.289   6.281   0.349
 3183TIP3    H1 9513   3.351   6.279   0.276
 3183TIP3    H2 9514   3.258   6.191   0.356
 3184TIP3   OH2 9515   1.084   1.936   0.494
 3184TIP3    H1 9516   1.028   2.014   0.500
 3184TIP3    H2 9517   1.024   1.866   0.469
 3185TIP3   OH2 9518   6.409   5.766   4.825
 3185TIP3    H1 9519   6.415   5.683   4.778
 3185TIP3    H2 9520   6.315   5.777   4.842
 3186TIP3   OH2 9521   2.313   2.572   4.579
 3186TIP3    H1 9522   2.372   2.592   4.506
 3186TIP3    H2 9523   2.369   2.530   4.644
 3187TIP3   OH2 9524   3.129   0.010   2.780
 3187TIP3    H1 9525   3.071   0.080   2.752
 3187TIP3    H2 9526   3.184  -0.009   2.704
 3188TIP3   OH2 9527   1.215   0.904   4.454
 3188TIP3    H1 9528   1.250   0.952   4.529
 3188TIP3    H2 9529   1.274   0.926   4.382
 3189TIP3   OH2 9530   0.687   0.414   4.230
 3189TIP3    H1 9531   0.672   0.480   4.162
 3189TIP3    H2 9532   0.620   0.433   4.296
 3190TIP3   OH2 9533   0.551   1.075   0.275
 3190TIP3    H1 9534   0.591   1.106   0.356
 3190TIP3    H2 9535   0.517   1.154   0.233
 3191TIP3   OH2 9536   4.172   0.339   3.030
 3191TIP3    H1 9537   4.169   0.435   3.033
 3191TIP3    H2 9538   4.264   0.318   3.013
 3192TIP3   OH2 9539   7.069   4.445   0.549
 3192TIP3    H1 9540   7.014   4.482   0.480
 3192TIP3    H2 9541   7.159   4.467   0.523
 3193TIP3   OH2 9542   3.928   2.505   4.726
 3193TIP3    H1 9543   4.021   2.489   4.746
 3193TIP3    H2 9544   3.892   2.418   4.708
 3194TIP3   OH2 9545   3.195   2.095   1.129
 3194TIP3    H1 9546   3.215   2.004   1.152
 3194TIP3    H2 9547   3.280   2.138   1.127
 3195TIP3   OH2 9548   5.485   4.472   4.274
 3195TIP3    H1 9549   5.414   4.526   4.239
 3195TIP3    H2 9550   5.445   4.424   4.347
 3196TIP3   OH2 9551   0.810   6.795   3.816
 3196TIP3    H1 9552   0.812   6.747   3.734
 3196TIP3    H2 9553   0.720   6.784   3.848
 3197TIP3   OH2 9554   2.692   5.328   1.849
 3197TIP3    H1 9555   2.597   5.323   1.836
 3197TIP3    H2 9556   2.722   5.392   1.784
 3198TIP3   OH2 9557   2.514   6.099   0.461
 3198TIP3    H1 9558   2.609   6.091   0.473
 3198TIP3    H2 9559   2.498   6.194   0.466
 3199TIP3   OH2 9560   4.822   4.412   3.959
 3199TIP3    H1 9561   4.904   4.363   3.948
 3199TIP3    H2 9562   4.763   4.351   4.004
 3200TIP3   OH2 9563   2.634   1.477   1.300
 3200TIP3    H1 9564   2.567   1.447   1.238
 3200TIP3    H2 9565   2.717   1.466   1.253
 3201TIP3   OH2 9566   5.446   3.249   4.027
 3201TIP3    H1 9567   5.358   3.284   4.039
 3201TIP3    H2 9568   5.434   3.155   4.013
 3202TIP3   OH2 9569   2.097   0.470   4.135
 3202TIP3    H1 9570   2.053   0.491   4.217
 3202TIP3    H2 9571   2.186   0.504   4.146
 3203TIP3   OH2 9572   7.079   2.256   2.379
 3203TIP3    H1 9573   7.045   2.232   2.293
 3203TIP3    H2 9574   7.128   2.180   2.408
 3204TIP3   OH2 9575   0.487   6.291   4.499
 3204TIP3    H1 9576   0.396   6.315   4.481
 3204TIP3    H2 9577   0.483   6.199   4.524
 3205TIP3   OH2 9578   1.402   1.652   0.733
 3205TIP3    H1 9579   1.326   1.710   0.726
 3205TIP3    H2 9580   1.475   1.703   0.699
 3206TIP3   OH2 9581   2.179   3.578   5.859
 3206TIP3    H1 9582   2.273   3.564   5.845
 3206TIP3    H2 9583   2.162   3.664   5.821
 3207TIP3   OH2 9584   1.040   1.627   2.341
 3207TIP3    H1 9585   1.059   1.685   2.267
 3207TIP3    H2 9586   1.071   1.674   2.418
 3208TIP3   OH2 9587   1.046   5.517   0.640
 3208TIP3    H1 9588   1.101   5.469   0.702
 3208TIP3    H2 9589   1.100   5.526   0.562
 3209TIP3   OH2 9590   3.572   6.216   1.290
 3209TIP3    H1 9591   3.532   6.191   1.373
 3209TIP3    H2 9592   3.528   6.297   1.266
 3210TIP3   OH2 9593   2.822   4.005   0.597
 3210TIP3    H1 9594   2.778   3.952   0.663
 3210TIP3    H2 9595   2.913   3.973   0.597
 3211TIP3   OH2 9596   5.943   4.956   0.827
 3211TIP3    H1 9597   5.871   4.944   0.765
 3211TIP3    H2 9598   5.910   5.019   0.891
 3212TIP3   OH2 9599   1.171   5.341   3.058
 3212TIP3    H1 9600   1.229   5.278   3.100
 3212TIP3    H2 9601   1.100   5.288   3.021
 3213TIP3   OH2 9602   1.983   3.003   0.341
 3213TIP3    H1 9603   2.072   3.027   0.316
 3213TIP3    H2 9604   1.990   2.981   0.434
 3214TIP3   OH2 9605   6.502   2.339   3.412
 3214TIP3    H1 9606   6.468   2.268   3.466
 3214TIP3    H2 9607   6.525   2.408   3.474
 3215TIP3   OH2 9608   4.081   4.555   0.303
 3215TIP3    H1 9609   4.141   4.600   0.243
 3215TIP3    H2 9610   4.135   4.487   0.343
 3216TIP3   OH2 9611   7.023   3.628   2.440
 3216TIP3    H1 9612   7.081   3.637   2.364
 3216TIP3    H2 9613   6.947   3.581   2.405
 3217TIP3   OH2 9614   2.588   2.458   0.746
 3217TIP3    H1 9615   2.503   2.439   0.707
 3217TIP3    H2 9616   2.587   2.552   0.762
 3218TIP3   OH2 9617   3.481   1.242   1.368
 3218TIP3    H1 9618   3.483   1.165   1.426
 3218TIP3    H2 9619   3.487   1.206   1.280
 3219TIP3   OH2 9620   4.436   0.275   2.948
 3219TIP3    H1 9621   4.522   0.317   2.949
 3219TIP3    H2 9622   4.439   0.216   2.873
 3220TIP3   OH2 9623   0.925   1.765   4.909
 3220TIP3    H1 9624   0.896   1.853   4.933
 3220TIP3    H2 9625   0.931   1.718   4.993
 3221TIP3   OH2 9626   5.187   4.058   4.521
 3221TIP3    H1 9627   5.257   4.037   4.460
 3221TIP3    H2 9628   5.211   4.143   4.558
 3222TIP3   OH2 9629   5.986   5.624   0.194
 3222TIP3    H1 9630   5.999   5.671   0.112
 3222TIP3    H2 9631   5.950   5.689   0.254
 3223TIP3   OH2 9632   1.494   3.258   2.856
 3223TIP3    H1 9633   1.400   3.275   2.863
 3223TIP3    H2 9634   1.506   3.173   2.899
 3224TIP3   OH2 9635   4.743   4.113   3.542
 3224TIP3    H1 9636   4.696   4.068   3.472
 3224TIP3    H2 9637   4.750   4.049   3.612
 3225TIP3   OH2 9638   7.112   3.901   4.120
 3225TIP3    H1 9639   7.119   3.877   4.213
 3225TIP3    H2 9640   7.052   3.836   4.083
 3226TIP3   OH2 9641   4.140   6.575   1.830
 3226TIP3    H1 9642   4.134   6.480   1.839
 3226TIP3    H2 9643   4.072   6.597   1.766
 3227TIP3   OH2 9644   2.392   2.192   0.422
 3227TIP3    H1 9645   2.320   2.255   0.423
 3227TIP3    H2 9646   2.423   2.191   0.513
 3228TIP3   OH2 9647   4.633   5.504   4.042
 3228TIP3    H1 9648   4.543   5.534   4.056
 3228TIP3    H2 9649   4.683   5.584   4.028
 3229TIP3   OH2 9650   0.338   1.111   1.844
 3229TIP3    H1 9651   0.299   1.028   1.815
 3229TIP3    H2 9652   0.386   1.088   1.923
 3230TIP3   OH2 9653   5.104   3.166   5.833
 3230TIP3    H1 9654   5.059   3.223   5.896
 3230TIP3    H2 9655   5.081   3.078   5.860
 3231TIP3   OH2 9656   3.961   2.338   3.002
 3231TIP3    H1 9657   4.008   2.261   3.032
 3231TIP3    H2 9658   4.007   2.366   2.923
 3232TIP3   OH2 9659   1.356   1.717   1.027
 3232TIP3    H1 9660   1.402   1.799   1.043
 3232TIP3    H2 9661   1.381   1.692   0.938
 3233TIP3   OH2 9662   3.340   4.077   4.295
 3233TIP3    H1 9663   3.291   4.159   4.290
 3233TIP3    H2 9664   3.426   4.102   4.328
 3234TIP3   OH2 9665   2.880   1.801   1.899
 3234TIP3    H1 9666   2.936   1.749   1.955
 3234TIP3    H2 9667   2.791   1.782   1.929
 3235TIP3   OH2 9668   3.892   0.710   4.258
 3235TIP3    H1 9669   3.867   0.647   4.326
 3235TIP3    H2 9670   3.814   0.718   4.203
 3236TIP3   OH2 9671   1.186   2.717   3.614
 3236TIP3    H1 9672   1.102   2.673   3.603
 3236TIP3    H2 9673   1.250   2.647   3.619
 3237TIP3   OH2 9674   4.598   5.518   1.059
 3237TIP3    H1 9675   4.503   5.522   1.047
 3237TIP3    H2 9676   4.634   5.550   0.976
 3238TIP3   OH2 9677   2.854   5.702   4.911
 3238TIP3    H1 9678   2.929   5.646   4.927
 3238TIP3    H2 9679   2.819   5.673   4.827
 3239TIP3   OH2 9680   0.944   3.767   2.960
 3239TIP3    H1 9681   0.859   3.732   2.987
 3239TIP3    H2 9682   0.928   3.861   2.948
 3240TIP3   OH2 9683   2.801   2.935   0.327
 3240TIP3    H1 9684   2.848   2.972   0.401
 3240TIP3    H2 9685   2.860   2.945   0.253
 3241TIP3   OH2 9686   1.655   6.161   4.590
 3241TIP3    H1 9687   1.692   6.137   4.505
 3241TIP3    H2 9688   1.719   6.222   4.627
 3242TIP3   OH2 9689   5.583   1.565   0.339
 3242TIP3    H1 9690   5.507   1.609   0.303
 3242TIP3    H2 9691   5.584   1.590   0.432
 3243TIP3   OH2 9692   5.134   1.093   4.552
 3243TIP3    H1 9693   5.120   1.187   4.555
 3243TIP3    H2 9694   5.123   1.065   4.643
 3244TIP3   OH2 9695   1.592   5.174   0.512
 3244TIP3    H1 9696   1.588   5.079   0.501
 3244TIP3    H2 9697   1.678   5.191   0.552
 3245TIP3   OH2 9698   3.398   5.903   3.564
 3245TIP3    H1 9699   3.440   5.833   3.515
 3245TIP3    H2 9700   3.468   5.964   3.584
 3246TIP3   OH2 9701   3.747   5.023   5.237
 3246TIP3    H1 9702   3.770   4.943   5.284
 3246TIP3    H2 9703   3.828   5.074   5.234
 3247TIP3   OH2 9704   1.246   5.811   1.209
 3247TIP3    H1 9705   1.283   5.829   1.295
 3247TIP3    H2 9706   1.197   5.890   1.187
 3248TIP3   OH2 9707   7.162   1.915   2.139
 3248TIP3    H1 9708   7.233   1.971   2.169
 3248TIP3    H2 9709   7.082   1.960   2.167
 3249TIP3   OH2 9710   4.160   4.476   2.674
 3249TIP3    H1 9711   4.117   4.417   2.736
 3249TIP3    H2 9712   4.202   4.542   2.730
 3250TIP3   OH2 9713   5.849   5.597   2.912
 3250TIP3    H1 9714   5.923   5.562   2.961
 3250TIP3    H2 9715   5.798   5.520   2.888
 3251TIP3   OH2 9716   2.068   0.020   0.892
 3251TIP3    H1 9717   2.076   0.115   0.882
 3251TIP3    H2 9718   2.076  -0.015   0.803
 3252TIP3   OH2 9719   6.080   1.455   2.407
 3252TIP3    H1 9720   6.068   1.547   2.429
 3252TIP3    H2 9721   6.057   1.449   2.314
 3253TIP3   OH2 9722   6.276   4.032   4.804
 3253TIP3    H1 9723   6.266   4.005   4.713
 3253TIP3    H2 9724   6.220   4.109   4.813
 3254TIP3   OH2 9725   4.393   6.161   2.154
 3254TIP3    H1 9726   4.302   6.180   2.178
 3254TIP3    H2 9727   4.434   6.132   2.235
 3255TIP3   OH2 9728   3.256   4.146   4.838
 3255TIP3    H1 9729   3.302   4.101   4.767
 3255TIP3    H2 9730   3.296   4.233   4.841
 3256TIP3   OH2 9731   4.866   5.201   1.752
 3256TIP3    H1 9732   4.951   5.186   1.794
 3256TIP3    H2 9733   4.858   5.131   1.688
 3257TIP3   OH2 9734   1.681   3.910   4.859
 3257TIP3    H1 9735   1.627   3.866   4.925
 3257TIP3    H2 9736   1.622   3.972   4.816
 3258TIP3   OH2 9737   4.270   2.891   3.282
 3258TIP3    H1 9738   4.301   2.979   3.262
 3258TIP3    H2 9739   4.175   2.897   3.280
 3259TIP3   OH2 9740   5.786   0.639   2.406
 3259TIP3    H1 9741   5.723   0.710   2.389
 3259TIP3    H2 9742   5.797   0.596   2.321
 3260TIP3   OH2 9743   2.581   2.317   5.405
 3260TIP3    H1 9744   2.524   2.386   5.373
 3260TIP3    H2 9745   2.667   2.359   5.412
 3261TIP3   OH2 9746   1.836   0.966   1.824
 3261TIP3    H1 9747   1.919   0.950   1.779
 3261TIP3    H2 9748   1.860   1.017   1.901
 3262TIP3   OH2 9749   6.475   4.993   5.058
 3262TIP3    H1 9750   6.385   4.963   5.075
 3262TIP3    H2 9751   6.480   5.001   4.962
 3263TIP3   OH2 9752   3.033   0.194   3.438
 3263TIP3    H1 9753   3.122   0.174   3.467
 3263TIP3    H2 9754   2.977   0.143   3.496
 3264TIP3   OH2 9755   5.452   4.849   4.236
 3264TIP3    H1 9756   5.483   4.934   4.206
 3264TIP3    H2 9757   5.390   4.870   4.306
 3265TIP3   OH2 9758   5.468   5.620   4.892
 3265TIP3    H1 9759   5.522   5.669   4.955
 3265TIP3    H2 9760   5.477   5.529   4.919
 3266TIP3   OH2 9761   3.166   1.459   4.015
 3266TIP3    H1 9762   3.210   1.424   4.092
 3266TIP3    H2 9763   3.189   1.398   3.945
 3267TIP3   OH2 9764   1.760   6.062   3.886
 3267TIP3    H1 9765   1.706   6.132   3.850
 3267TIP3    H2 9766   1.726   5.982   3.845
 3268TIP3   OH2 9767   3.929   6.086   1.653
 3268TIP3    H1 9768   4.005   6.073   1.710
 3268TIP3    H2 9769   3.947   6.030   1.577
 3269TIP3   OH2 9770   4.708   4.206   1.667
 3269TIP3    H1 9771   4.654   4.147   1.719
 3269TIP3    H2 9772   4.728   4.279   1.726
 3270TIP3   OH2 9773   6.617   5.372   1.973
 3270TIP3    H1 9774   6.655   5.424   1.902
 3270TIP3    H2 9775   6.569   5.436   2.026
 3271TIP3   OH2 9776   0.264   0.521   3.059
 3271TIP3    H1 9777   0.360   0.522   3.067
 3271TIP3    H2 9778   0.242   0.429   3.047
 3272TIP3   OH2 9779   4.154   5.833   5.379
 3272TIP3    H1 9780   4.177   5.921   5.347
 3272TIP3    H2 9781   4.060   5.836   5.392
 3273TIP3   OH2 9782   6.447   6.516   5.495
 3273TIP3    H1 9783   6.504   6.538   5.569
 3273TIP3    H2 9784   6.361   6.550   5.521
 3274TIP3   OH2 9785   5.682   3.651   0.281
 3274TIP3    H1 9786   5.705   3.628   0.371
 3274TIP3    H2 9787   5.767   3.656   0.236
 3275TIP3   OH2 9788   5.176   3.284   4.637
 3275TIP3    H1 9789   5.131   3.200   4.631
 3275TIP3    H2 9790   5.119   3.344   4.589
 3276TIP3   OH2 9791   5.935   0.629   5.204
 3276TIP3    H1 9792   5.984   0.615   5.285
 3276TIP3    H2 9793   5.852   0.583   5.217
 3277TIP3   OH2 9794   2.601   4.449   5.653
 3277TIP3    H1 9795   2.644   4.365   5.640
 3277TIP3    H2 9796   2.535   4.433   5.720
 3278TIP3   OH2 9797   0.123   6.055   4.577
 3278TIP3    H1 9798   0.195   6.008   4.620
 3278TIP3    H2 9799   0.057   5.989   4.561
 3279TIP3   OH2 9800   1.892   0.871   3.733
 3279TIP3    H1 9801   1.819   0.927   3.704
 3279TIP3    H2 9802   1.960   0.885   3.667
 3280TIP3   OH2 9803   4.135   0.428   5.694
 3280TIP3    H1 9804   4.230   0.429   5.685
 3280TIP3    H2 9805   4.120   0.388   5.780
 3281TIP3   OH2 9806   4.562   4.501   2.231
 3281TIP3    H1 9807   4.536   4.586   2.266
 3281TIP3    H2 9808   4.479   4.457   2.211
 3282TIP3   OH2 9809   0.713   2.775   2.799
 3282TIP3    H1 9810   0.718   2.808   2.888
 3282TIP3    H2 9811   0.629   2.729   2.796
 3283TIP3   OH2 9812   6.675   5.117   2.956
 3283TIP3    H1 9813   6.740   5.049   2.979
 3283TIP3    H2 9814   6.681   5.180   3.028
 3284TIP3   OH2 9815   3.718   4.514   4.459
 3284TIP3    H1 9816   3.734   4.605   4.436
 3284TIP3    H2 9817   3.654   4.518   4.530
 3285TIP3   OH2 9818   3.630   1.449   0.351
 3285TIP3    H1 9819   3.649   1.512   0.420
 3285TIP3    H2 9820   3.539   1.423   0.366
 3286TIP3   OH2 9821   3.783   3.668   3.058
 3286TIP3    H1 9822   3.866   3.674   3.011
 3286TIP3    H2 9823   3.788   3.737   3.125
 3287TIP3   OH2 9824   0.777   4.050   2.099
 3287TIP3    H1 9825   0.752   3.971   2.147
 3287TIP3    H2 9826   0.870   4.036   2.078
 3288TIP3   OH2 9827   0.426   4.820   5.642
 3288TIP3    H1 9828   0.453   4.754   5.706
 3288TIP3    H2 9829   0.369   4.772   5.581
 3289TIP3   OH2 9830   4.291   3.336   4.621
 3289TIP3    H1 9831   4.315   3.362   4.710
 3289TIP3    H2 9832   4.294   3.241   4.622
 3290TIP3   OH2 9833   0.042   1.517   3.665
 3290TIP3    H1 9834   0.012   1.577   3.734
 3290TIP3    H2 9835   0.040   1.570   3.586
 3291TIP3   OH2 9836   6.738   6.066   0.118
 3291TIP3    H1 9837   6.671   5.997   0.116
 3291TIP3    H2 9838   6.743   6.097   0.028
 3292TIP3   OH2 9839   6.586   1.521   3.532
 3292TIP3    H1 9840   6.679   1.524   3.553
 3292TIP3    H2 9841   6.549   1.461   3.597
 3293TIP3   OH2 9842   3.393   2.815   0.397
 3293TIP3    H1 9843   3.324   2.807   0.463
 3293TIP3    H2 9844   3.474   2.825   0.447
 3294TIP3   OH2 9845   5.605   6.734   3.169
 3294TIP3    H1 9846   5.652   6.783   3.237
 3294TIP3    H2 9847   5.673   6.682   3.127
 3295TIP3   OH2 9848   0.429   4.033   2.688
 3295TIP3    H1 9849   0.450   4.092   2.615
 3295TIP3    H2 9850   0.350   4.070   2.727
 3296TIP3   OH2 9851   5.012   2.727   1.588
 3296TIP3    H1 9852   5.027   2.818   1.615
 3296TIP3    H2 9853   4.916   2.719   1.583
 3297TIP3   OH2 9854   5.046   4.909   5.340
 3297TIP3    H1 9855   5.011   4.944   5.258
 3297TIP3    H2 9856   4.974   4.859   5.378
 3298TIP3   OH2 9857   2.887   4.455   4.929
 3298TIP3    H1 9858   2.888   4.425   4.838
 3298TIP3    H2 9859   2.977   4.444   4.958
 3299TIP3   OH2 9860   0.827   5.554   2.830
 3299TIP3    H1 9861   0.765   5.569   2.758
 3299TIP3    H2 9862   0.781   5.494   2.889
 3300TIP3   OH2 9863   1.062   1.229   4.070
 3300TIP3    H1 9864   1.081   1.323   4.064
 3300TIP3    H2 9865   0.976   1.225   4.112
 3301TIP3   OH2 9866   0.311   1.109   5.032
 3301TIP3    H1 9867   0.247   1.050   4.992
 3301TIP3    H2 9868   0.264   1.192   5.042
 3302TIP3   OH2 9869   3.317   6.783   4.659
 3302TIP3    H1 9870   3.370   6.777   4.738
 3302TIP3    H2 9871   3.253   6.713   4.667
 3303TIP3   OH2 9872   6.224   0.546   0.966
 3303TIP3    H1 9873   6.266   0.502   1.040
 3303TIP3    H2 9874   6.160   0.482   0.933
 3304TIP3   OH2 9875   3.610   3.798   5.650
 3304TIP3    H1 9876   3.551   3.772   5.720
 3304TIP3    H2 9877   3.695   3.764   5.676
 3305TIP3   OH2 9878   0.191   0.643   4.891
 3305TIP3    H1 9879   0.269   0.667   4.840
 3305TIP3    H2 9880   0.207   0.553   4.918
 3306TIP3   OH2 9881   2.790   2.283   2.196
 3306TIP3    H1 9882   2.812   2.197   2.161
 3306TIP3    H2 9883   2.744   2.327   2.125
 3307TIP3   OH2 9884   1.202   3.926   0.398
 3307TIP3    H1 9885   1.170   3.968   0.478
 3307TIP3    H2 9886   1.140   3.854   0.383
 3308TIP3   OH2 9887   4.763   4.186   2.780
 3308TIP3    H1 9888   4.794   4.272   2.751
 3308TIP3    H2 9889   4.743   4.199   2.873
 3309TIP3   OH2 9890   5.818   0.418   2.005
 3309TIP3    H1 9891   5.731   0.389   1.976
 3309TIP3    H2 9892   5.845   0.351   2.068
 3310TIP3   OH2 9893   4.424   0.573   4.379
 3310TIP3    H1 9894   4.341   0.582   4.333
 3310TIP3    H2 9895   4.478   0.518   4.321
 3311TIP3   OH2 9896   6.477   5.605   2.313
 3311TIP3    H1 9897   6.428   5.653   2.379
 3311TIP3    H2 9898   6.537   5.549   2.363
 3312TIP3   OH2 9899   3.671   3.188   2.686
 3312TIP3    H1 9900   3.680   3.217   2.596
 3312TIP3    H2 9901   3.758   3.199   2.724
 3313TIP3   OH2 9902   4.691   1.039   0.927
 3313TIP3    H1 9903   4.785   1.025   0.934
 3313TIP3    H2 9904   4.682   1.129   0.898
 3314TIP3   OH2 9905   6.365   4.848   0.487
 3314TIP3    H1 9906   6.309   4.881   0.558
 3314TIP3    H2 9907   6.438   4.806   0.532
 3315TIP3   OH2 9908   0.223   5.283   2.183
 3315TIP3    H1 9909   0.164   5.356   2.201
 3315TIP3    H2 9910   0.302   5.303   2.234
 3316TIP3   OH2 9911   5.837   5.309   1.778
 3316TIP3    H1 9912   5.842   5.341   1.688
 3316TIP3    H2 9913   5.761   5.353   1.815
 3317TIP3   OH2 9914   2.155   1.474   2.773
 3317TIP3    H1 9915   2.186   1.558   2.807
 3317TIP3    H2 9916   2.081   1.497   2.717
 3318TIP3   OH2 9917   2.172   0.565   2.563
 3318TIP3    H1 9918   2.258   0.559   2.521
 3318TIP3    H2 9919   2.149   0.657   2.558
 3319TIP3   OH2 9920   1.699   2.130   1.810
 3319TIP3    H1 9921   1.664   2.042   1.806
 3319TIP3    H2 9922   1.670   2.164   1.895
 3320TIP3   OH2 9923   0.201   4.242   2.012
 3320TIP3    H1 9924   0.279   4.273   1.967
 3320TIP3    H2 9925   0.214   4.268   2.103
 3321TIP3   OH2 9926   4.965   4.282   3.097
 3321TIP3    H1 9927   4.938   4.258   3.185
 3321TIP3    H2 9928   4.885   4.314   3.055
 3322TIP3   OH2 9929   4.003   0.163   1.978
 3322TIP3    H1 9930   3.943   0.105   1.932
 3322TIP3    H2 9931   4.082   0.163   1.925
 3323TIP3   OH2 9932   0.666   3.970   4.590
 3323TIP3    H1 9933   0.747   4.011   4.619
 3323TIP3    H2 9934   0.606   3.980   4.665
 3324TIP3   OH2 9935   1.368   5.356   1.205
 3324TIP3    H1 9936   1.360   5.269   1.243
 3324TIP3    H2 9937   1.437   5.398   1.257
 3325TIP3   OH2 9938   4.648   4.986   0.100
 3325TIP3    H1 9939   4.588   4.942   0.160
 3325TIP3    H2 9940   4.668   5.069   0.142
 3326TIP3   OH2 9941   3.003   1.456   4.493
 3326TIP3    H1 9942   3.085   1.423   4.530
 3326TIP3    H2 9943   2.998   1.416   4.407
 3327TIP3   OH2 9944   2.804   0.651   1.734
 3327TIP3    H1 9945   2.709   0.645   1.723
 3327TIP3    H2 9946   2.840   0.613   1.654
 3328TIP3   OH2 9947   4.446   0.825   4.123
 3328TIP3    H1 9948   4.452   0.733   4.096
 3328TIP3    H2 9949   4.361   0.831   4.167
 3329TIP3   OH2 9950   2.952   0.440   4.152
 3329TIP3    H1 9951   2.990   0.506   4.209
 3329TIP3    H2 9952   3.021   0.374   4.141
 3330TIP3   OH2 9953   3.505   4.516   4.656
 3330TIP3    H1 9954   3.523   4.433   4.701
 3330TIP3    H2 9955   3.415   4.506   4.623
 3331TIP3   OH2 9956   5.930   4.392   0.900
 3331TIP3    H1 9957   5.958   4.345   0.822
 3331TIP3    H2 9958   5.927   4.484   0.873
 3332TIP3   OH2 9959   4.785   5.953   2.336
 3332TIP3    H1 9960   4.714   6.017   2.336
 3332TIP3    H2 9961   4.849   5.987   2.397
 3333TIP3   OH2 9962   6.932   4.399   1.579
 3333TIP3    H1 9963   7.001   4.409   1.644
 3333TIP3    H2 9964   6.871   4.471   1.596
 3334TIP3   OH2 9965   4.887   5.171   5.255
 3334TIP3    H1 9966   4.831   5.095   5.268
 3334TIP3    H2 9967   4.890   5.214   5.340
 3335TIP3   OH2 9968   0.666   5.291   0.836
 3335TIP3    H1 9969   0.621   5.363   0.791
 3335TIP3    H2 9970   0.603   5.263   0.903
 3336TIP3   OH2 9971   3.904   4.817   5.401
 3336TIP3    H1 9972   3.900   4.906   5.436
 3336TIP3    H2 9973   3.969   4.773   5.457
 3337TIP3   OH2 9974   5.427   1.830   0.649
 3337TIP3    H1 9975   5.448   1.899   0.712
 3337TIP3    H2 9976   5.393   1.759   0.703
 3338TIP3   OH2 9977   6.905   5.675   0.254
 3338TIP3    H1 9978   6.924   5.761   0.292
 3338TIP3    H2 9979   6.818   5.653   0.288
 3339TIP3   OH2 9980   2.154   6.592   2.962
 3339TIP3    H1 9981   2.229   6.546   2.924
 3339TIP3    H2 9982   2.132   6.542   3.040
 3340TIP3   OH2 9983   0.782   6.230   0.254
 3340TIP3    H1 9984   0.753   6.303   0.308
 3340TIP3    H2 9985   0.817   6.166   0.317
 3341TIP3   OH2 9986   5.935   3.822   0.583
 3341TIP3    H1 9987   5.940   3.884   0.510
 3341TIP3    H2 9988   5.953   3.737   0.544
 3342TIP3   OH2 9989   2.828   4.403   2.110
 3342TIP3    H1 9990   2.786   4.323   2.142
 3342TIP3    H2 9991   2.893   4.424   2.177
 3343TIP3   OH2 9992   1.920   1.958   5.744
 3343TIP3    H1 9993   1.905   1.961   5.838
 3343TIP3    H2 9994   2.015   1.961   5.735
 3344TIP3   OH2 9995   0.908   0.563   0.481
 3344TIP3    H1 9996   0.897   0.582   0.388
 3344TIP3    H2 9997   0.982   0.503   0.484
 3345TIP3   OH2 9998   6.184   6.584   0.114
 3345TIP3    H1 9999   6.240   6.538   0.176
 3345TIP3    H210000   6.244   6.632   0.058
 3346TIP3   OH210001   5.543   3.451   4.180
 3346TIP3    H110002   5.542   3.374   4.123
 3346TIP3    H210003   5.503   3.421   4.261
 3347TIP3   OH210004   2.398   5.925   1.888
 3347TIP3    H110005   2.388   5.830   1.885
 3347TIP3    H210006   2.395   5.947   1.981
 3348TIP3   OH210007   2.968   5.646   4.087
 3348TIP3    H110008   2.986   5.652   4.181
 3348TIP3    H210009   2.873   5.658   4.080
 3349TIP3   OH210010   2.152   2.684   0.766
 3349TIP3    H110011   2.099   2.755   0.802
 3349TIP3    H210012   2.212   2.726   0.705
 3350TIP3   OH210013   0.459   0.644   3.331
 3350TIP3    H110014   0.498   0.655   3.418
 3350TIP3    H210015   0.384   0.703   3.331
 3351TIP3   OH210016  -0.038   2.017   2.484
 3351TIP3    H110017  -0.079   1.983   2.563
 3351TIP3    H210018   0.056   2.012   2.502
 3352TIP3   OH210019   1.167   3.818   2.084
 3352TIP3    H110020   1.161   3.723   2.098
 3352TIP3    H210021   1.244   3.845   2.134
 3353TIP3   OH210022   1.261   1.650   4.303
 3353TIP3    H110023   1.249   1.634   4.396
 3353TIP3    H210024   1.237   1.742   4.291
 3354TIP3   OH210025   0.169   2.772   1.622
 3354TIP3    H110026   0.146   2.699   1.564
 3354TIP3    H210027   0.086   2.799   1.660
 3355TIP3   OH210028   2.271   4.668   3.032
 3355TIP3    H110029   2.271   4.634   2.942
 3355TIP3    H210030   2.180   4.660   3.060
 3356TIP3   OH210031   6.986   2.924   5.460
 3356TIP3    H110032   6.958   2.924   5.552
 3356TIP3    H210033   7.038   3.005   5.451
 3357TIP3   OH210034   5.050   0.941   3.266
 3357TIP3    H110035   5.018   1.000   3.198
 3357TIP3    H210036   5.010   0.974   3.347
 3358TIP3   OH210037   2.803   3.901   3.844
 3358TIP3    H110038   2.761   3.984   3.866
 3358TIP3    H210039   2.852   3.877   3.922
 3359TIP3   OH210040   5.849   2.946   3.520
 3359TIP3    H110041   5.912   2.901   3.463
 3359TIP3    H210042   5.863   2.907   3.606
 3360TIP3   OH210043   4.486   4.727   0.794
 3360TIP3    H110044   4.449   4.690   0.875
 3360TIP3    H210045   4.495   4.652   0.736
 3361TIP3   OH210046   6.027   1.788   0.839
 3361TIP3    H110047   5.989   1.793   0.752
 3361TIP3    H210048   5.975   1.851   0.891
 3362TIP3   OH210049   1.520   4.201   2.833
 3362TIP3    H110050   1.577   4.233   2.903
 3362TIP3    H210051   1.516   4.107   2.846
 3363TIP3   OH210052   1.125   1.186   1.024
 3363TIP3    H110053   1.171   1.269   1.034
 3363TIP3    H210054   1.059   1.187   1.092
 3364TIP3   OH210055   4.003   5.723   5.073
 3364TIP3    H110056   3.954   5.718   5.154
 3364TIP3    H210057   4.094   5.706   5.099
 3365TIP3   OH210058   5.412   1.629   1.024
 3365TIP3    H110059   5.507   1.637   1.035
 3365TIP3    H210060   5.398   1.646   0.931
 3366TIP3   OH210061   6.189   0.037   3.001
 3366TIP3    H110062   6.243   0.097   3.053
 3366TIP3    H210063   6.164   0.089   2.925
 3367TIP3   OH210064   2.824   5.972   4.298
 3367TIP3    H110065   2.808   5.993   4.206
 3367TIP3    H210066   2.840   5.877   4.298
 3368TIP3   OH210067   6.836   4.898   2.973
 3368TIP3    H110068   6.809   4.826   2.917
 3368TIP3    H210069   6.931   4.890   2.978
 3369TIP3   OH210070   2.957   6.726   1.294
 3369TIP3    H110071   2.916   6.719   1.208
 3369TIP3    H210072   2.888   6.703   1.356
 3370TIP3   OH210073   6.023   6.145   3.005
 3370TIP3    H110074   6.046   6.206   2.935
 3370TIP3    H210075   6.068   6.063   2.982
 3371TIP3   OH210076   4.025   0.617   3.412
 3371TIP3    H110077   4.039   0.523   3.426
 3371TIP3    H210078   3.948   0.622   3.356
 3372TIP3   OH210079   1.991   2.986   4.049
 3372TIP3    H110080   1.968   2.990   4.142
 3372TIP3    H210081   1.919   2.937   4.009
 3373TIP3   OH210082   1.281   2.201   3.921
 3373TIP3    H110083   1.345   2.220   3.989
 3373TIP3    H210084   1.209   2.262   3.938
 3374TIP3   OH210085   0.094   4.529   4.427
 3374TIP3    H110086   0.112   4.435   4.428
 3374TIP3    H210087   0.177   4.569   4.452
 3375TIP3   OH210088   3.117   2.673   5.456
 3375TIP3    H110089   3.178   2.748   5.455
 3375TIP3    H210090   3.030   2.713   5.458
 3376TIP3   OH210091   2.425   5.239   1.832
 3376TIP3    H110092   2.385   5.278   1.909
 3376TIP3    H210093   2.419   5.145   1.847
 3377TIP3   OH210094   2.350   3.170   4.922
 3377TIP3    H110095   2.285   3.113   4.881
 3377TIP3    H210096   2.377   3.230   4.853
 3378TIP3   OH210097   0.712   2.063   4.326
 3378TIP3    H110098   0.739   1.983   4.371
 3378TIP3    H210099   0.766   2.132   4.363
 3379TIP3   OH210100   3.434   6.214   3.525
 3379TIP3    H110101   3.431   6.259   3.441
 3379TIP3    H210102   3.505   6.151   3.517
 3380TIP3   OH210103   6.130   0.168   4.708
 3380TIP3    H110104   6.171   0.239   4.756
 3380TIP3    H210105   6.190   0.150   4.635
 3381TIP3   OH210106   1.265   0.502   2.443
 3381TIP3    H110107   1.245   0.587   2.482
 3381TIP3    H210108   1.332   0.520   2.377
 3382TIP3   OH210109   5.634   5.585   0.316
 3382TIP3    H110110   5.629   5.606   0.223
 3382TIP3    H210111   5.728   5.582   0.335
 3383TIP3   OH210112   3.737   6.025   2.803
 3383TIP3    H110113   3.673   5.970   2.758
 3383TIP3    H210114   3.742   6.104   2.751
 3384TIP3   OH210115   5.896   2.687   5.143
 3384TIP3    H110116   5.812   2.720   5.173
 3384TIP3    H210117   5.940   2.656   5.223
 3385TIP3   OH210118   0.390   2.840   1.183
 3385TIP3    H110119   0.311   2.886   1.211
 3385TIP3    H210120   0.391   2.760   1.235
 3386TIP3   OH210121   1.142   6.061   1.168
 3386TIP3    H110122   1.154   6.139   1.113
 3386TIP3    H210123   1.098   6.094   1.247
 3387TIP3   OH210124   5.311   2.736   0.116
 3387TIP3    H110125   5.324   2.827   0.141
 3387TIP3    H210126   5.267   2.741   0.030
 3388TIP3   OH210127   0.519   5.493   0.723
 3388TIP3    H110128   0.430   5.471   0.698
 3388TIP3    H210129   0.550   5.552   0.654
 3389TIP3   OH210130   1.783   4.307   1.172
 3389TIP3    H110131   1.793   4.233   1.232
 3389TIP3    H210132   1.761   4.381   1.228
 3390TIP3   OH210133   5.236   6.636   2.319
 3390TIP3    H110134   5.268   6.686   2.394
 3390TIP3    H210135   5.145   6.662   2.310
 3391TIP3   OH210136   2.787   5.032   5.617
 3391TIP3    H110137   2.692   5.033   5.610
 3391TIP3    H210138   2.816   5.108   5.566
 3392TIP3   OH210139   0.180   6.691   3.640
 3392TIP3    H110140   0.172   6.609   3.592
 3392TIP3    H210141   0.106   6.692   3.700
 3393TIP3   OH210142   0.616   3.130   5.832
 3393TIP3    H110143   0.602   3.223   5.815
 3393TIP3    H210144   0.676   3.128   5.906
 3394TIP3   OH210145   2.262   5.394   1.640
 3394TIP3    H110146   2.302   5.363   1.559
 3394TIP3    H210147   2.316   5.358   1.710
 3395TIP3   OH210148   3.795   1.863   2.779
 3395TIP3    H110149   3.848   1.935   2.746
 3395TIP3    H210150   3.859   1.793   2.796
 3396TIP3   OH210151   0.256   5.539   0.524
 3396TIP3    H110152   0.300   5.623   0.533
 3396TIP3    H210153   0.167   5.562   0.497
 3397TIP3   OH210154   2.266   4.412   1.860
 3397TIP3    H110155   2.228   4.479   1.918
 3397TIP3    H210156   2.217   4.422   1.778
 3398TIP3   OH210157   2.450   0.275   5.471
 3398TIP3    H110158   2.498   0.198   5.440
 3398TIP3    H210159   2.364   0.241   5.497
 3399TIP3   OH210160   2.612   3.226   0.672
 3399TIP3    H110161   2.566   3.236   0.755
 3399TIP3    H210162   2.554   3.265   0.607
 3400TIP3   OH210163   6.439   2.807   3.201
 3400TIP3    H110164   6.528   2.812   3.236
 3400TIP3    H210165   6.394   2.880   3.243
 3401TIP3   OH210166   1.556   2.248   3.107
 3401TIP3    H110167   1.507   2.219   3.184
 3401TIP3    H210168   1.510   2.208   3.033
 3402TIP3   OH210169   5.768   3.580   4.093
 3402TIP3    H110170   5.687   3.536   4.120
 3402TIP3    H210171   5.817   3.592   4.174
 3403TIP3   OH210172   0.612   1.616   3.590
 3403TIP3    H110173   0.561   1.563   3.652
 3403TIP3    H210174   0.700   1.619   3.627
 3404TIP3   OH210175   6.766   6.108   1.924
 3404TIP3    H110176   6.703   6.047   1.962
 3404TIP3    H210177   6.817   6.055   1.863
 3405TIP3   OH210178   3.864   6.130   3.032
 3405TIP3    H110179   3.798   6.196   3.049
 3405TIP3    H210180   3.833   6.085   2.953
 3406TIP3   OH210181   1.436   3.070   3.536
 3406TIP3    H110182   1.365   3.038   3.592
 3406TIP3    H210183   1.516   3.039   3.578
 3407TIP3   OH210184   5.393   5.176   2.981
 3407TIP3    H110185   5.420   5.115   3.050
 3407TIP3    H210186   5.422   5.134   2.900
 3408TIP3   OH210187   6.365   3.866   1.336
 3408TIP3    H110188   6.274   3.862   1.308
 3408TIP3    H210189   6.416   3.856   1.256
 3409TIP3   OH210190   3.527   5.929   1.733
 3409TIP3    H110191   3.497   5.870   1.665
 3409TIP3    H210192   3.446   5.962   1.773
 3410TIP3   OH210193   0.170   0.164   1.871
 3410TIP3    H110194   0.164   0.222   1.795
 3410TIP3    H210195   0.142   0.217   1.945
 3411TIP3   OH210196   5.925   6.039   3.274
 3411TIP3    H110197   5.968   6.063   3.191
 3411TIP3    H210198   5.858   5.976   3.248
 3412TIP3   OH210199   0.961   3.203   1.670
 3412TIP3    H110200   1.032   3.167   1.723
 3412TIP3    H210201   0.963   3.297   1.689
 3413TIP3   OH210202   2.726   0.320   0.251
 3413TIP3    H110203   2.798   0.265   0.280
 3413TIP3    H210204   2.649   0.287   0.298
 3414TIP3   OH210205   6.974   6.810   4.366
 3414TIP3    H110206   7.065   6.781   4.376
 3414TIP3    H210207   6.925   6.730   4.349
 3415TIP3   OH210208   0.086   2.665   3.263
 3415TIP3    H110209   0.090   2.717   3.183
 3415TIP3    H210210  -0.007   2.645   3.275
 3416TIP3   OH210211   1.097   4.859   4.982
 3416TIP3    H110212   1.016   4.849   4.932
 3416TIP3    H210213   1.130   4.945   4.956
 3417TIP3   OH210214   4.337   2.021   5.011
 3417TIP3    H110215   4.244   2.019   4.988
 3417TIP3    H210216   4.340   2.069   5.094
 3418TIP3   OH210217   0.648   6.742   5.435
 3418TIP3    H110218   0.677   6.665   5.386
 3418TIP3    H210219   0.554   6.727   5.450
 3419TIP3   OH210220   5.340   2.029   2.545
 3419TIP3    H110221   5.339   2.116   2.504
 3419TIP3    H210222   5.345   1.968   2.471
 3420TIP3   OH210223   6.291   1.764   0.619
 3420TIP3    H110224   6.274   1.721   0.703
 3420TIP3    H210225   6.385   1.783   0.620
 3421TIP3   OH210226   3.985  -0.022   4.422
 3421TIP3    H110227   3.935  -0.066   4.353
 3421TIP3    H210228   3.954   0.069   4.420
 3422TIP3   OH210229   4.392   3.105   2.256
 3422TIP3    H110230   4.311   3.148   2.228
 3422TIP3    H210231   4.455   3.177   2.264
 3423TIP3   OH210232   4.359   2.817   5.722
 3423TIP3    H110233   4.416   2.747   5.690
 3423TIP3    H210234   4.405   2.897   5.700
 3424TIP3   OH210235   5.902   6.543   0.053
 3424TIP3    H110236   5.885   6.611   0.119
 3424TIP3    H210237   5.998   6.535   0.051
 3425TIP3   OH210238   4.927   5.488   0.274
 3425TIP3    H110239   4.927   5.459   0.365
 3425TIP3    H210240   4.931   5.584   0.280
 3426TIP3   OH210241   2.785   5.769   0.182
 3426TIP3    H110242   2.792   5.818   0.101
 3426TIP3    H210243   2.828   5.824   0.248
 3427TIP3   OH210244   5.043   5.750   3.376
 3427TIP3    H110245   5.029   5.773   3.469
 3427TIP3    H210246   5.138   5.754   3.364
 3428TIP3   OH210247   0.937   3.264   0.290
 3428TIP3    H110248   0.873   3.201   0.257
 3428TIP3    H210249   0.994   3.282   0.215
 3429TIP3   OH210250   1.653   3.046   0.658
 3429TIP3    H110251   1.617   3.099   0.586
 3429TIP3    H210252   1.591   3.057   0.729
 3430TIP3   OH210253   2.374   6.272   0.791
 3430TIP3    H110254   2.286   6.293   0.760
 3430TIP3    H210255   2.401   6.349   0.842
 3431TIP3   OH210256   2.430   3.204   0.088
 3431TIP3    H110257   2.377   3.228   0.012
 3431TIP3    H210258   2.377   3.231   0.163
 3432TIP3   OH210259   3.875   2.065   1.569
 3432TIP3    H110260   3.970   2.055   1.575
 3432TIP3    H210261   3.852   2.034   1.482
 3433TIP3   OH210262   3.139   0.675   3.848
 3433TIP3    H110263   3.066   0.729   3.876
 3433TIP3    H210264   3.117   0.648   3.758
 3434TIP3   OH210265   4.483   1.300   3.762
 3434TIP3    H110266   4.504   1.286   3.855
 3434TIP3    H210267   4.399   1.346   3.763
 3435TIP3   OH210268   4.278   1.381   2.367
 3435TIP3    H110269   4.309   1.360   2.455
 3435TIP3    H210270   4.262   1.295   2.326
 3436TIP3   OH210271   2.745   0.772   5.094
 3436TIP3    H110272   2.735   0.706   5.025
 3436TIP3    H210273   2.807   0.835   5.057
 3437TIP3   OH210274   5.659   5.299   0.294
 3437TIP3    H110275   5.605   5.377   0.282
 3437TIP3    H210276   5.748   5.334   0.304
 3438TIP3   OH210277   2.603   4.596   3.187
 3438TIP3    H110278   2.696   4.616   3.175
 3438TIP3    H210279   2.599   4.550   3.271
 3439TIP3   OH210280   0.282   0.936   2.457
 3439TIP3    H110281   0.255   1.028   2.457
 3439TIP3    H210282   0.359   0.933   2.400
 3440TIP3   OH210283   2.938   2.950   4.465
 3440TIP3    H110284   2.868   2.944   4.530
 3440TIP3    H210285   2.982   2.865   4.469
 3441TIP3   OH210286   1.249   5.164   5.523
 3441TIP3    H110287   1.263   5.161   5.428
 3441TIP3    H210288   1.298   5.241   5.552
 3442TIP3   OH210289   2.448   2.659   0.361
 3442TIP3    H110290   2.484   2.685   0.276
 3442TIP3    H210291   2.487   2.573   0.377
 3443TIP3   OH210292   4.498   2.382   0.065
 3443TIP3    H110293   4.480   2.476   0.061
 3443TIP3    H210294   4.490   2.352  -0.025
 3444TIP3   OH210295   0.454   1.029   1.350
 3444TIP3    H110296   0.461   0.991   1.263
 3444TIP3    H210297   0.491   1.117   1.341
 3445TIP3   OH210298   1.491   6.742   1.858
 3445TIP3    H110299   1.398   6.743   1.833
 3445TIP3    H210300   1.497   6.674   1.925
 3446TIP3   OH210301   3.374   0.754   0.534
 3446TIP3    H110302   3.291   0.803   0.529
 3446TIP3    H210303   3.441   0.822   0.542
 3447TIP3   OH210304  -0.002   1.323   4.387
 3447TIP3    H110305   0.058   1.282   4.448
 3447TIP3    H210306   0.048   1.331   4.305
 3448TIP3   OH210307   2.719   3.582   3.961
 3448TIP3    H110308   2.640   3.612   4.006
 3448TIP3    H210309   2.785   3.648   3.983
 3449TIP3   OH210310   6.236   0.991   4.372
 3449TIP3    H110311   6.272   0.959   4.289
 3449TIP3    H210312   6.253   0.920   4.434
 3450TIP3   OH210313   7.177   1.592   5.611
 3450TIP3    H110314   7.125   1.609   5.690
 3450TIP3    H210315   7.139   1.512   5.574
 3451TIP3   OH210316   0.293   4.097   5.748
 3451TIP3    H110317   0.358   4.143   5.803
 3451TIP3    H210318   0.257   4.030   5.806
 3452TIP3   OH210319   0.696   4.788   2.503
 3452TIP3    H110320   0.723   4.717   2.445
 3452TIP3    H210321   0.747   4.776   2.583
 3453TIP3   OH210322   5.918   1.668   2.149
 3453TIP3    H110323   5.866   1.654   2.070
 3453TIP3    H210324   6.007   1.648   2.123
 3454TIP3   OH210325   3.172   3.838   4.228
 3454TIP3    H110326   3.227   3.914   4.246
 3454TIP3    H210327   3.092   3.874   4.190
 3455TIP3   OH210328   4.765   2.917   5.516
 3455TIP3    H110329   4.703   2.980   5.481
 3455TIP3    H210330   4.837   2.916   5.454
 3456TIP3   OH210331   4.227   1.628   5.746
 3456TIP3    H110332   4.289   1.660   5.811
 3456TIP3    H210333   4.274   1.635   5.663
 3457TIP3   OH210334   2.420   3.427   1.682
 3457TIP3    H110335   2.515   3.423   1.674
 3457TIP3    H210336   2.403   3.514   1.718
 3458TIP3   OH210337   3.756   2.917   4.235
 3458TIP3    H110338   3.815   2.894   4.163
 3458TIP3    H210339   3.706   2.837   4.251
 3459TIP3   OH210340   2.369   1.479   1.927
 3459TIP3    H110341   2.452   1.521   1.901
 3459TIP3    H210342   2.312   1.490   1.850
 3460TIP3   OH210343   4.116   1.723   0.638
 3460TIP3    H110344   4.157   1.795   0.686
 3460TIP3    H210345   4.136   1.740   0.546
 3461TIP3   OH210346   5.213   1.869   3.248
 3461TIP3    H110347   5.230   1.916   3.166
 3461TIP3    H210348   5.119   1.853   3.248
 3462TIP3   OH210349   5.082   0.171   5.478
 3462TIP3    H110350   5.140   0.112   5.431
 3462TIP3    H210351   5.017   0.114   5.519
 3463TIP3   OH210352   4.547   2.453   0.870
 3463TIP3    H110353   4.551   2.546   0.849
 3463TIP3    H210354   4.639   2.426   0.878
 3464TIP3   OH210355   2.720   5.368   4.182
 3464TIP3    H110356   2.684   5.292   4.229
 3464TIP3    H210357   2.643   5.421   4.160
 3465TIP3   OH210358   1.796   1.734   1.376
 3465TIP3    H110359   1.891   1.732   1.391
 3465TIP3    H210360   1.760   1.770   1.457
 3466TIP3   OH210361   3.518   4.299   4.823
 3466TIP3    H110362   3.513   4.317   4.917
 3466TIP3    H210363   3.545   4.208   4.817
 3467TIP3   OH210364   0.878   5.685   0.408
 3467TIP3    H110365   0.938   5.691   0.482
 3467TIP3    H210366   0.891   5.767   0.360
 3468TIP3   OH210367   5.176   6.024   5.392
 3468TIP3    H110368   5.240   6.093   5.375
 3468TIP3    H210369   5.091   6.065   5.376
 3469TIP3   OH210370   5.158   3.267   1.477
 3469TIP3    H110371   5.237   3.301   1.519
 3469TIP3    H210372   5.191   3.205   1.412
 3470TIP3   OH210373   3.181   5.354   3.026
 3470TIP3    H110374   3.270   5.318   3.021
 3470TIP3    H210375   3.179   5.400   3.110
 3471TIP3   OH210376   1.803   4.881   5.087
 3471TIP3    H110377   1.875   4.898   5.148
 3471TIP3    H210378   1.836   4.911   5.002
 3472TIP3   OH210379   0.101   1.691   2.115
 3472TIP3    H110380   0.135   1.714   2.029
 3472TIP3    H210381   0.030   1.754   2.131
 3473TIP3   OH210382   6.077   6.079   2.080
 3473TIP3    H110383   6.150   6.025   2.050
 3473TIP3    H210384   6.002   6.019   2.084
 3474TIP3   OH210385   0.351   2.343   2.440
 3474TIP3    H110386   0.291   2.363   2.368
 3474TIP3    H210387   0.393   2.427   2.460
 3475TIP3   OH210388   0.278   2.579   3.973
 3475TIP3    H110389   0.265   2.543   3.885
 3475TIP3    H210390   0.266   2.673   3.963
 3476TIP3   OH210391   1.357   1.864   1.371
 3476TIP3    H110392   1.274   1.882   1.325
 3476TIP3    H210393   1.358   1.927   1.443
 3477TIP3   OH210394   4.217   1.120   2.129
 3477TIP3    H110395   4.280   1.074   2.185
 3477TIP3    H210396   4.151   1.054   2.109
 3478TIP3   OH210397   6.324   3.499   4.163
 3478TIP3    H110398   6.269   3.447   4.222
 3478TIP3    H210399   6.406   3.450   4.159
 3479TIP3   OH210400   4.309   3.902   1.988
 3479TIP3    H110401   4.361   3.829   1.953
 3479TIP3    H210402   4.314   3.892   2.083
 3480TIP3   OH210403   6.726   5.951   1.498
 3480TIP3    H110404   6.646   6.002   1.507
 3480TIP3    H210405   6.706   5.884   1.433
 3481TIP3   OH210406   0.166   6.116   3.189
 3481TIP3    H110407   0.133   6.125   3.278
 3481TIP3    H210408   0.227   6.042   3.193
 3482TIP3   OH210409   2.578   3.916   0.852
 3482TIP3    H110410   2.624   3.839   0.820
 3482TIP3    H210411   2.486   3.888   0.856
 3483TIP3   OH210412   1.710   2.502   1.454
 3483TIP3    H110413   1.639   2.483   1.515
 3483TIP3    H210414   1.775   2.433   1.471
 3484TIP3   OH210415   0.595   6.108   2.312
 3484TIP3    H110416   0.619   6.147   2.228
 3484TIP3    H210417   0.533   6.039   2.290
 3485TIP3   OH210418   5.905   4.110   3.239
 3485TIP3    H110419   5.827   4.132   3.289
 3485TIP3    H210420   5.962   4.186   3.249
 3486TIP3   OH210421   1.592   4.022   0.333
 3486TIP3    H110422   1.676   4.057   0.304
 3486TIP3    H210423   1.586   4.045   0.425
 3487TIP3   OH210424   3.015   2.798   4.146
 3487TIP3    H110425   2.966   2.788   4.227
 3487TIP3    H210426   2.959   2.756   4.079
 3488TIP3   OH210427   5.610   2.848   3.189
 3488TIP3    H110428   5.630   2.851   3.095
 3488TIP3    H210429   5.525   2.804   3.193
 3489TIP3   OH210430   6.189   4.090   2.484
 3489TIP3    H110431   6.131   4.114   2.411
 3489TIP3    H210432   6.171   3.998   2.499
 3490TIP3   OH210433   3.140   1.554   1.694
 3490TIP3    H110434   3.223   1.510   1.674
 3490TIP3    H210435   3.096   1.497   1.756
 3491TIP3   OH210436   4.050   2.161   5.286
 3491TIP3    H110437   4.010   2.172   5.372
 3491TIP3    H210438   4.051   2.066   5.273
 3492TIP3   OH210439   1.669   2.625   5.449
 3492TIP3    H110440   1.617   2.562   5.498
 3492TIP3    H210441   1.753   2.627   5.494
 3493TIP3   OH210442   3.542   5.539   4.188
 3493TIP3    H110443   3.601   5.480   4.142
 3493TIP3    H210444   3.590   5.566   4.266
 3494TIP3   OH210445   4.335   3.607   0.737
 3494TIP3    H110446   4.289   3.607   0.821
 3494TIP3    H210447   4.333   3.699   0.709
 3495TIP3   OH210448   0.589   6.548   5.050
 3495TIP3    H110449   0.625   6.621   5.101
 3495TIP3    H210450   0.666   6.504   5.014
 3496TIP3   OH210451   1.788   5.042   0.098
 3496TIP3    H110452   1.814   5.098   0.025
 3496TIP3    H210453   1.725   5.094   0.148
 3497TIP3   OH210454   5.976   2.381   0.838
 3497TIP3    H110455   6.063   2.420   0.835
 3497TIP3    H210456   5.928   2.425   0.768
 3498TIP3   OH210457   6.117   4.911   2.419
 3498TIP3    H110458   6.202   4.926   2.378
 3498TIP3    H210459   6.059   4.975   2.379
 3499TIP3   OH210460   3.153   2.817   0.883
 3499TIP3    H110461   3.076   2.784   0.928
 3499TIP3    H210462   3.125   2.900   0.845
 3500TIP3   OH210463   5.486   0.259   5.274
 3500TIP3    H110464   5.459   0.179   5.319
 3500TIP3    H210465   5.579   0.268   5.296
 3501TIP3   OH210466   1.640   3.522   5.582
 3501TIP3    H110467   1.716   3.469   5.559
 3501TIP3    H210468   1.676   3.610   5.596
 3502TIP3   OH210469   1.044   0.632   4.375
 3502TIP3    H110470   1.084   0.573   4.312
 3502TIP3    H210471   0.996   0.575   4.434
 3503TIP3   OH210472   4.572   3.409   1.945
 3503TIP3    H110473   4.587   3.490   1.995
 3503TIP3    H210474   4.548   3.439   1.857
 3504TIP3   OH210475   0.721   0.305   3.735
 3504TIP3    H110476   0.733   0.399   3.746
 3504TIP3    H210477   0.641   0.296   3.684
 3505TIP3   OH210478   1.528   0.065   4.818
 3505TIP3    H110479   1.557   0.141   4.768
 3505TIP3    H210480   1.601   0.004   4.813
 3506TIP3   OH210481   1.929   6.436   3.358
 3506TIP3    H110482   1.864   6.367   3.342
 3506TIP3    H210483   1.930   6.446   3.453
 3507TIP3   OH210484   5.184   1.549   0.056
 3507TIP3    H110485   5.223   1.462   0.051
 3507TIP3    H210486   5.251   1.608   0.022
 3508TIP3   OH210487   5.981   5.919   3.909
 3508TIP3    H110488   6.035   5.865   3.966
 3508TIP3    H210489   5.892   5.905   3.940
 3509TIP3   OH210490   4.849   2.872   4.898
 3509TIP3    H110491   4.931   2.860   4.946
 3509TIP3    H210492   4.782   2.877   4.966
 3510TIP3   OH210493   4.322   3.194   2.963
 3510TIP3    H110494   4.315   3.120   2.902
 3510TIP3    H210495   4.276   3.265   2.919
 3511TIP3   OH210496   6.477   5.244   2.244
 3511TIP3    H110497   6.422   5.246   2.322
 3511TIP3    H210498   6.562   5.278   2.274
 3512TIP3   OH210499   6.367   5.496   0.705
 3512TIP3    H110500   6.389   5.571   0.760
 3512TIP3    H210501   6.275   5.478   0.725
 3513TIP3   OH210502   3.479   2.442   3.667
 3513TIP3    H110503   3.545   2.400   3.613
 3513TIP3    H210504   3.446   2.372   3.723
 3514TIP3   OH210505   3.174   1.986   3.073
 3514TIP3    H110506   3.239   2.056   3.074
 3514TIP3    H210507   3.092   2.030   3.047
 3515TIP3   OH210508   7.171   6.157   2.058
 3515TIP3    H110509   7.220   6.085   2.097
 3515TIP3    H210510   7.190   6.152   1.964
 3516TIP3   OH210511   6.606   4.304   3.731
 3516TIP3    H110512   6.575   4.342   3.649
 3516TIP3    H210513   6.529   4.259   3.767
 3517TIP3   OH210514   3.718   1.031   4.179
 3517TIP3    H110515   3.709   1.022   4.274
 3517TIP3    H210516   3.808   1.060   4.166
 3518TIP3   OH210517   3.635   4.058   5.244
 3518TIP3    H110518   3.602   4.005   5.171
 3518TIP3    H210519   3.705   4.004   5.282
 3519TIP3   OH210520   3.278   3.279   5.843
 3519TIP3    H110521   3.199   3.242   5.804
 3519TIP3    H210522   3.326   3.203   5.876
 3520TIP3   OH210523   3.067   5.792   1.604
 3520TIP3    H110524   2.993   5.750   1.562
 3520TIP3    H210525   3.055   5.886   1.586
 3521TIP3   OH210526   6.237   0.114   2.390
 3521TIP3    H110527   6.211   0.064   2.312
 3521TIP3    H210528   6.285   0.051   2.444
 3522TIP3   OH210529   6.752   3.836   3.283
 3522TIP3    H110530   6.830   3.780   3.282
 3522TIP3    H210531   6.738   3.855   3.376
 3523TIP3   OH210532   2.662   6.035   0.786
 3523TIP3    H110533   2.675   6.042   0.691
 3523TIP3    H210534   2.574   6.068   0.800
 3524TIP3   OH210535   6.643   5.183   4.655
 3524TIP3    H110536   6.689   5.259   4.690
 3524TIP3    H210537   6.672   5.176   4.564
 3525TIP3   OH210538   3.627   4.117   4.320
 3525TIP3    H110539   3.669   4.036   4.348
 3525TIP3    H210540   3.631   4.115   4.225
 3526TIP3   OH210541   3.601   1.196   5.769
 3526TIP3    H110542   3.614   1.290   5.764
 3526TIP3    H210543   3.597   1.167   5.678
 3527TIP3   OH210544   5.274   2.125   3.943
 3527TIP3    H110545   5.354   2.152   3.988
 3527TIP3    H210546   5.206   2.181   3.982
 3528TIP3   OH210547   3.784   0.407   3.040
 3528TIP3    H110548   3.817   0.441   2.957
 3528TIP3    H210549   3.710   0.464   3.061
 3529TIP3   OH210550   5.737   0.681   4.917
 3529TIP3    H110551   5.705   0.622   4.985
 3529TIP3    H210552   5.726   0.769   4.955
 3530TIP3   OH210553   7.034   3.396   2.606
 3530TIP3    H110554   7.046   3.490   2.611
 3530TIP3    H210555   6.946   3.380   2.640
 3531TIP3   OH210556   3.384   5.452   3.623
 3531TIP3    H110557   3.331   5.513   3.676
 3531TIP3    H210558   3.393   5.496   3.539
 3532TIP3   OH210559   2.025   0.357   0.061
 3532TIP3    H110560   2.116   0.379   0.038
 3532TIP3    H210561   2.029   0.338   0.155
 3533TIP3   OH210562   3.848   3.574   4.120
 3533TIP3    H110563   3.806   3.555   4.036
 3533TIP3    H210564   3.786   3.632   4.165
 3534TIP3   OH210565   5.565   2.710   0.658
 3534TIP3    H110566   5.640   2.713   0.599
 3534TIP3    H210567   5.603   2.699   0.745
 3535TIP3   OH210568   3.169   2.190   1.968
 3535TIP3    H110569   3.257   2.227   1.968
 3535TIP3    H210570   3.168   2.130   1.893
 3536TIP3   OH210571   6.851   4.014   4.041
 3536TIP3    H110572   6.930   4.006   4.095
 3536TIP3    H210573   6.873   3.969   3.960
 3537TIP3   OH210574   5.055   0.414   1.324
 3537TIP3    H110575   4.996   0.471   1.374
 3537TIP3    H210576   5.010   0.330   1.321
 3538TIP3   OH210577   1.848   0.421   0.412
 3538TIP3    H110578   1.847   0.513   0.386
 3538TIP3    H210579   1.936   0.408   0.448
 3539TIP3   OH210580   6.442   6.720   1.634
 3539TIP3    H110581   6.467   6.711   1.542
 3539TIP3    H210582   6.492   6.795   1.665
 3540TIP3   OH210583   7.252   5.382   5.056
 3540TIP3    H110584   7.186   5.400   4.989
 3540TIP3    H210585   7.216   5.419   5.137
 3541TIP3   OH210586  -0.008   1.487   1.972
 3541TIP3    H110587  -0.023   1.418   2.037
 3541TIP3    H210588   0.042   1.554   2.020
 3542TIP3   OH210589   0.827   5.721   3.684
 3542TIP3    H110590   0.815   5.696   3.592
 3542TIP3    H210591   0.887   5.656   3.719
 3543TIP3   OH210592   4.204   3.955   1.684
 3543TIP3    H110593   4.210   3.984   1.775
 3543TIP3    H210594   4.115   3.981   1.657
 3544TIP3   OH210595   2.354   5.904   0.522
 3544TIP3    H110596   2.408   5.979   0.495
 3544TIP3    H210597   2.412   5.828   0.512
 3545TIP3   OH210598   6.810   6.635   0.682
 3545TIP3    H110599   6.808   6.553   0.732
 3545TIP3    H210600   6.809   6.607   0.590
 3546TIP3   OH210601   6.753   2.468   5.121
 3546TIP3    H110602   6.794   2.460   5.207
 3546TIP3    H210603   6.824   2.497   5.063
 3547TIP3   OH210604   1.606   6.238   1.446
 3547TIP3    H110605   1.628   6.263   1.536
 3547TIP3    H210606   1.628   6.315   1.394
 3548TIP3   OH210607   4.979   0.393   0.981
 3548TIP3    H110608   4.895   0.414   1.022
 3548TIP3    H210609   4.958   0.322   0.920
 3549TIP3   OH210610   1.457   3.097   2.601
 3549TIP3    H110611   1.469   3.186   2.567
 3549TIP3    H210612   1.540   3.075   2.643
 3550TIP3   OH210613   3.902   0.683   2.544
 3550TIP3    H110614   3.965   0.741   2.502
 3550TIP3    H210615   3.956   0.626   2.600
 3551TIP3   OH210616   2.804   0.479   4.380
 3551TIP3    H110617   2.871   0.468   4.447
 3551TIP3    H210618   2.839   0.435   4.303
 3552TIP3   OH210619   4.056   5.350   3.046
 3552TIP3    H110620   4.103   5.373   3.127
 3552TIP3    H210621   3.964   5.358   3.070
 3553TIP3   OH210622   5.749   1.195   4.347
 3553TIP3    H110623   5.840   1.196   4.376
 3553TIP3    H210624   5.716   1.110   4.375
 3554TIP3   OH210625   6.672   2.772   3.710
 3554TIP3    H110626   6.724   2.845   3.742
 3554TIP3    H210627   6.600   2.813   3.662
 3555TIP3   OH210628   0.579   0.056   2.474
 3555TIP3    H110629   0.562   0.041   2.567
 3555TIP3    H210630   0.675   0.055   2.466
 3556TIP3   OH210631   4.795   1.092   1.954
 3556TIP3    H110632   4.750   1.100   2.038
 3556TIP3    H210633   4.888   1.089   1.977
 3557TIP3   OH210634   2.295   2.397   1.577
 3557TIP3    H110635   2.213   2.439   1.551
 3557TIP3    H210636   2.337   2.374   1.494
 3558TIP3   OH210637   4.617   4.745   3.372
 3558TIP3    H110638   4.636   4.820   3.428
 3558TIP3    H210639   4.599   4.783   3.286
 3559TIP3   OH210640   6.533   5.945   0.975
 3559TIP3    H110641   6.509   6.016   0.916
 3559TIP3    H210642   6.592   5.985   1.039
 3560TIP3   OH210643   5.325   6.363   2.316
 3560TIP3    H110644   5.259   6.314   2.266
 3560TIP3    H210645   5.279   6.443   2.343
 3561TIP3   OH210646   0.458   3.738   1.021
 3561TIP3    H110647   0.442   3.678   0.948
 3561TIP3    H210648   0.486   3.681   1.093
 3562TIP3   OH210649   6.552   4.685   0.308
 3562TIP3    H110650   6.600   4.625   0.250
 3562TIP3    H210651   6.611   4.699   0.382
 3563TIP3   OH210652   7.079   2.615   0.502
 3563TIP3    H110653   7.134   2.555   0.450
 3563TIP3    H210654   7.106   2.702   0.474
 3564TIP3   OH210655   5.509   0.246   1.112
 3564TIP3    H110656   5.417   0.268   1.098
 3564TIP3    H210657   5.553   0.330   1.125
 3565TIP3   OH210658   1.559   0.687   4.568
 3565TIP3    H110659   1.603   0.615   4.612
 3565TIP3    H210660   1.522   0.648   4.489
 3566TIP3   OH210661   4.292   3.915   4.478
 3566TIP3    H110662   4.212   3.967   4.475
 3566TIP3    H210663   4.304   3.887   4.387
 3567TIP3   OH210664   5.661   0.504   5.158
 3567TIP3    H110665   5.578   0.521   5.201
 3567TIP3    H210666   5.647   0.425   5.107
 3568TIP3   OH210667   3.717   3.015   0.903
 3568TIP3    H110668   3.665   3.091   0.879
 3568TIP3    H210669   3.778   3.048   0.970
 3569TIP3   OH210670   2.720   1.476   0.345
 3569TIP3    H110671   2.671   1.425   0.409
 3569TIP3    H210672   2.776   1.413   0.300
 3570TIP3   OH210673   2.400   3.149   2.986
 3570TIP3    H110674   2.428   3.232   2.949
 3570TIP3    H210675   2.431   3.151   3.077
 3571TIP3   OH210676   3.107   1.377   0.874
 3571TIP3    H110677   3.189   1.361   0.919
 3571TIP3    H210678   3.052   1.302   0.895
 3572TIP3   OH210679   2.168   0.442   0.672
 3572TIP3    H110680   2.235   0.374   0.671
 3572TIP3    H210681   2.173   0.483   0.585
 3573TIP3   OH210682   3.000   6.540   0.720
 3573TIP3    H110683   3.020   6.482   0.793
 3573TIP3    H210684   3.038   6.497   0.643
 3574TIP3   OH210685   5.735   5.086   2.182
 3574TIP3    H110686   5.687   5.166   2.205
 3574TIP3    H210687   5.825   5.104   2.206
 3575TIP3   OH210688   0.020   3.662   5.338
 3575TIP3    H110689   0.014   3.603   5.263
 3575TIP3    H210690   0.105   3.643   5.377
 3576TIP3   OH210691   0.729   6.261   3.343
 3576TIP3    H110692   0.673   6.241   3.269
 3576TIP3    H210693   0.707   6.194   3.409
 3577TIP3   OH210694   0.228   1.158   4.304
 3577TIP3    H110695   0.173   1.082   4.283
 3577TIP3    H210696   0.242   1.201   4.220
 3578TIP3   OH210697   6.101   0.158   2.769
 3578TIP3    H110698   6.119   0.252   2.774
 3578TIP3    H210699   6.060   0.146   2.684
 3579TIP3   OH210700   5.639   2.756   2.363
 3579TIP3    H110701   5.666   2.676   2.318
 3579TIP3    H210702   5.634   2.822   2.294
 3580TIP3   OH210703   0.830   3.571   0.788
 3580TIP3    H110704   0.747   3.612   0.765
 3580TIP3    H210705   0.863   3.534   0.707
 3581TIP3   OH210706   2.823   6.110   5.755
 3581TIP3    H110707   2.899   6.096   5.699
 3581TIP3    H210708   2.851   6.176   5.818
 3582TIP3   OH210709   6.704   5.353   2.364
 3582TIP3    H110710   6.725   5.298   2.439
 3582TIP3    H210711   6.732   5.441   2.389
 3583TIP3   OH210712  -0.020   0.103   1.259
 3583TIP3    H110713  -0.052   0.163   1.327
 3583TIP3    H210714   0.019   0.030   1.307
 3584TIP3   OH210715   5.855   3.518   5.542
 3584TIP3    H110716   5.909   3.598   5.543
 3584TIP3    H210717   5.785   3.538   5.480
 3585TIP3   OH210718   6.183   2.202   4.596
 3585TIP3    H110719   6.159   2.269   4.660
 3585TIP3    H210720   6.105   2.191   4.542
 3586TIP3   OH210721   6.050   2.496   3.476
 3586TIP3    H110722   5.964   2.484   3.436
 3586TIP3    H210723   6.093   2.562   3.422
 3587TIP3   OH210724   3.143   5.290   5.184
 3587TIP3    H110725   3.163   5.317   5.273
 3587TIP3    H210726   3.156   5.369   5.131
 3588TIP3   OH210727   2.950   5.428   2.906
 3588TIP3    H110728   2.941   5.522   2.892
 3588TIP3    H210729   3.038   5.418   2.942
 3589TIP3   OH210730   6.605   6.794   2.630
 3589TIP3    H110731   6.591   6.799   2.725
 3589TIP3    H210732   6.561   6.871   2.595
 3590TIP3   OH210733   3.703   3.909   4.522
 3590TIP3    H110734   3.782   3.856   4.538
 3590TIP3    H210735   3.635   3.844   4.503
 3591TIP3   OH210736   6.965   1.874   0.124
 3591TIP3    H110737   7.023   1.827   0.183
 3591TIP3    H210738   7.012   1.955   0.103
 3592TIP3   OH210739   0.565   2.810   2.264
 3592TIP3    H110740   0.555   2.744   2.196
 3592TIP3    H210741   0.484   2.861   2.261
 3593TIP3   OH210742   2.869   2.535   2.403
 3593TIP3    H110743   2.886   2.598   2.333
 3593TIP3    H210744   2.904   2.452   2.370
 3594TIP3   OH210745   3.190   3.393   5.245
 3594TIP3    H110746   3.150   3.345   5.172
 3594TIP3    H210747   3.228   3.471   5.204
 3595TIP3   OH210748   7.010   2.911   3.617
 3595TIP3    H110749   6.936   2.955   3.658
 3595TIP3    H210750   7.015   2.949   3.530
 3596TIP3   OH210751   2.762   2.355   1.328
 3596TIP3    H110752   2.712   2.281   1.362
 3596TIP3    H210753   2.850   2.321   1.314
 3597TIP3   OH210754   1.521   0.592   2.715
 3597TIP3    H110755   1.441   0.627   2.676
 3597TIP3    H210756   1.576   0.569   2.641
 3598TIP3   OH210757   3.829   1.692   2.508
 3598TIP3    H110758   3.887   1.715   2.580
 3598TIP3    H210759   3.870   1.617   2.466
 3599TIP3   OH210760   4.422   3.767   5.559
 3599TIP3    H110761   4.350   3.722   5.602
 3599TIP3    H210762   4.496   3.707   5.564
 3600TIP3   OH210763   1.937   2.262   1.831
 3600TIP3    H110764   1.863   2.201   1.840
 3600TIP3    H210765   1.899   2.341   1.793
 3601TIP3   OH210766   0.891   2.385   4.740
 3601TIP3    H110767   0.896   2.476   4.770
 3601TIP3    H210768   0.861   2.392   4.649
 3602TIP3   OH210769   1.883   3.476   1.364
 3602TIP3    H110770   1.953   3.504   1.423
 3602TIP3    H210771   1.924   3.408   1.311
 3603TIP3   OH210772   0.976   0.077   3.849
 3603TIP3    H110773   1.053   0.122   3.885
 3603TIP3    H210774   0.955   0.127   3.770
 3604TIP3   OH210775   1.195   5.119   4.913
 3604TIP3    H110776   1.127   5.136   4.849
 3604TIP3    H210777   1.210   5.203   4.956
 3605TIP3   OH210778   4.049   0.154   5.784
 3605TIP3    H110779   3.982   0.167   5.851
 3605TIP3    H210780   4.039   0.062   5.758
 3606TIP3   OH210781   0.603   2.802   0.120
 3606TIP3    H110782   0.659   2.783   0.044
 3606TIP3    H210783   0.613   2.896   0.133
 3607TIP3   OH210784   6.223   3.718   5.362
 3607TIP3    H110785   6.313   3.744   5.377
 3607TIP3    H210786   6.204   3.747   5.273
 3608TIP3   OH210787   2.467   0.145   3.573
 3608TIP3    H110788   2.507   0.058   3.579
 3608TIP3    H210789   2.389   0.140   3.629
 3609TIP3   OH210790   5.354   3.733   1.502
 3609TIP3    H110791   5.447   3.718   1.522
 3609TIP3    H210792   5.354   3.807   1.441
 3610TIP3   OH210793   1.607   2.651   4.726
 3610TIP3    H110794   1.644   2.565   4.747
 3610TIP3    H210795   1.520   2.631   4.691
 3611TIP3   OH210796   2.401   3.096   5.815
 3611TIP3    H110797   2.471   3.151   5.851
 3611TIP3    H210798   2.406   3.015   5.865
 3612TIP3   OH210799   6.982   3.693   3.323
 3612TIP3    H110800   6.956   3.615   3.373
 3612TIP3    H210801   7.043   3.739   3.380
 3613TIP3   OH210802   6.800   2.603   0.489
 3613TIP3    H110803   6.896   2.599   0.493
 3613TIP3    H210804   6.780   2.619   0.397
 3614TIP3   OH210805   2.493   3.902   2.727
 3614TIP3    H110806   2.544   3.940   2.798
 3614TIP3    H210807   2.424   3.853   2.771
 3615TIP3   OH210808   5.594   4.345   5.033
 3615TIP3    H110809   5.533   4.324   5.103
 3615TIP3    H210810   5.573   4.283   4.963
 3616TIP3   OH210811   6.057   6.635   0.715
 3616TIP3    H110812   6.140   6.682   0.717
 3616TIP3    H210813   6.046   6.601   0.803
 3617TIP3   OH210814   6.753   2.291   3.289
 3617TIP3    H110815   6.664   2.313   3.319
 3617TIP3    H210816   6.809   2.309   3.365
 3618TIP3   OH210817   2.303   4.231   5.198
 3618TIP3    H110818   2.243   4.296   5.233
 3618TIP3    H210819   2.383   4.242   5.249
 3619TIP3   OH210820   5.101   1.360   1.690
 3619TIP3    H110821   5.103   1.311   1.772
 3619TIP3    H210822   5.033   1.317   1.638
 3620TIP3   OH210823   4.070   0.264   0.722
 3620TIP3    H110824   4.123   0.258   0.802
 3620TIP3    H210825   4.120   0.322   0.664
 3621TIP3   OH210826   6.664   5.885   0.409
 3621TIP3    H110827   6.656   5.790   0.403
 3621TIP3    H210828   6.717   5.909   0.333
 3622TIP3   OH210829   6.733   6.587   1.509
 3622TIP3    H110830   6.661   6.533   1.476
 3622TIP3    H210831   6.809   6.561   1.457
 3623TIP3   OH210832   3.082  -0.021   0.650
 3623TIP3    H110833   3.093  -0.053   0.560
 3623TIP3    H210834   3.164   0.023   0.671
 3624TIP3   OH210835   2.442   0.938   2.544
 3624TIP3    H110836   2.399   0.891   2.616
 3624TIP3    H210837   2.534   0.941   2.570
 3625TIP3   OH210838   2.951   0.761   5.478
 3625TIP3    H110839   2.918   0.672   5.465
 3625TIP3    H210840   2.997   0.782   5.397
 3626TIP3   OH210841   6.705   1.377   4.659
 3626TIP3    H110842   6.771   1.367   4.591
 3626TIP3    H210843   6.748   1.347   4.739
 3627TIP3   OH210844   1.471   2.802   2.878
 3627TIP3    H110845   1.551   2.816   2.826
 3627TIP3    H210846   1.458   2.886   2.922
 3628TIP3   OH210847   6.164   5.783   3.017
 3628TIP3    H110848   6.224   5.715   2.987
 3628TIP3    H210849   6.096   5.736   3.064
 3629TIP3   OH210850   5.754   3.779   2.783
 3629TIP3    H110851   5.681   3.752   2.839
 3629TIP3    H210852   5.808   3.700   2.776
 3630TIP3   OH210853   2.832   2.736   3.000
 3630TIP3    H110854   2.880   2.819   2.998
 3630TIP3    H210855   2.777   2.742   3.078
 3631TIP3   OH210856   6.193   6.165   2.752
 3631TIP3    H110857   6.177   6.221   2.676
 3631TIP3    H210858   6.268   6.111   2.726
 3632TIP3   OH210859   4.743   5.488   5.536
 3632TIP3    H110860   4.650   5.500   5.556
 3632TIP3    H210861   4.788   5.533   5.608
 3633TIP3   OH210862   2.306   4.925   4.420
 3633TIP3    H110863   2.387   4.973   4.438
 3633TIP3    H210864   2.334   4.837   4.397
 3634TIP3   OH210865   2.187   2.728   0.249
 3634TIP3    H110866   2.209   2.821   0.260
 3634TIP3    H210867   2.263   2.691   0.203
 3635TIP3   OH210868   6.816   1.217   4.404
 3635TIP3    H110869   6.876   1.291   4.416
 3635TIP3    H210870   6.844   1.153   4.470
 3636TIP3   OH210871   7.085   4.082   1.210
 3636TIP3    H110872   7.113   4.106   1.121
 3636TIP3    H210873   7.028   4.154   1.237
 3637TIP3   OH210874   7.032   5.733   2.498
 3637TIP3    H110875   7.050   5.643   2.526
 3637TIP3    H210876   6.969   5.765   2.563
 3638TIP3   OH210877   2.856   2.048   1.121
 3638TIP3    H110878   2.855   1.953   1.132
 3638TIP3    H210879   2.887   2.081   1.205
 3639TIP3   OH210880   6.373   1.333   5.065
 3639TIP3    H110881   6.397   1.424   5.052
 3639TIP3    H210882   6.457   1.287   5.078
 3640TIP3   OH210883   1.634   2.581   1.178
 3640TIP3    H110884   1.689   2.547   1.248
 3640TIP3    H210885   1.633   2.512   1.112
 3641TIP3   OH210886   2.547   6.440   3.148
 3641TIP3    H110887   2.546   6.367   3.210
 3641TIP3    H210888   2.464   6.485   3.162
 3642TIP3   OH210889   0.772   0.255   1.834
 3642TIP3    H110890   0.709   0.228   1.767
 3642TIP3    H210891   0.855   0.218   1.804
 3643TIP3   OH210892   6.366   4.206   0.931
 3643TIP3    H110893   6.446   4.153   0.928
 3643TIP3    H210894   6.352   4.223   1.024
 3644TIP3   OH210895   3.235   5.985   2.240
 3644TIP3    H110896   3.202   5.899   2.216
 3644TIP3    H210897   3.161   6.044   2.226
 3645TIP3   OH210898   0.434   6.114   5.749
 3645TIP3    H110899   0.474   6.155   5.673
 3645TIP3    H210900   0.438   6.020   5.730
 3646TIP3   OH210901   5.941   1.952   0.139
 3646TIP3    H110902   5.857   1.987   0.109
 3646TIP3    H210903   5.918   1.879   0.196
 3647TIP3   OH210904   5.294   5.023   0.505
 3647TIP3    H110905   5.363   5.032   0.440
 3647TIP3    H210906   5.319   4.947   0.557
 3648TIP3   OH210907   5.406   0.662   4.579
 3648TIP3    H110908   5.401   0.579   4.625
 3648TIP3    H210909   5.484   0.705   4.614
 3649TIP3   OH210910   6.962   5.355   1.837
 3649TIP3    H110911   6.872   5.349   1.806
 3649TIP3    H210912   6.956   5.405   1.919
 3650TIP3   OH210913   4.070   5.309   4.324
 3650TIP3    H110914   3.975   5.299   4.321
 3650TIP3    H210915   4.095   5.280   4.411
 3651TIP3   OH210916   0.536   5.522   3.806
 3651TIP3    H110917   0.576   5.591   3.860
 3651TIP3    H210918   0.533   5.446   3.864
 3652TIP3   OH210919   1.651   1.551   3.067
 3652TIP3    H110920   1.584   1.487   3.091
 3652TIP3    H210921   1.720   1.538   3.132
 3653TIP3   OH210922   6.329   3.376   0.861
 3653TIP3    H110923   6.424   3.387   0.863
 3653TIP3    H210924   6.312   3.325   0.781
 3654TIP3   OH210925   1.619   2.507   3.090
 3654TIP3    H110926   1.534   2.546   3.110
 3654TIP3    H210927   1.611   2.416   3.118
 3655TIP3   OH210928   6.069   4.999   3.366
 3655TIP3    H110929   6.113   5.006   3.451
 3655TIP3    H210930   6.139   5.002   3.302
 3656TIP3   OH210931   5.297   6.837   0.477
 3656TIP3    H110932   5.325   6.747   0.460
 3656TIP3    H210933   5.202   6.831   0.488
 3657TIP3   OH210934   3.111   5.905   2.580
 3657TIP3    H110935   3.137   5.826   2.533
 3657TIP3    H210936   3.042   5.944   2.526
 3658TIP3   OH210937   6.311   1.981   4.739
 3658TIP3    H110938   6.284   2.040   4.669
 3658TIP3    H210939   6.387   1.935   4.703
 3659TIP3   OH210940   6.905   4.310   5.623
 3659TIP3    H110941   6.899   4.218   5.647
 3659TIP3    H210942   6.828   4.327   5.568
 3660TIP3   OH210943   7.116   5.883   4.555
 3660TIP3    H110944   7.095   5.846   4.469
 3660TIP3    H210945   7.160   5.812   4.602
 3661TIP3   OH210946   4.118   6.305   4.634
 3661TIP3    H110947   4.192   6.354   4.597
 3661TIP3    H210948   4.043   6.364   4.625
 3662TIP3   OH210949   5.671   1.671   0.614
 3662TIP3    H110950   5.605   1.739   0.627
 3662TIP3    H210951   5.636   1.594   0.660
 3663TIP3   OH210952   6.963   1.152   1.189
 3663TIP3    H110953   6.892   1.102   1.150
 3663TIP3    H210954   7.041   1.124   1.140
 3664TIP3   OH210955   0.745   6.167   4.800
 3664TIP3    H110956   0.778   6.080   4.778
 3664TIP3    H210957   0.652   6.154   4.820
 3665TIP3   OH210958   6.385   1.784   1.104
 3665TIP3    H110959   6.412   1.751   1.018
 3665TIP3    H210960   6.350   1.872   1.087
 3666TIP3   OH210961   1.935   4.303   2.889
 3666TIP3    H110962   1.879   4.270   2.819
 3666TIP3    H210963   2.024   4.289   2.857
 3667TIP3   OH210964   6.114   4.456   4.036
 3667TIP3    H110965   6.203   4.457   4.001
 3667TIP3    H210966   6.108   4.373   4.084
 3668TIP3   OH210967   3.539   2.465   1.162
 3668TIP3    H110968   3.563   2.475   1.255
 3668TIP3    H210969   3.546   2.554   1.126
 3669TIP3   OH210970   5.245   2.570   1.541
 3669TIP3    H110971   5.173   2.629   1.564
 3669TIP3    H210972   5.217   2.485   1.575
 3670TIP3   OH210973   4.122   3.294   5.040
 3670TIP3    H110974   4.190   3.296   5.108
 3670TIP3    H210975   4.071   3.374   5.055
 3671TIP3   OH210976   5.673   1.054   2.624
 3671TIP3    H110977   5.607   1.036   2.692
 3671TIP3    H210978   5.624   1.095   2.553
 3672TIP3   OH210979   1.634   4.760   1.649
 3672TIP3    H110980   1.644   4.671   1.615
 3672TIP3    H210981   1.699   4.811   1.601
 3673TIP3   OH210982   1.541   1.898   5.455
 3673TIP3    H110983   1.556   1.923   5.363
 3673TIP3    H210984   1.507   1.809   5.450
 3674TIP3   OH210985   4.288   2.507   1.090
 3674TIP3    H110986   4.207   2.558   1.096
 3674TIP3    H210987   4.357   2.569   1.114
 3675TIP3   OH210988   5.439   1.357   5.258
 3675TIP3    H110989   5.526   1.381   5.226
 3675TIP3    H210990   5.453   1.330   5.349
 3676TIP3   OH210991   1.866   0.397   3.085
 3676TIP3    H110992   1.954   0.409   3.049
 3676TIP3    H210993   1.854   0.302   3.087
 3677TIP3   OH210994   1.314   6.346   0.530
 3677TIP3    H110995   1.329   6.254   0.508
 3677TIP3    H210996   1.400   6.380   0.554
 3678TIP3   OH210997   4.019   0.796   1.238
 3678TIP3    H110998   3.980   0.878   1.207
 3678TIP3    H210999   4.079   0.823   1.307
 3679TIP3   OH211000   0.488   1.397   5.674
 3679TIP3    H111001   0.405   1.438   5.648
 3679TIP3    H211002   0.465   1.345   5.751
 3680TIP3   OH211003   5.842   3.535   0.844
 3680TIP3    H111004   5.764   3.557   0.895
 3680TIP3    H211005   5.916   3.561   0.899
 3681TIP3   OH211006   2.419   6.391   4.603
 3681TIP3    H111007   2.466   6.311   4.582
 3681TIP3    H211008   2.333   6.379   4.564
 3682TIP3   OH211009   3.516   6.261   0.156
 3682TIP3    H111010   3.598   6.251   0.109
 3682TIP3    H211011   3.451   6.215   0.103
 3683TIP3   OH211012   0.318   0.455   2.383
 3683TIP3    H111013   0.323   0.459   2.479
 3683TIP3    H211014   0.402   0.417   2.356
 3684TIP3   OH211015   5.441   2.646   5.326
 3684TIP3    H111016   5.484   2.652   5.411
 3684TIP3    H211017   5.386   2.724   5.321
 3685TIP3   OH211018   3.441   1.943   4.416
 3685TIP3    H111019   3.407   1.889   4.345
 3685TIP3    H211020   3.525   1.976   4.384
 3686TIP3   OH211021   4.121   3.894   0.016
 3686TIP3    H111022   4.176   3.964  -0.017
 3686TIP3    H211023   4.061   3.873  -0.055
 3687TIP3   OH211024   1.721   4.466   3.018
 3687TIP3    H111025   1.807   4.429   2.998
 3687TIP3    H211026   1.669   4.450   2.940
 3688TIP3   OH211027   5.938   3.141   3.047
 3688TIP3    H111028   5.846   3.148   3.073
 3688TIP3    H211029   5.949   3.211   2.982
 3689TIP3   OH211030   4.251   4.019   4.220
 3689TIP3    H111031   4.260   3.970   4.138
 3689TIP3    H211032   4.215   4.104   4.195
 3690TIP3   OH211033   0.853   5.335   5.565
 3690TIP3    H111034   0.938   5.360   5.601
 3690TIP3    H211035   0.859   5.240   5.553
 3691TIP3   OH211036   1.238   4.182   1.145
 3691TIP3    H111037   1.331   4.164   1.163
 3691TIP3    H211038   1.192   4.143   1.220
 3692TIP3   OH211039   6.915   5.838   0.639
 3692TIP3    H111040   6.874   5.833   0.725
 3692TIP3    H211041   6.879   5.764   0.591
 3693TIP3   OH211042   2.523   1.303   2.826
 3693TIP3    H111043   2.446   1.299   2.770
 3693TIP3    H211044   2.523   1.221   2.875
 3694TIP3   OH211045   2.007   2.662   1.395
 3694TIP3    H111046   2.068   2.733   1.377
 3694TIP3    H211047   1.982   2.630   1.309
 3695TIP3   OH211048   6.916   1.974   1.580
 3695TIP3    H111049   6.835   1.977   1.630
 3695TIP3    H211050   6.903   2.037   1.509
 3696TIP3   OH211051   2.775   5.293   4.485
 3696TIP3    H111052   2.753   5.311   4.576
 3696TIP3    H211053   2.843   5.226   4.489
 3697TIP3   OH211054   1.422   0.116   1.123
 3697TIP3    H111055   1.370   0.135   1.201
 3697TIP3    H211056   1.512   0.135   1.149
 3698TIP3   OH211057   5.454   3.806   2.592
 3698TIP3    H111058   5.396   3.755   2.649
 3698TIP3    H211059   5.520   3.743   2.562
 3699TIP3   OH211060   5.786   1.566   5.435
 3699TIP3    H111061   5.760   1.475   5.418
 3699TIP3    H211062   5.826   1.595   5.354
 3700TIP3   OH211063   0.450   4.150   3.413
 3700TIP3    H111064   0.428   4.203   3.490
 3700TIP3    H211065   0.530   4.103   3.438
 3701TIP3   OH211066   2.214   5.893   1.631
 3701TIP3    H111067   2.135   5.945   1.621
 3701TIP3    H211068   2.230   5.890   1.725
 3702TIP3   OH211069   3.561   2.434   0.356
 3702TIP3    H111070   3.636   2.458   0.411
 3702TIP3    H211071   3.562   2.499   0.285
 3703TIP3   OH211072   2.740   3.643   2.756
 3703TIP3    H111073   2.707   3.639   2.846
 3703TIP3    H211074   2.790   3.724   2.753
 3704TIP3   OH211075   4.804   1.479   5.016
 3704TIP3    H111076   4.886   1.528   5.005
 3704TIP3    H211077   4.747   1.511   4.946
 3705TIP3   OH211078   5.838   1.808   1.463
 3705TIP3    H111079   5.816   1.898   1.442
 3705TIP3    H211080   5.933   1.803   1.449
 3706TIP3   OH211081   5.506   3.320   5.499
 3706TIP3    H111082   5.495   3.225   5.502
 3706TIP3    H211083   5.432   3.355   5.549
 3707TIP3   OH211084   0.821   1.394   4.261
 3707TIP3    H111085   0.746   1.376   4.317
 3707TIP3    H211086   0.797   1.358   4.176
 3708TIP3   OH211087   6.066   6.479   3.287
 3708TIP3    H111088   6.139   6.540   3.276
 3708TIP3    H211089   6.048   6.480   3.381
 3709TIP3   OH211090   5.861   3.756   1.655
 3709TIP3    H111091   5.837   3.774   1.746
 3709TIP3    H211092   5.793   3.798   1.603
 3710TIP3   OH211093   4.040   0.290   3.803
 3710TIP3    H111094   4.124   0.321   3.837
 3710TIP3    H211095   3.975   0.328   3.863
 3711TIP3   OH211096   0.680   2.475   2.683
 3711TIP3    H111097   0.748   2.432   2.632
 3711TIP3    H211098   0.642   2.539   2.623
 3712TIP3   OH211099   2.070   4.795   4.348
 3712TIP3    H111100   2.125   4.857   4.396
 3712TIP3    H211101   1.988   4.841   4.334
 3713TIP3   OH211102   5.376   1.823   2.346
 3713TIP3    H111103   5.328   1.821   2.263
 3713TIP3    H211104   5.340   1.750   2.396
 3714TIP3   OH211105   1.376   3.075   1.961
 3714TIP3    H111106   1.470   3.094   1.956
 3714TIP3    H211107   1.350   3.103   2.049
 3715TIP3   OH211108   1.448   3.344   4.499
 3715TIP3    H111109   1.371   3.322   4.447
 3715TIP3    H211110   1.420   3.333   4.590
 3716TIP3   OH211111   2.179   2.170   1.738
 3716TIP3    H111112   2.092   2.201   1.764
 3716TIP3    H211113   2.215   2.241   1.686
 3717TIP3   OH211114   0.217   3.351   4.484
 3717TIP3    H111115   0.159   3.406   4.431
 3717TIP3    H211116   0.276   3.413   4.528
 3718TIP3   OH211117   2.436   3.854   3.756
 3718TIP3    H111118   2.395   3.831   3.673
 3718TIP3    H211119   2.520   3.893   3.732
 3719TIP3   OH211120   3.338   6.435   3.679
 3719TIP3    H111121   3.267   6.411   3.739
 3719TIP3    H211122   3.369   6.352   3.644
 3720TIP3   OH211123   6.433   0.716   3.146
 3720TIP3    H111124   6.347   0.681   3.171
 3720TIP3    H211125   6.468   0.751   3.227
 3721TIP3   OH211126   2.204   0.117   3.981
 3721TIP3    H111127   2.130   0.063   4.007
 3721TIP3    H211128   2.242   0.148   4.064
 3722TIP3   OH211129   7.009   2.411   3.909
 3722TIP3    H111130   7.090   2.422   3.960
 3722TIP3    H211131   7.035   2.425   3.818
 3723TIP3   OH211132   5.524   2.275   2.456
 3723TIP3    H111133   5.499   2.345   2.517
 3723TIP3    H211134   5.486   2.302   2.372
 3724TIP3   OH211135   6.729   1.602   0.429
 3724TIP3    H111136   6.721   1.559   0.514
 3724TIP3    H211137   6.666   1.555   0.373
 3725TIP3   OH211138   2.940   3.513   0.554
 3725TIP3    H111139   3.003   3.478   0.618
 3725TIP3    H211140   2.987   3.586   0.513
 3726TIP3   OH211141   3.188   4.099   5.433
 3726TIP3    H111142   3.277   4.116   5.465
 3726TIP3    H211143   3.151   4.038   5.497
 3727TIP3   OH211144   6.285   1.585   4.302
 3727TIP3    H111145   6.331   1.508   4.269
 3727TIP3    H211146   6.345   1.624   4.365
 3728TIP3   OH211147   1.850   0.536   4.832
 3728TIP3    H111148   1.807   0.492   4.759
 3728TIP3    H211149   1.779   0.580   4.878
 3729TIP3   OH211150   6.082   3.572   5.707
 3729TIP3    H111151   6.081   3.665   5.688
 3729TIP3    H211152   6.096   3.530   5.622
 3730TIP3   OH211153   6.379   4.727   2.078
 3730TIP3    H111154   6.444   4.717   2.148
 3730TIP3    H211155   6.305   4.772   2.120
 3731TIP3   OH211156   4.571   1.469   0.670
 3731TIP3    H111157   4.512   1.513   0.731
 3731TIP3    H211158   4.513   1.434   0.602
 3732TIP3   OH211159   4.756   4.848   1.889
 3732TIP3    H111160   4.763   4.779   1.954
 3732TIP3    H211161   4.839   4.895   1.895
 3733TIP3   OH211162   1.040   1.915   1.648
 3733TIP3    H111163   0.964   1.893   1.701
 3733TIP3    H211164   1.043   2.011   1.648
 3734TIP3   OH211165   3.562   3.548   3.165
 3734TIP3    H111166   3.633   3.599   3.128
 3734TIP3    H211167   3.539   3.592   3.247
 3735TIP3   OH211168   1.644   0.910   0.522
 3735TIP3    H111169   1.562   0.920   0.474
 3735TIP3    H211170   1.666   0.998   0.551
 3736TIP3   OH211171   1.359   0.091   1.462
 3736TIP3    H111172   1.368   0.090   1.558
 3736TIP3    H211173   1.283   0.035   1.444
 3737TIP3   OH211174   6.396   4.837   3.513
 3737TIP3    H111175   6.468   4.884   3.471
 3737TIP3    H211176   6.409   4.852   3.607
 3738TIP3   OH211177   4.559   3.247   5.169
 3738TIP3    H111178   4.608   3.270   5.090
 3738TIP3    H211179   4.494   3.316   5.177
 3739TIP3   OH211180   5.742   3.843   4.006
 3739TIP3    H111181   5.757   3.748   4.011
 3739TIP3    H211182   5.687   3.855   3.929
 3740TIP3   OH211183   1.263   2.570   5.389
 3740TIP3    H111184   1.328   2.543   5.454
 3740TIP3    H211185   1.188   2.512   5.404
 3741TIP3   OH211186   2.108   5.437   4.567
 3741TIP3    H111187   2.119   5.406   4.657
 3741TIP3    H211188   2.085   5.358   4.517
 3742TIP3   OH211189   3.706   4.950   2.025
 3742TIP3    H111190   3.769   5.022   2.018
 3742TIP3    H211191   3.629   4.990   2.066
 3743TIP3   OH211192   3.561   6.724   1.882
 3743TIP3    H111193   3.570   6.789   1.952
 3743TIP3    H211194   3.471   6.734   1.851
 3744TIP3   OH211195   0.171   6.498   0.426
 3744TIP3    H111196   0.079   6.497   0.452
 3744TIP3    H211197   0.208   6.419   0.466
 3745TIP3   OH211198   2.284   1.909   0.413
 3745TIP3    H111199   2.227   1.972   0.456
 3745TIP3    H211200   2.225   1.843   0.378
 3746TIP3   OH211201   3.111   4.375   0.035
 3746TIP3    H111202   3.050   4.308   0.065
 3746TIP3    H211203   3.127   4.430   0.112
 3747TIP3   OH211204   4.198   2.568   1.952
 3747TIP3    H111205   4.225   2.490   1.999
 3747TIP3    H211206   4.206   2.544   1.860
 3748TIP3   OH211207   2.729   2.384   4.082
 3748TIP3    H111208   2.651   2.330   4.072
 3748TIP3    H211209   2.777   2.344   4.155
 3749TIP3   OH211210   2.956   1.154   1.259
 3749TIP3    H111211   3.021   1.110   1.204
 3749TIP3    H211212   2.995   1.154   1.347
 3750TIP3   OH211213   5.501   3.496   0.553
 3750TIP3    H111214   5.575   3.556   0.566
 3750TIP3    H211215   5.535   3.410   0.580
 3751TIP3   OH211216   3.717   3.428   2.951
 3751TIP3    H111217   3.688   3.393   3.035
 3751TIP3    H211218   3.721   3.523   2.965
 3752TIP3   OH211219   0.435   0.069   1.213
 3752TIP3    H111220   0.422   0.004   1.144
 3752TIP3    H211221   0.405   0.151   1.174
 3753TIP3   OH211222   1.645   3.333   5.116
 3753TIP3    H111223   1.664   3.241   5.137
 3753TIP3    H211224   1.550   3.337   5.109
 3754TIP3   OH211225   6.670   1.192   2.515
 3754TIP3    H111226   6.721   1.224   2.441
 3754TIP3    H211227   6.731   1.138   2.565
 3755TIP3   OH211228   6.924   4.453   4.127
 3755TIP3    H111229   6.889   4.495   4.049
 3755TIP3    H211230   7.008   4.496   4.142
 3756TIP3   OH211231   4.475   1.827   4.209
 3756TIP3    H111232   4.451   1.886   4.281
 3756TIP3    H211233   4.415   1.851   4.138
 3757TIP3   OH211234   1.625   2.873   3.259
 3757TIP3    H111235   1.667   2.933   3.320
 3757TIP3    H211236   1.691   2.855   3.193
 3758TIP3   OH211237   6.072   2.375   1.986
 3758TIP3    H111238   6.112   2.432   1.920
 3758TIP3    H211239   5.978   2.380   1.967
 3759TIP3   OH211240   4.882   6.697   1.443
 3759TIP3    H111241   4.848   6.721   1.529
 3759TIP3    H211242   4.975   6.681   1.458
 3760TIP3   OH211243   0.927   1.665   5.433
 3760TIP3    H111244   0.982   1.724   5.485
 3760TIP3    H211245   0.838   1.686   5.461
 3761TIP3   OH211246   6.930   2.391   1.015
 3761TIP3    H111247   6.889   2.444   0.948
 3761TIP3    H211248   6.994   2.337   0.967
 3762TIP3   OH211249   5.458   3.445   5.209
 3762TIP3    H111250   5.446   3.379   5.278
 3762TIP3    H211251   5.373   3.488   5.203
 3763TIP3   OH211252   5.693   3.502   2.745
 3763TIP3    H111253   5.676   3.539   2.658
 3763TIP3    H211254   5.606   3.478   2.778
 3764TIP3   OH211255   7.153   3.963   1.627
 3764TIP3    H111256   7.220   3.949   1.560
 3764TIP3    H211257   7.071   3.972   1.579
 3765TIP3   OH211258   4.598   5.329   0.768
 3765TIP3    H111259   4.580   5.422   0.785
 3765TIP3    H211260   4.692   5.319   0.786
 3766TIP3   OH211261   2.317   4.700   0.381
 3766TIP3    H111262   2.394   4.644   0.376
 3766TIP3    H211263   2.243   4.640   0.391
 3767TIP3   OH211264   3.523   4.896   5.179
 3767TIP3    H111265   3.470   4.905   5.258
 3767TIP3    H211266   3.597   4.954   5.192
 3768TIP3   OH211267   2.235   0.811   3.503
 3768TIP3    H111268   2.156   0.757   3.495
 3768TIP3    H211269   2.290   0.785   3.429
 3769TIP3   OH211270   5.908   0.127   4.515
 3769TIP3    H111271   5.850   0.074   4.571
 3769TIP3    H211272   5.987   0.138   4.567
 3770TIP3   OH211273   0.085   0.337   4.884
 3770TIP3    H111274   0.035   0.367   4.960
 3770TIP3    H211275   0.028   0.274   4.841
 3771TIP3   OH211276   2.100   1.166   4.053
 3771TIP3    H111277   2.188   1.164   4.015
 3771TIP3    H211278   2.110   1.220   4.132
 3772TIP3   OH211279   3.339   3.854   3.014
 3772TIP3    H111280   3.299   3.914   2.952
 3772TIP3    H211281   3.421   3.827   2.973
 3773TIP3   OH211282   1.354   4.428   4.695
 3773TIP3    H111283   1.407   4.480   4.756
 3773TIP3    H211284   1.275   4.406   4.744
 3774TIP3   OH211285   1.658   2.220   4.756
 3774TIP3    H111286   1.667   2.288   4.823
 3774TIP3    H211287   1.733   2.234   4.698
 3775TIP3   OH211288   5.018   6.825   3.498
 3775TIP3    H111289   5.074   6.783   3.564
 3775TIP3    H211290   4.954   6.873   3.550
 3776TIP3   OH211291   6.456   1.228   0.436
 3776TIP3    H111292   6.374   1.240   0.389
 3776TIP3    H211293   6.431   1.187   0.519
 3777TIP3   OH211294   6.973   0.734   4.490
 3777TIP3    H111295   6.994   0.747   4.398
 3777TIP3    H211296   6.955   0.641   4.499
 3778TIP3   OH211297   2.283   5.306   3.738
 3778TIP3    H111298   2.294   5.215   3.711
 3778TIP3    H211299   2.309   5.357   3.661
 3779TIP3   OH211300   4.071   3.155   4.016
 3779TIP3    H111301   4.146   3.170   4.075
 3779TIP3    H211302   3.994   3.173   4.070
 3780TIP3   OH211303   1.341   6.127   4.949
 3780TIP3    H111304   1.328   6.221   4.962
 3780TIP3    H211305   1.418   6.121   4.893
 3781TIP3   OH211306   6.286   1.809   5.333
 3781TIP3    H111307   6.358   1.749   5.354
 3781TIP3    H211308   6.228   1.759   5.276
 3782TIP3   OH211309   3.631   6.525   0.122
 3782TIP3    H111310   3.569   6.454   0.141
 3782TIP3    H211311   3.610   6.593   0.186
 3783TIP3   OH211312   3.442   0.899   1.821
 3783TIP3    H111313   3.354   0.863   1.813
 3783TIP3    H211314   3.498   0.834   1.779
 3784TIP3   OH211315   6.428   5.068   2.821
 3784TIP3    H111316   6.475   5.009   2.762
 3784TIP3    H211317   6.494   5.102   2.880
 3785TIP3   OH211318   2.357   2.946   2.109
 3785TIP3    H111319   2.299   3.022   2.099
 3785TIP3    H211320   2.335   2.911   2.195
 3786TIP3   OH211321   5.058   5.549   4.852
 3786TIP3    H111322   5.072   5.497   4.773
 3786TIP3    H211323   5.010   5.491   4.910
 3787TIP3   OH211324   0.007   0.410   2.448
 3787TIP3    H111325   0.027   0.449   2.533
 3787TIP3    H211326   0.013   0.483   2.386
 3788TIP3   OH211327   3.948   5.939   0.232
 3788TIP3    H111328   3.989   6.025   0.233
 3788TIP3    H211329   4.005   5.884   0.286
 3789TIP3   OH211330   6.940   0.462   4.643
 3789TIP3    H111331   7.027   0.473   4.680
 3789TIP3    H211332   6.914   0.373   4.668
 3790TIP3   OH211333   6.102   3.364   2.276
 3790TIP3    H111334   6.106   3.292   2.214
 3790TIP3    H211335   6.182   3.414   2.261
 3791TIP3   OH211336   3.754   6.684   1.147
 3791TIP3    H111337   3.692   6.652   1.081
 3791TIP3    H211338   3.822   6.617   1.150
 3792TIP3   OH211339   0.102   6.302   4.200
 3792TIP3    H111340   0.031   6.253   4.242
 3792TIP3    H211341   0.058   6.355   4.133
 3793TIP3   OH211342   5.597   5.379   5.661
 3793TIP3    H111343   5.553   5.319   5.721
 3793TIP3    H211344   5.564   5.355   5.575
 3794TIP3   OH211345   1.774   4.322   0.867
 3794TIP3    H111346   1.740   4.331   0.956
 3794TIP3    H211347   1.733   4.242   0.834
 3795TIP3   OH211348   7.083   0.404   2.144
 3795TIP3    H111349   7.003   0.448   2.173
 3795TIP3    H211350   7.103   0.445   2.061
 3796TIP3   OH211351   1.236   2.473   2.275
 3796TIP3    H111352   1.279   2.523   2.345
 3796TIP3    H211353   1.149   2.452   2.309
 3797TIP3   OH211354   6.128   0.979   3.461
 3797TIP3    H111355   6.085   1.004   3.543
 3797TIP3    H211356   6.153   1.062   3.420
 3798TIP3   OH211357   4.165   0.369   5.312
 3798TIP3    H111358   4.247   0.346   5.355
 3798TIP3    H211359   4.139   0.452   5.353
 3799TIP3   OH211360   0.712   3.873   1.050
 3799TIP3    H111361   0.639   3.842   0.997
 3799TIP3    H211362   0.703   3.827   1.134
 3800TIP3   OH211363   6.174   5.182   3.036
 3800TIP3    H111364   6.195   5.122   3.108
 3800TIP3    H211365   6.131   5.126   2.971
 3801TIP3   OH211366   0.082   5.523   2.971
 3801TIP3    H111367   0.111   5.584   2.903
 3801TIP3    H211368   0.151   5.456   2.973
 3802TIP3   OH211369   7.195   6.088   0.927
 3802TIP3    H111370   7.215   5.994   0.924
 3802TIP3    H211371   7.205   6.112   1.019
 3803TIP3   OH211372   0.251   2.362   3.056
 3803TIP3    H111373   0.321   2.422   3.031
 3803TIP3    H211374   0.234   2.310   2.977
 3804TIP3   OH211375   4.039   5.952   0.608
 3804TIP3    H111376   4.104   5.953   0.537
 3804TIP3    H211377   3.956   5.932   0.564
 3805TIP3   OH211378   1.027   6.487   0.822
 3805TIP3    H111379   1.024   6.441   0.739
 3805TIP3    H211380   1.121   6.500   0.838
 3806TIP3   OH211381   6.223   3.268   0.637
 3806TIP3    H111382   6.200   3.179   0.612
 3806TIP3    H211383   6.139   3.314   0.640
 3807TIP3   OH211384   6.669   6.476   5.291
 3807TIP3    H111385   6.594   6.469   5.349
 3807TIP3    H211386   6.743   6.494   5.349
 3808TIP3   OH211387   6.873   3.720   0.882
 3808TIP3    H111388   6.783   3.745   0.860
 3808TIP3    H211389   6.884   3.747   0.973
 3809TIP3   OH211390   4.654   0.117   5.232
 3809TIP3    H111391   4.629   0.055   5.300
 3809TIP3    H211392   4.745   0.096   5.211
 3810TIP3   OH211393   2.811   1.542   5.763
 3810TIP3    H111394   2.761   1.470   5.800
 3810TIP3    H211395   2.835   1.597   5.838
 3811TIP3   OH211396   5.129   0.767   1.982
 3811TIP3    H111397   5.040   0.794   2.006
 3811TIP3    H211398   5.185   0.811   2.046
 3812TIP3   OH211399   0.254   0.070   2.337
 3812TIP3    H111400   0.261   0.116   2.420
 3812TIP3    H211401   0.229   0.138   2.274
 3813TIP3   OH211402   2.258   5.077   3.545
 3813TIP3    H111403   2.248   4.990   3.583
 3813TIP3    H211404   2.302   5.062   3.462
 3814TIP3   OH211405   5.842   6.273   3.765
 3814TIP3    H111406   5.899   6.224   3.705
 3814TIP3    H211407   5.851   6.364   3.738
 3815TIP3   OH211408   4.443   2.131   1.316
 3815TIP3    H111409   4.471   2.048   1.355
 3815TIP3    H211410   4.520   2.162   1.269
 3816TIP3   OH211411   6.668   3.260   1.110
 3816TIP3    H111412   6.667   3.299   1.022
 3816TIP3    H211413   6.748   3.208   1.112
 3817TIP3   OH211414   0.194   4.420   3.469
 3817TIP3    H111415   0.213   4.355   3.536
 3817TIP3    H211416   0.128   4.477   3.507
 3818TIP3   OH211417   3.944   3.708   2.561
 3818TIP3    H111418   3.851   3.724   2.579
 3818TIP3    H211419   3.945   3.664   2.476
 3819TIP3   OH211420   4.151   6.510   0.698
 3819TIP3    H111421   4.075   6.489   0.643
 3819TIP3    H211422   4.160   6.605   0.692
 3820TIP3   OH211423   2.556   2.714   4.853
 3820TIP3    H111424   2.613   2.716   4.930
 3820TIP3    H211425   2.581   2.792   4.803
 3821TIP3   OH211426   0.168   6.403   2.342
 3821TIP3    H111427   0.257   6.434   2.357
 3821TIP3    H211428   0.174   6.308   2.353
 3822TIP3   OH211429   2.849   5.132   1.531
 3822TIP3    H111430   2.780   5.087   1.580
 3822TIP3    H211431   2.921   5.069   1.528
 3823TIP3   OH211432   2.701   5.408   0.933
 3823TIP3    H111433   2.684   5.447   1.019
 3823TIP3    H211434   2.790   5.437   0.911
 3824TIP3   OH211435   3.859   2.868   4.862
 3824TIP3    H111436   3.907   2.950   4.860
 3824TIP3    H211437   3.789   2.882   4.926
 3825TIP3   OH211438   2.117   3.525   1.811
 3825TIP3    H111439   2.199   3.574   1.816
 3825TIP3    H211440   2.099   3.500   1.902
 3826TIP3   OH211441   0.126   2.626   5.101
 3826TIP3    H111442   0.094   2.548   5.056
 3826TIP3    H211443   0.090   2.699   5.050
 3827TIP3   OH211444   3.763   0.337   3.966
 3827TIP3    H111445   3.761   0.245   3.992
 3827TIP3    H211446   3.688   0.347   3.907
 3828TIP3   OH211447   6.034   2.457   4.580
 3828TIP3    H111448   6.006   2.422   4.665
 3828TIP3    H211449   5.979   2.533   4.565
 3829TIP3   OH211450   1.677   1.038   3.682
 3829TIP3    H111451   1.680   1.128   3.649
 3829TIP3    H211452   1.599   1.035   3.737
 3830TIP3   OH211453   1.430   0.635   1.518
 3830TIP3    H111454   1.395   0.573   1.455
 3830TIP3    H211455   1.353   0.683   1.549
 3831TIP3   OH211456   3.648   5.662   1.957
 3831TIP3    H111457   3.678   5.753   1.963
 3831TIP3    H211458   3.563   5.667   1.914
 3832TIP3   OH211459   4.835   0.110   3.481
 3832TIP3    H111460   4.838   0.108   3.386
 3832TIP3    H211461   4.771   0.043   3.504
 3833TIP3   OH211462   3.502   1.578   3.339
 3833TIP3    H111463   3.499   1.615   3.251
 3833TIP3    H211464   3.465   1.490   3.330
 3834TIP3   OH211465   5.434   0.742   5.547
 3834TIP3    H111466   5.358   0.684   5.542
 3834TIP3    H211467   5.418   0.795   5.626
 3835TIP3   OH211468   0.123   1.741   4.751
 3835TIP3    H111469   0.093   1.658   4.714
 3835TIP3    H211470   0.047   1.775   4.798
 3836TIP3   OH211471   5.040   4.098   1.132
 3836TIP3    H111472   4.944   4.103   1.140
 3836TIP3    H211473   5.065   4.183   1.095
 3837TIP3   OH211474   3.212   5.437   0.064
 3837TIP3    H111475   3.166   5.454  -0.018
 3837TIP3    H211476   3.302   5.465   0.048
 3838TIP3   OH211477   5.760   4.616   0.066
 3838TIP3    H111478   5.828   4.630   0.000
 3838TIP3    H211479   5.707   4.544   0.031
 3839TIP3   OH211480   2.519   4.263   5.390
 3839TIP3    H111481   2.538   4.219   5.473
 3839TIP3    H211482   2.583   4.226   5.329
 3840TIP3   OH211483   2.289   3.326   5.672
 3840TIP3    H111484   2.351   3.253   5.666
 3840TIP3    H211485   2.329   3.386   5.734
 3841TIP3   OH211486   3.002   3.360   4.910
 3841TIP3    H111487   3.001   3.447   4.871
 3841TIP3    H211488   2.921   3.356   4.961
 3842TIP3   OH211489   0.297   5.486   2.437
 3842TIP3    H111490   0.250   5.466   2.518
 3842TIP3    H211491   0.287   5.581   2.427
 3843TIP3   OH211492   5.457   3.561   2.289
 3843TIP3    H111493   5.388   3.628   2.285
 3843TIP3    H211494   5.504   3.572   2.206
 3844TIP3   OH211495   3.032   4.903   1.491
 3844TIP3    H111496   2.979   4.823   1.490
 3844TIP3    H211497   3.116   4.875   1.528
 3845TIP3   OH211498   1.259   1.464   1.799
 3845TIP3    H111499   1.203   1.520   1.746
 3845TIP3    H211500   1.298   1.522   1.863
 3846TIP3   OH211501   5.877   4.165   3.896
 3846TIP3    H111502   5.788   4.147   3.866
 3846TIP3    H211503   5.922   4.195   3.817
 3847TIP3   OH211504   6.924   2.794   1.922
 3847TIP3    H111505   6.853   2.765   1.979
 3847TIP3    H211506   6.945   2.882   1.953
 3848TIP3   OH211507   1.038   0.725   1.272
 3848TIP3    H111508   1.035   0.684   1.358
 3848TIP3    H211509   1.053   0.818   1.290
 3849TIP3   OH211510   2.901   0.076   4.917
 3849TIP3    H111511   2.965   0.037   4.976
 3849TIP3    H211512   2.949   0.092   4.836
 3850TIP3   OH211513   4.275   3.922   1.109
 3850TIP3    H111514   4.340   3.895   1.174
 3850TIP3    H211515   4.264   3.845   1.054
 3851TIP3   OH211516   2.313   4.996   2.765
 3851TIP3    H111517   2.397   4.965   2.733
 3851TIP3    H211518   2.250   4.969   2.698
 3852TIP3   OH211519   0.871   5.126   5.875
 3852TIP3    H111520   0.960   5.112   5.843
 3852TIP3    H211521   0.866   5.220   5.892
 3853TIP3   OH211522   1.711   2.834   1.430
 3853TIP3    H111523   1.735   2.774   1.360
 3853TIP3    H211524   1.661   2.780   1.492
 3854TIP3   OH211525   4.977   1.183   0.673
 3854TIP3    H111526   4.897   1.181   0.726
 3854TIP3    H211527   5.020   1.100   0.691
 3855TIP3   OH211528   0.603   3.304   0.235
 3855TIP3    H111529   0.528   3.259   0.274
 3855TIP3    H211530   0.634   3.363   0.304
 3856TIP3   OH211531   4.226   6.466   5.237
 3856TIP3    H111532   4.256   6.467   5.146
 3856TIP3    H211533   4.197   6.376   5.252
 3857TIP3   OH211534   5.634   3.710   1.502
 3857TIP3    H111535   5.658   3.739   1.414
 3857TIP3    H211536   5.646   3.615   1.500
 3858TIP3   OH211537   3.440   0.975   4.291
 3858TIP3    H111538   3.489   0.985   4.209
 3858TIP3    H211539   3.352   0.949   4.263
 3859TIP3   OH211540   2.786   6.535   2.009
 3859TIP3    H111541   2.808   6.480   2.085
 3859TIP3    H211542   2.796   6.625   2.041
 3860TIP3   OH211543   0.911   5.413   5.892
 3860TIP3    H111544   0.965   5.425   5.814
 3860TIP3    H211545   0.863   5.496   5.900
 3861TIP3   OH211546   4.683   0.430   5.706
 3861TIP3    H111547   4.725   0.499   5.757
 3861TIP3    H211548   4.751   0.362   5.698
 3862TIP3   OH211549   4.219   3.893   5.775
 3862TIP3    H111550   4.138   3.901   5.826
 3862TIP3    H211551   4.281   3.853   5.836
 3863TIP3   OH211552   3.331   3.551   1.026
 3863TIP3    H111553   3.392   3.496   1.075
 3863TIP3    H211554   3.245   3.515   1.045
 3864TIP3   OH211555   1.275   3.197   5.745
 3864TIP3    H111556   1.257   3.158   5.830
 3864TIP3    H211557   1.359   3.242   5.757
 3865TIP3   OH211558   3.518   3.654   4.155
 3865TIP3    H111559   3.527   3.559   4.152
 3865TIP3    H211560   3.519   3.676   4.248
 3866TIP3   OH211561   4.107   2.699   2.243
 3866TIP3    H111562   4.131   2.608   2.259
 3866TIP3    H211563   4.189   2.741   2.218
 3867TIP3   OH211564   2.609   4.054   1.388
 3867TIP3    H111565   2.591   4.145   1.365
 3867TIP3    H211566   2.611   4.008   1.304
 3868TIP3   OH211567   6.963   1.032   0.187
 3868TIP3    H111568   6.897   1.100   0.174
 3868TIP3    H211569   6.929   0.955   0.141
 3869TIP3   OH211570   1.907   3.724   2.967
 3869TIP3    H111571   1.952   3.700   2.886
 3869TIP3    H211572   1.946   3.668   3.034
 3870TIP3   OH211573   6.841   6.395   0.056
 3870TIP3    H111574   6.752   6.359   0.050
 3870TIP3    H211575   6.828   6.482   0.094
 3871TIP3   OH211576   2.718   4.632   2.806
 3871TIP3    H111577   2.751   4.593   2.725
 3871TIP3    H211578   2.718   4.560   2.869
 3872TIP3   OH211579   2.742   2.953   5.809
 3872TIP3    H111580   2.741   2.902   5.890
 3872TIP3    H211581   2.714   3.041   5.835
 3873TIP3   OH211582   1.384   4.356   5.011
 3873TIP3    H111583   1.412   4.268   5.036
 3873TIP3    H211584   1.339   4.391   5.088
 3874TIP3   OH211585   6.523   0.506   0.333
 3874TIP3    H111586   6.470   0.444   0.283
 3874TIP3    H211587   6.488   0.592   0.309
 3875TIP3   OH211588   2.527   1.998   0.796
 3875TIP3    H111589   2.513   1.943   0.873
 3875TIP3    H211590   2.622   2.011   0.792
 3876TIP3   OH211591   2.478   4.242   1.740
 3876TIP3    H111592   2.533   4.309   1.698
 3876TIP3    H211593   2.414   4.293   1.791
 3877TIP3   OH211594   4.419   0.512   0.978
 3877TIP3    H111595   4.467   0.565   1.041
 3877TIP3    H211596   4.391   0.435   1.028
 3878TIP3   OH211597   2.326   2.063   5.566
 3878TIP3    H111598   2.299   2.026   5.482
 3878TIP3    H211599   2.264   2.134   5.582
 3879TIP3   OH211600   5.492   2.020   2.756
 3879TIP3    H111601   5.564   2.071   2.718
 3879TIP3    H211602   5.423   2.024   2.689
 3880TIP3   OH211603   7.103   2.189   2.772
 3880TIP3    H111604   7.044   2.189   2.697
 3880TIP3    H211605   7.047   2.210   2.847
 3881TIP3   OH211606   2.013   1.365   0.854
 3881TIP3    H111607   2.088   1.305   0.858
 3881TIP3    H211608   2.043   1.443   0.901
 3882TIP3   OH211609   3.239   1.163   2.298
 3882TIP3    H111610   3.334   1.173   2.308
 3882TIP3    H211611   3.203   1.180   2.385
 3883TIP3   OH211612   1.323   0.191   0.339
 3883TIP3    H111613   1.398   0.137   0.312
 3883TIP3    H211614   1.313   0.255   0.269
 3884TIP3   OH211615   5.490   0.048   4.856
 3884TIP3    H111616   5.504  -0.017   4.786
 3884TIP3    H211617   5.450  -0.003   4.927
 3885TIP3   OH211618   1.191   1.482   0.953
 3885TIP3    H111619   1.272   1.529   0.971
 3885TIP3    H211620   1.124   1.528   1.004
 3886TIP3   OH211621   1.838   1.946   4.422
 3886TIP3    H111622   1.918   1.962   4.471
 3886TIP3    H211623   1.826   1.851   4.427
 3887TIP3   OH211624   5.195   4.531   4.440
 3887TIP3    H111625   5.104   4.539   4.469
 3887TIP3    H211626   5.207   4.602   4.377
 3888TIP3   OH211627   2.735   3.717   0.719
 3888TIP3    H111628   2.816   3.674   0.692
 3888TIP3    H211629   2.680   3.647   0.752
 3889TIP3   OH211630   4.084   5.834   4.830
 3889TIP3    H111631   4.036   5.808   4.909
 3889TIP3    H211632   4.025   5.895   4.785
 3890TIP3   OH211633   2.996   2.991   2.491
 3890TIP3    H111634   3.045   3.013   2.570
 3890TIP3    H211635   2.905   2.985   2.520
 3891TIP3   OH211636   1.730   3.890   5.699
 3891TIP3    H111637   1.789   3.823   5.665
 3891TIP3    H211638   1.700   3.937   5.621
 3892TIP3   OH211639   4.616   0.358   1.410
 3892TIP3    H111640   4.538   0.375   1.358
 3892TIP3    H211641   4.622   0.263   1.414
 3893TIP3   OH211642   5.490   0.216   1.693
 3893TIP3    H111643   5.407   0.172   1.712
 3893TIP3    H211644   5.510   0.190   1.603
 3894TIP3   OH211645   0.629   0.778   1.729
 3894TIP3    H111646   0.568   0.814   1.665
 3894TIP3    H211647   0.690   0.849   1.747
 3895TIP3   OH211648   5.279   3.781   2.377
 3895TIP3    H111649   5.288   3.876   2.369
 3895TIP3    H211650   5.336   3.758   2.451
 3896TIP3   OH211651   5.236   4.496   3.440
 3896TIP3    H111652   5.229   4.540   3.525
 3896TIP3    H211653   5.199   4.409   3.455
 3897TIP3   OH211654   1.620   5.501   3.905
 3897TIP3    H111655   1.689   5.445   3.870
 3897TIP3    H211656   1.538   5.461   3.875
 3898TIP3   OH211657   6.171   2.166   3.081
 3898TIP3    H111658   6.221   2.243   3.109
 3898TIP3    H211659   6.129   2.134   3.161
 3899TIP3   OH211660   2.190   6.286   2.194
 3899TIP3    H111661   2.140   6.302   2.274
 3899TIP3    H211662   2.280   6.309   2.217
 3900TIP3   OH211663   1.612   3.112   1.810
 3900TIP3    H111664   1.528   3.149   1.781
 3900TIP3    H211665   1.638   3.053   1.739
 3901TIP3   OH211666   6.511   5.575   1.171
 3901TIP3    H111667   6.434   5.519   1.178
 3901TIP3    H211668   6.501   5.639   1.242
 3902TIP3   OH211669   2.400   6.514   2.830
 3902TIP3    H111670   2.404   6.544   2.740
 3902TIP3    H211671   2.483   6.540   2.869
 3903TIP3   OH211672   4.024   2.218   1.123
 3903TIP3    H111673   3.955   2.267   1.166
 3903TIP3    H211674   4.065   2.167   1.193
 3904TIP3   OH211675   5.567   0.425   0.101
 3904TIP3    H111676   5.597   0.511   0.071
 3904TIP3    H211677   5.623   0.362   0.056
 3905TIP3   OH211678   0.237   2.343   1.511
 3905TIP3    H111679   0.211   2.426   1.471
 3905TIP3    H211680   0.181   2.334   1.588
 3906TIP3   OH211681   0.856   2.655   1.084
 3906TIP3    H111682   0.840   2.680   0.993
 3906TIP3    H211683   0.950   2.665   1.095
 3907TIP3   OH211684   5.685   1.830   2.392
 3907TIP3    H111685   5.738   1.824   2.312
 3907TIP3    H211686   5.595   1.826   2.360
 3908TIP3   OH211687   6.099   2.020   5.907
 3908TIP3    H111688   6.120   1.936   5.947
 3908TIP3    H211689   6.179   2.072   5.917
 3909TIP3   OH211690   4.071   3.645   1.238
 3909TIP3    H111691   3.999   3.582   1.240
 3909TIP3    H211692   4.044   3.716   1.296
 3910TIP3   OH211693   3.203   5.639   3.775
 3910TIP3    H111694   3.128   5.583   3.755
 3910TIP3    H211695   3.166   5.727   3.784
 3911TIP3   OH211696   5.436   0.678   0.049
 3911TIP3    H111697   5.413   0.748   0.110
 3911TIP3    H211698   5.465   0.723  -0.030
 3912TIP3   OH211699   5.282   2.610   2.860
 3912TIP3    H111700   5.190   2.584   2.872
 3912TIP3    H211701   5.288   2.696   2.901
 3913TIP3   OH211702   2.538   6.253   2.925
 3913TIP3    H111703   2.543   6.285   3.015
 3913TIP3    H211704   2.500   6.325   2.875
 3914TIP3   OH211705   3.480   6.616   5.463
 3914TIP3    H111706   3.507   6.654   5.379
 3914TIP3    H211707   3.431   6.687   5.506
 3915TIP3   OH211708   1.338   1.006   2.602
 3915TIP3    H111709   1.328   0.987   2.509
 3915TIP3    H211710   1.283   1.083   2.618
 3916TIP3   OH211711   4.966   3.256   0.969
 3916TIP3    H111712   4.998   3.329   0.916
 3916TIP3    H211713   4.926   3.298   1.045
 3917TIP3   OH211714   1.141   0.807   0.065
 3917TIP3    H111715   1.047   0.818   0.054
 3917TIP3    H211716   1.163   0.862   0.140
 3918TIP3   OH211717   3.373   1.324   0.461
 3918TIP3    H111718   3.346   1.380   0.533
 3918TIP3    H211719   3.368   1.235   0.496
 3919TIP3   OH211720   5.274   2.708   4.418
 3919TIP3    H111721   5.204   2.715   4.483
 3919TIP3    H211722   5.309   2.619   4.430
 3920TIP3   OH211723   0.247   0.616   4.500
 3920TIP3    H111724   0.203   0.628   4.416
 3920TIP3    H211725   0.206   0.538   4.538
 3921TIP3   OH211726   3.626   1.600   1.344
 3921TIP3    H111727   3.708   1.649   1.340
 3921TIP3    H211728   3.652   1.512   1.369
 3922TIP3   OH211729   2.657   2.405   5.044
 3922TIP3    H111730   2.664   2.317   5.006
 3922TIP3    H211731   2.564   2.420   5.055
 3923TIP3   OH211732   6.344   6.396   3.711
 3923TIP3    H111733   6.268   6.453   3.722
 3923TIP3    H211734   6.404   6.422   3.781
 3924TIP3   OH211735   4.096   3.504   4.191
 3924TIP3    H111736   4.150   3.427   4.172
 3924TIP3    H211737   4.018   3.492   4.136
 3925TIP3   OH211738   3.577   5.812   4.350
 3925TIP3    H111739   3.489   5.848   4.338
 3925TIP3    H211740   3.572   5.766   4.434
 3926TIP3   OH211741   4.906   1.276   3.857
 3926TIP3    H111742   4.934   1.200   3.806
 3926TIP3    H211743   4.903   1.348   3.794
 3927TIP3   OH211744   6.881   3.438   3.895
 3927TIP3    H111745   6.937   3.368   3.861
 3927TIP3    H211746   6.880   3.503   3.825
 3928TIP3   OH211747   6.323   1.018   3.945
 3928TIP3    H111748   6.228   1.003   3.945
 3928TIP3    H211749   6.331   1.113   3.954
 3929TIP3   OH211750   6.926   3.795   2.133
 3929TIP3    H111751   6.998   3.735   2.152
 3929TIP3    H211752   6.951   3.836   2.050
 3930TIP3   OH211753   3.934   4.458   3.816
 3930TIP3    H111754   3.862   4.507   3.777
 3930TIP3    H211755   3.923   4.471   3.911
 3931TIP3   OH211756   0.984   4.266   5.598
 3931TIP3    H111757   1.020   4.178   5.593
 3931TIP3    H211758   0.939   4.278   5.515
 3932TIP3   OH211759   4.954   6.345   3.903
 3932TIP3    H111760   4.897   6.271   3.924
 3932TIP3    H211761   5.032   6.304   3.865
 3933TIP3   OH211762   4.058   2.679   4.347
 3933TIP3    H111763   3.999   2.722   4.410
 3933TIP3    H211764   4.022   2.703   4.262
 3934TIP3   OH211765   4.685   1.299   4.730
 3934TIP3    H111766   4.709   1.246   4.654
 3934TIP3    H211767   4.689   1.389   4.698
 3935TIP3   OH211768   1.273   0.211   2.885
 3935TIP3    H111769   1.229   0.168   2.812
 3935TIP3    H211770   1.341   0.265   2.845
 3936TIP3   OH211771   2.148   6.337   1.742
 3936TIP3    H111772   2.069   6.376   1.704
 3936TIP3    H211773   2.115   6.286   1.817
 3937TIP3   OH211774   3.785   3.506   0.644
 3937TIP3    H111775   3.825   3.592   0.629
 3937TIP3    H211776   3.804   3.457   0.564
 3938TIP3   OH211777   3.040   4.001   4.065
 3938TIP3    H111778   2.953   4.034   4.085
 3938TIP3    H211779   3.083   4.073   4.019
 3939TIP3   OH211780   4.994   6.004   3.134
 3939TIP3    H111781   4.997   6.089   3.178
 3939TIP3    H211782   5.038   5.944   3.195
 3940TIP3   OH211783   2.945   1.434   0.168
 3940TIP3    H111784   2.925   1.525   0.190
 3940TIP3    H211785   2.879   1.410   0.103
 3941TIP3   OH211786   1.179   1.540   4.941
 3941TIP3    H111787   1.105   1.597   4.962
 3941TIP3    H211788   1.230   1.591   4.878
 3942TIP3   OH211789   0.608   2.265   2.348
 3942TIP3    H111790   0.516   2.251   2.370
 3942TIP3    H211791   0.636   2.182   2.309
 3943TIP3   OH211792   6.201   6.642   1.149
 3943TIP3    H111793   6.214   6.736   1.134
 3943TIP3    H211794   6.247   6.624   1.231
 3944TIP3   OH211795   1.126   3.105   1.855
 3944TIP3    H111796   1.217   3.110   1.882
 3944TIP3    H211797   1.077   3.119   1.936
 3945TIP3   OH211798   5.150   6.375   5.194
 3945TIP3    H111799   5.160   6.426   5.113
 3945TIP3    H211800   5.131   6.287   5.164
 3946TIP3   OH211801   5.979   3.084   1.421
 3946TIP3    H111802   6.012   3.171   1.444
 3946TIP3    H211803   5.916   3.100   1.351
 3947TIP3   OH211804   6.696   5.286   4.964
 3947TIP3    H111805   6.765   5.221   4.954
 3947TIP3    H211806   6.686   5.296   5.059
 3948TIP3   OH211807   3.604   0.200   4.326
 3948TIP3    H111808   3.596   0.228   4.234
 3948TIP3    H211809   3.562   0.114   4.328
 3949TIP3   OH211810   2.622   0.321   1.627
 3949TIP3    H111811   2.535   0.345   1.659
 3949TIP3    H211812   2.671   0.299   1.705
 3950TIP3   OH211813   1.027   0.345   4.524
 3950TIP3    H111814   1.047   0.377   4.611
 3950TIP3    H211815   0.936   0.372   4.508
 3951TIP3   OH211816   4.015   3.059   5.112
 3951TIP3    H111817   3.928   3.089   5.089
 3951TIP3    H211818   4.072   3.133   5.094
 3952TIP3   OH211819   0.408   4.727   0.635
 3952TIP3    H111820   0.371   4.640   0.620
 3952TIP3    H211821   0.361   4.783   0.573
 3953TIP3   OH211822   1.140   4.801   2.846
 3953TIP3    H111823   1.118   4.887   2.810
 3953TIP3    H211824   1.115   4.739   2.778
 3954TIP3   OH211825   2.037   6.574   5.278
 3954TIP3    H111826   2.020   6.480   5.280
 3954TIP3    H211827   1.972   6.609   5.218
 3955TIP3   OH211828   4.840   6.759   4.917
 3955TIP3    H111829   4.841   6.691   4.985
 3955TIP3    H211830   4.826   6.841   4.964
 3956TIP3   OH211831   1.936   5.986   5.562
 3956TIP3    H111832   1.909   5.929   5.490
 3956TIP3    H211833   1.971   5.926   5.628
 3957TIP3   OH211834   1.827   2.260   3.240
 3957TIP3    H111835   1.743   2.254   3.196
 3957TIP3    H211836   1.836   2.354   3.261
 3958TIP3   OH211837   1.902   4.771   1.174
 3958TIP3    H111838   1.891   4.774   1.079
 3958TIP3    H211839   1.992   4.799   1.188
 3959TIP3   OH211840   3.214   0.508   0.527
 3959TIP3    H111841   3.263   0.434   0.561
 3959TIP3    H211842   3.269   0.584   0.545
 3960TIP3   OH211843   2.762   1.439   4.271
 3960TIP3    H111844   2.764   1.449   4.367
 3960TIP3    H211845   2.671   1.414   4.252
 3961TIP3   OH211846   6.094   4.180   2.240
 3961TIP3    H111847   6.162   4.246   2.258
 3961TIP3    H211848   6.015   4.231   2.224
 3962TIP3   OH211849   4.231   2.905   1.990
 3962TIP3    H111850   4.265   2.851   1.919
 3962TIP3    H211851   4.282   2.879   2.067
 3963TIP3   OH211852   3.361   1.917   1.291
 3963TIP3    H111853   3.326   1.845   1.239
 3963TIP3    H211854   3.393   1.875   1.371
 3964TIP3   OH211855   6.441   6.667   3.598
 3964TIP3    H111856   6.426   6.744   3.543
 3964TIP3    H211857   6.392   6.685   3.678
 3965TIP3   OH211858   6.963   4.886   0.908
 3965TIP3    H111859   6.919   4.848   0.984
 3965TIP3    H211860   6.898   4.947   0.871
 3966TIP3   OH211861   5.175   5.439   1.730
 3966TIP3    H111862   5.082   5.459   1.745
 3966TIP3    H211863   5.178   5.344   1.724
 3967TIP3   OH211864   1.601   2.491   2.225
 3967TIP3    H111865   1.517   2.528   2.200
 3967TIP3    H211866   1.665   2.536   2.171
 3968TIP3   OH211867   2.418   4.120   2.992
 3968TIP3    H111868   2.468   4.094   3.070
 3968TIP3    H211869   2.460   4.200   2.961
 3969TIP3   OH211870   0.525   3.831   5.783
 3969TIP3    H111871   0.475   3.867   5.710
 3969TIP3    H211872   0.564   3.908   5.826
 3970TIP3   OH211873   0.336   6.591   4.730
 3970TIP3    H111874   0.313   6.498   4.722
 3970TIP3    H211875   0.432   6.592   4.728
 3971TIP3   OH211876   1.694   2.478   0.481
 3971TIP3    H111877   1.767   2.416   0.469
 3971TIP3    H211878   1.658   2.489   0.393
 3972TIP3   OH211879   6.362   5.063   5.832
 3972TIP3    H111880   6.300   5.089   5.900
 3972TIP3    H211881   6.426   5.009   5.878
 3973TIP3   OH211882   2.971   2.750   0.458
 3973TIP3    H111883   2.946   2.660   0.439
 3973TIP3    H211884   2.923   2.802   0.393
 3974TIP3   OH211885   0.946   1.711   0.387
 3974TIP3    H111886   1.024   1.655   0.392
 3974TIP3    H211887   0.896   1.676   0.313
 3975TIP3   OH211888   0.082   5.321   5.612
 3975TIP3    H111889  -0.013   5.337   5.611
 3975TIP3    H211890   0.096   5.256   5.544
 3976TIP3   OH211891   2.487   0.065   5.280
 3976TIP3    H111892   2.447  -0.022   5.277
 3976TIP3    H211893   2.566   0.057   5.226
 3977TIP3   OH211894   2.449   5.334   4.470
 3977TIP3    H111895   2.509   5.398   4.431
 3977TIP3    H211896   2.443   5.361   4.562
 3978TIP3   OH211897   6.919   1.717   5.779
 3978TIP3    H111898   6.988   1.725   5.845
 3978TIP3    H211899   6.908   1.623   5.768
 3979TIP3   OH211900   6.799   2.001   1.990
 3979TIP3    H111901   6.815   1.913   1.956
 3979TIP3    H211902   6.742   1.987   2.065
 3980TIP3   OH211903   4.288   2.844   0.307
 3980TIP3    H111904   4.312   2.828   0.398
 3980TIP3    H211905   4.330   2.927   0.285
 3981TIP3   OH211906   4.496   6.407   0.609
 3981TIP3    H111907   4.453   6.477   0.658
 3981TIP3    H211908   4.436   6.333   0.617
 3982TIP3   OH211909   4.410   3.515   5.730
 3982TIP3    H111910   4.424   3.569   5.808
 3982TIP3    H211911   4.382   3.430   5.764
 3983TIP3   OH211912   4.030   4.631   4.320
 3983TIP3    H111913   3.952   4.649   4.267
 3983TIP3    H211914   4.037   4.536   4.320
 3984TIP3   OH211915   1.415   6.540   0.072
 3984TIP3    H111916   1.422   6.629   0.035
 3984TIP3    H211917   1.405   6.483  -0.004
 3985TIP3   OH211918   6.520   2.524   1.902
 3985TIP3    H111919   6.608   2.563   1.902
 3985TIP3    H211920   6.502   2.509   1.995
 3986TIP3   OH211921   0.500   2.177   1.667
 3986TIP3    H111922   0.411   2.205   1.649
 3986TIP3    H211923   0.507   2.089   1.628
 3987TIP3   OH211924   0.170   6.128   1.648
 3987TIP3    H111925   0.076   6.130   1.666
 3987TIP3    H211926   0.184   6.201   1.588
 3988TIP3   OH211927   3.475   3.444   4.901
 3988TIP3    H111928   3.419   3.384   4.950
 3988TIP3    H211929   3.562   3.434   4.941
 3989TIP3   OH211930   0.977   2.494   2.389
 3989TIP3    H111931   0.924   2.434   2.441
 3989TIP3    H211932   0.914   2.548   2.342
 3990TIP3   OH211933   7.059   6.679   5.272
 3990TIP3    H111934   7.061   6.584   5.268
 3990TIP3    H211935   6.965   6.701   5.278
 3991TIP3   OH211936   6.117   6.225   0.615
 3991TIP3    H111937   6.202   6.227   0.658
 3991TIP3    H211938   6.055   6.248   0.683
 3992TIP3   OH211939   5.535   1.743   2.097
 3992TIP3    H111940   5.464   1.703   2.148
 3992TIP3    H211941   5.581   1.669   2.058
 3993TIP3   OH211942   3.492   2.911   3.469
 3993TIP3    H111943   3.399   2.915   3.448
 3993TIP3    H211944   3.497   2.856   3.548
 3994TIP3   OH211945   2.917   1.721   3.006
 3994TIP3    H111946   2.848   1.663   3.037
 3994TIP3    H211947   2.871   1.789   2.957
 3995TIP3   OH211948   0.357   1.370   2.985
 3995TIP3    H111949   0.449   1.343   2.993
 3995TIP3    H211950   0.307   1.295   3.017
 3996TIP3   OH211951   6.871   2.609   3.534
 3996TIP3    H111952   6.802   2.635   3.594
 3996TIP3    H211953   6.862   2.513   3.527
 3997TIP3   OH211954   6.221   6.338   4.108
 3997TIP3    H111955   6.149   6.334   4.046
 3997TIP3    H211956   6.256   6.249   4.109
 3998TIP3   OH211957   3.838   2.162   2.765
 3998TIP3    H111958   3.932   2.169   2.745
 3998TIP3    H211959   3.834   2.156   2.861
 3999TIP3   OH211960   5.019   4.361   4.913
 3999TIP3    H111961   5.016   4.330   4.822
 3999TIP3    H211962   5.076   4.300   4.958
 4000TIP3   OH211963   4.016   0.027   2.443
 4000TIP3    H111964   3.960   0.038   2.366
 4000TIP3    H211965   3.991   0.098   2.502
 4001TIP3   OH211966   5.476   5.097   0.290
 4001TIP3    H111967   5.540   5.167   0.304
 4001TIP3    H211968   5.432   5.120   0.209
 4002TIP3   OH211969   1.045   3.357   0.051
 4002TIP3    H111970   1.134   3.360   0.016
 4002TIP3    H211971   1.019   3.448   0.058
 4003TIP3   OH211972   6.349   0.024   0.827
 4003TIP3    H111973   6.316   0.101   0.780
 4003TIP3    H211974   6.338   0.046   0.919
 4004TIP3   OH211975   4.986   2.761   4.432
 4004TIP3    H111976   4.937   2.681   4.414
 4004TIP3    H211977   4.926   2.815   4.483
 4005TIP3   OH211978   4.090   1.574   0.358
 4005TIP3    H111979   4.029   1.546   0.289
 4005TIP3    H211980   4.104   1.667   0.342
 4006TIP3   OH211981   4.474   6.040   5.622
 4006TIP3    H111982   4.501   5.972   5.559
 4006TIP3    H211983   4.378   6.035   5.621
 4007TIP3   OH211984   2.349   3.097   5.402
 4007TIP3    H111985   2.329   3.071   5.312
 4007TIP3    H211986   2.404   3.175   5.393
 4008TIP3   OH211987   3.495   2.494   2.180
 4008TIP3    H111988   3.406   2.528   2.183
 4008TIP3    H211989   3.547   2.556   2.230
 4009TIP3   OH211990   3.575   4.547   0.715
 4009TIP3    H111991   3.524   4.501   0.782
 4009TIP3    H211992   3.584   4.636   0.749
 4010TIP3   OH211993   3.733   1.257   2.027
 4010TIP3    H111994   3.732   1.348   2.056
 4010TIP3    H211995   3.650   1.221   2.059
 4011TIP3   OH211996   6.105   2.555   2.192
 4011TIP3    H111997   6.135   2.620   2.129
 4011TIP3    H211998   6.079   2.480   2.138
 4012TIP3   OH211999   0.303   4.880   3.838
 4012TIP3    H112000   0.317   4.807   3.779
 4012TIP3    H212001   0.390   4.919   3.850
 4013TIP3   OH212002   0.949   6.080   5.898
 4013TIP3    H112003   0.891   6.019   5.853
 4013TIP3    H212004   0.919   6.166   5.871
 4014TIP3   OH212005   2.133   2.242   5.631
 4014TIP3    H112006   2.041   2.254   5.657
 4014TIP3    H212007   2.179   2.226   5.713
 4015TIP3   OH212008   2.600   0.966   1.526
 4015TIP3    H112009   2.669   0.905   1.499
 4015TIP3    H212010   2.605   0.967   1.622
 4016TIP3   OH212011   2.094   4.910   2.588
 4016TIP3    H112012   2.072   4.933   2.498
 4016TIP3    H212013   2.073   4.816   2.594
 4017TIP3   OH212014   1.089   2.709   2.536
 4017TIP3    H112015   1.183   2.725   2.528
 4017TIP3    H212016   1.074   2.628   2.486
 4018TIP3   OH212017   2.485   6.128   5.761
 4018TIP3    H112018   2.504   6.065   5.830
 4018TIP3    H212019   2.390   6.122   5.748
 4019TIP3   OH212020   0.299   0.879   3.242
 4019TIP3    H112021   0.282   0.899   3.150
 4019TIP3    H212022   0.252   0.947   3.291
 4020TIP3   OH212023   5.909   1.154   5.263
 4020TIP3    H112024   5.914   1.153   5.167
 4020TIP3    H212025   5.936   1.066   5.290
 4021TIP3   OH212026   2.346   2.858   5.564
 4021TIP3    H112027   2.294   2.892   5.636
 4021TIP3    H212028   2.359   2.933   5.506
 4022TIP3   OH212029   0.383   1.128   4.522
 4022TIP3    H112030   0.312   1.139   4.459
 4022TIP3    H212031   0.378   1.036   4.548
 4023TIP3   OH212032   0.063   5.751   0.485
 4023TIP3    H112033   0.079   5.725   0.394
 4023TIP3    H212034   0.009   5.830   0.478
 4024TIP3   OH212035   4.906   1.355   4.378
 4024TIP3    H112036   4.992   1.350   4.420
 4024TIP3    H212037   4.926   1.368   4.285
 4025TIP3   OH212038   1.642   6.422   4.456
 4025TIP3    H112039   1.703   6.380   4.516
 4025TIP3    H212040   1.682   6.506   4.436
 4026TIP3   OH212041   6.005   1.643   3.068
 4026TIP3    H112042   6.097   1.662   3.052
 4026TIP3    H212043   5.967   1.727   3.094
 4027TIP3   OH212044   2.563   2.645   3.660
 4027TIP3    H112045   2.478   2.652   3.703
 4027TIP3    H212046   2.570   2.552   3.637
 4028TIP3   OH212047   0.759   2.820   3.656
 4028TIP3    H112048   0.716   2.760   3.717
 4028TIP3    H212049   0.820   2.764   3.607
 4029TIP3   OH212050   6.214   1.990   5.520
 4029TIP3    H112051   6.248   1.956   5.437
 4029TIP3    H212052   6.276   1.960   5.586
 4030TIP3   OH212053   4.366   2.931   2.845
 4030TIP3    H112054   4.370   2.879   2.764
 4030TIP3    H212055   4.282   2.907   2.884
 4031TIP3   OH212056   5.835   3.892   5.765
 4031TIP3    H112057   5.809   3.808   5.803
 4031TIP3    H212058   5.753   3.933   5.738
 4032TIP3   OH212059   3.972   5.241   4.793
 4032TIP3    H112060   3.965   5.149   4.820
 4032TIP3    H212061   3.887   5.262   4.755
 4033TIP3   OH212062   7.145   5.485   3.217
 4033TIP3    H112063   7.114   5.563   3.262
 4033TIP3    H212064   7.174   5.516   3.131
 4034TIP3   OH212065   3.614   0.208   3.242
 4034TIP3    H112066   3.585   0.251   3.323
 4034TIP3    H212067   3.700   0.173   3.264
 4035TIP3   OH212068   3.053   5.672   2.828
 4035TIP3    H112069   3.059   5.722   2.747
 4035TIP3    H212070   3.144   5.662   2.856
 4036TIP3   OH212071   3.536   1.036   1.539
 4036TIP3    H112072   3.560   0.946   1.561
 4036TIP3    H212073   3.596   1.090   1.590
 4037TIP3   OH212074   0.200   3.536   3.424
 4037TIP3    H112075   0.174   3.628   3.432
 4037TIP3    H212076   0.127   3.494   3.377
 4038TIP3   OH212077   5.411   0.619   1.056
 4038TIP3    H112078   5.442   0.568   1.130
 4038TIP3    H212079   5.331   0.575   1.027
 4039TIP3   OH212080   4.954   5.485   1.868
 4039TIP3    H112081   4.912   5.405   1.837
 4039TIP3    H212082   4.892   5.522   1.931
 4040TIP3   OH212083   1.080   3.394   3.268
 4040TIP3    H112084   1.008   3.334   3.286
 4040TIP3    H212085   1.097   3.437   3.352
 4041TIP3   OH212086   6.596   3.317   0.848
 4041TIP3    H112087   6.604   3.238   0.794
 4041TIP3    H212088   6.668   3.373   0.819
 4042TIP3   OH212089   5.382   0.378   2.089
 4042TIP3    H112090   5.306   0.421   2.047
 4042TIP3    H212091   5.415   0.444   2.150
 4043TIP3   OH212092   2.742   2.866   1.595
 4043TIP3    H112093   2.720   2.936   1.534
 4043TIP3    H212094   2.701   2.788   1.557
 4044TIP3   OH212095   1.509   6.110   5.178
 4044TIP3    H112096   1.603   6.106   5.162
 4044TIP3    H212097   1.470   6.120   5.091
 4045TIP3   OH212098   6.809   4.277   0.127
 4045TIP3    H112099   6.731   4.317   0.165
 4045TIP3    H212100   6.868   4.264   0.202
 4046TIP3   OH212101   6.036   3.610   3.302
 4046TIP3    H112102   5.954   3.577   3.338
 4046TIP3    H212103   6.101   3.542   3.324
 4047TIP3   OH212104   3.231   5.472   1.721
 4047TIP3    H112105   3.207   5.563   1.742
 4047TIP3    H212106   3.150   5.434   1.687
 4048TIP3   OH212107   6.768   5.870   2.300
 4048TIP3    H112108   6.775   5.779   2.269
 4048TIP3    H212109   6.841   5.915   2.259
 4049TIP3   OH212110   7.004   2.109   3.085
 4049TIP3    H112111   6.923   2.088   3.039
 4049TIP3    H212112   6.978   2.118   3.177
 4050TIP3   OH212113   2.967   3.889   4.878
 4050TIP3    H112114   2.984   3.976   4.914
 4050TIP3    H212115   2.997   3.829   4.947
 4051TIP3   OH212116   3.098   5.761   0.014
 4051TIP3    H112117   3.007   5.786   0.027
 4051TIP3    H212118   3.119   5.707   0.090
 4052TIP3   OH212119   1.653   2.338   2.621
 4052TIP3    H112120   1.682   2.359   2.710
 4052TIP3    H212121   1.607   2.255   2.630
 4053TIP3   OH212122   5.037   6.411   5.436
 4053TIP3    H112123   5.066   6.392   5.347
 4053TIP3    H212124   4.977   6.340   5.458
 4054TIP3   OH212125   1.573   5.227   5.084
 4054TIP3    H112126   1.492   5.257   5.042
 4054TIP3    H212127   1.556   5.135   5.105
 4055TIP3   OH212128   4.048   6.188   2.714
 4055TIP3    H112129   4.060   6.263   2.773
 4055TIP3    H212130   3.956   6.190   2.690
 4056TIP3   OH212131   4.737   3.016   3.103
 4056TIP3    H112132   4.714   2.935   3.149
 4056TIP3    H212133   4.775   2.986   3.020
 4057TIP3   OH212134   6.726   3.825   1.674
 4057TIP3    H112135   6.756   3.915   1.662
 4057TIP3    H212136   6.804   3.772   1.660
 4058TIP3   OH212137   2.306   6.655   2.521
 4058TIP3    H112138   2.377   6.611   2.474
 4058TIP3    H212139   2.231   6.597   2.513
 4059TIP3   OH212140   6.834   0.324   5.287
 4059TIP3    H112141   6.795   0.285   5.364
 4059TIP3    H212142   6.924   0.292   5.286
 4060TIP3   OH212143   0.963   0.865   4.616
 4060TIP3    H112144   0.972   0.957   4.643
 4060TIP3    H212145   0.884   0.835   4.661
 4061TIP3   OH212146   5.261   3.722   3.014
 4061TIP3    H112147   5.177   3.677   3.014
 4061TIP3    H212148   5.247   3.799   2.959
 4062TIP3   OH212149   2.239   2.877   4.711
 4062TIP3    H112150   2.152   2.856   4.676
 4062TIP3    H212151   2.240   2.838   4.799
 4063TIP3   OH212152   4.089   2.149   4.054
 4063TIP3    H112153   4.053   2.221   4.105
 4063TIP3    H212154   4.183   2.153   4.070
 4064TIP3   OH212155   1.719   3.971   1.100
 4064TIP3    H112156   1.773   3.967   1.178
 4064TIP3    H212157   1.689   3.881   1.086
 4065TIP3   OH212158   1.590   5.144   5.762
 4065TIP3    H112159   1.620   5.053   5.753
 4065TIP3    H212160   1.639   5.191   5.694
 4066TIP3   OH212161   0.174   0.480   1.487
 4066TIP3    H112162   0.165   0.459   1.394
 4066TIP3    H212163   0.268   0.468   1.505
 4067TIP3   OH212164   3.937   0.471   4.104
 4067TIP3    H112165   3.930   0.566   4.111
 4067TIP3    H212166   3.873   0.447   4.037
 4068TIP3   OH212167   5.457   3.815   5.877
 4068TIP3    H112168   5.479   3.900   5.838
 4068TIP3    H212169   5.481   3.825   5.969
 4069TIP3   OH212170   5.099   0.133   4.880
 4069TIP3    H112171   5.164   0.134   4.810
 4069TIP3    H212172   5.141   0.083   4.950
 4070TIP3   OH212173   4.000   6.436   1.593
 4070TIP3    H112174   3.948   6.380   1.536
 4070TIP3    H212175   3.950   6.517   1.600
 4071TIP3   OH212176   0.830   0.051   0.936
 4071TIP3    H112177   0.793   0.137   0.953
 4071TIP3    H212178   0.820   0.039   0.841
 4072TIP3   OH212179   0.904   3.344   2.762
 4072TIP3    H112180   0.954   3.378   2.837
 4072TIP3    H212181   0.826   3.305   2.802
 4073TIP3   OH212182   5.434   2.910   0.785
 4073TIP3    H112183   5.474   2.843   0.729
 4073TIP3    H212184   5.342   2.910   0.760
 4074TIP3   OH212185   3.038   1.018   4.533
 4074TIP3    H112186   2.969   1.084   4.546
 4074TIP3    H212187   3.043   0.973   4.617
 4075TIP3   OH212188   4.988   5.814   5.348
 4075TIP3    H112189   5.030   5.728   5.359
 4075TIP3    H212190   5.057   5.877   5.367
 4076TIP3   OH212191   0.331   1.268   1.247
 4076TIP3    H112192   0.276   1.201   1.287
 4076TIP3    H212193   0.312   1.263   1.153
 4077TIP3   OH212194   1.312   4.343   0.595
 4077TIP3    H112195   1.240   4.406   0.587
 4077TIP3    H212196   1.314   4.322   0.689
 4078TIP3   OH212197   5.317   4.247   0.878
 4078TIP3    H112198   5.266   4.303   0.937
 4078TIP3    H212199   5.362   4.186   0.936
 4079TIP3   OH212200   5.641   2.975   4.922
 4079TIP3    H112201   5.730   2.989   4.955
 4079TIP3    H212202   5.605   2.906   4.977
 4080TIP3   OH212203   1.581   0.176   4.094
 4080TIP3    H112204   1.585   0.263   4.053
 4080TIP3    H212205   1.509   0.183   4.157
 4081TIP3   OH212206   4.388   6.076   1.529
 4081TIP3    H112207   4.323   6.072   1.459
 4081TIP3    H212208   4.428   5.989   1.531
 4082TIP3   OH212209   1.416   6.039   4.058
 4082TIP3    H112210   1.447   6.002   3.976
 4082TIP3    H212211   1.348   6.102   4.032
 4083TIP3   OH212212   0.288   0.059   5.818
 4083TIP3    H112213   0.270   0.078   5.910
 4083TIP3    H212214   0.242  -0.023   5.801
 4084TIP3   OH212215   6.396   2.607   4.219
 4084TIP3    H112216   6.373   2.630   4.309
 4084TIP3    H212217   6.325   2.549   4.190
 4085TIP3   OH212218   3.307   5.176  -0.005
 4085TIP3    H112219   3.271   5.257   0.032
 4085TIP3    H212220   3.230   5.124  -0.029
 4086TIP3   OH212221   5.482   4.685   3.813
 4086TIP3    H112222   5.517   4.609   3.766
 4086TIP3    H212223   5.550   4.707   3.877
 4087TIP3   OH212224   2.128   2.037   0.767
 4087TIP3    H112225   2.095   1.951   0.740
 4087TIP3    H212226   2.139   2.029   0.862
 4088TIP3   OH212227   3.159   5.834   4.906
 4088TIP3    H112228   3.170   5.904   4.971
 4088TIP3    H212229   3.154   5.754   4.958
 4089TIP3   OH212230   0.687   1.557   1.765
 4089TIP3    H112231   0.724   1.644   1.749
 4089TIP3    H212232   0.610   1.573   1.819
 4090TIP3   OH212233   6.444   6.676  -0.047
 4090TIP3    H112234   6.417   6.767  -0.062
 4090TIP3    H212235   6.539   6.678  -0.058
 4091TIP3   OH212236   5.689   5.459   4.409
 4091TIP3    H112237   5.625   5.462   4.338
 4091TIP3    H212238   5.659   5.387   4.465
 4092TIP3   OH212239   3.709   3.516   2.672
 4092TIP3    H112240   3.708   3.472   2.586
 4092TIP3    H212241   3.739   3.448   2.732
 4093TIP3   OH212242   2.692   3.482   0.421
 4093TIP3    H112243   2.769   3.501   0.475
 4093TIP3    H212244   2.654   3.404   0.461
 4094TIP3   OH212245   0.891   3.597   2.414
 4094TIP3    H112246   0.896   3.501   2.414
 4094TIP3    H212247   0.982   3.626   2.420
 4095TIP3   OH212248   1.273   1.012   1.745
 4095TIP3    H112249   1.198   1.066   1.769
 4095TIP3    H212250   1.347   1.052   1.790
 4096TIP3   OH212251   6.414   4.421   4.816
 4096TIP3    H112252   6.363   4.483   4.765
 4096TIP3    H212253   6.350   4.378   4.873
 4097TIP3   OH212254   1.425   6.450   1.602
 4097TIP3    H112255   1.482   6.408   1.667
 4097TIP3    H212256   1.431   6.394   1.525
 4098TIP3   OH212257   3.637   3.011   1.184
 4098TIP3    H112258   3.579   2.988   1.257
 4098TIP3    H212259   3.577   3.030   1.112
 4099TIP3   OH212260   6.976   0.561   0.809
 4099TIP3    H112261   6.935   0.581   0.726
 4099TIP3    H212262   6.905   0.526   0.863
 4100TIP3   OH212263   2.800   4.226   1.745
 4100TIP3    H112264   2.714   4.240   1.785
 4100TIP3    H212265   2.855   4.196   1.817
 4101TIP3   OH212266   2.343   5.336   3.036
 4101TIP3    H112267   2.330   5.242   3.052
 4101TIP3    H212268   2.287   5.379   3.101
 4102TIP3   OH212269   3.025   3.016   3.978
 4102TIP3    H112270   2.991   3.089   4.030
 4102TIP3    H212271   2.990   2.938   4.020
 4103TIP3   OH212272   3.891   4.069   1.817
 4103TIP3    H112273   3.799   4.094   1.812
 4103TIP3    H212274   3.938   4.144   1.779
 4104TIP3   OH212275   0.249   1.514   5.597
 4104TIP3    H112276   0.256   1.598   5.642
 4104TIP3    H212277   0.172   1.522   5.542
 4105TIP3   OH212278   4.740   3.960   3.781
 4105TIP3    H112279   4.717   3.915   3.862
 4105TIP3    H212280   4.792   4.036   3.811
 4106TIP3   OH212281   3.980   2.955   5.375
 4106TIP3    H112282   4.042   2.958   5.448
 4106TIP3    H212283   4.027   2.994   5.302
 4107TIP3   OH212284   5.492   4.803   2.516
 4107TIP3    H112285   5.497   4.780   2.609
 4107TIP3    H212286   5.399   4.816   2.499
 4108TIP3   OH212287   1.461   0.856   5.111
 4108TIP3    H112288   1.509   0.937   5.093
 4108TIP3    H212289   1.443   0.860   5.205
 4109TIP3   OH212290   6.860   6.502   5.507
 4109TIP3    H112291   6.867   6.590   5.544
 4109TIP3    H212292   6.901   6.445   5.573
 4110TIP3   OH212293   3.374   3.970   0.796
 4110TIP3    H112294   3.417   3.994   0.878
 4110TIP3    H212295   3.313   3.901   0.820
 4111TIP3   OH212296   5.239   6.182   0.133
 4111TIP3    H112297   5.312   6.235   0.166
 4111TIP3    H212298   5.181   6.171   0.209
 4112TIP3   OH212299   3.710   2.615   2.306
 4112TIP3    H112300   3.663   2.656   2.379
 4112TIP3    H212301   3.753   2.687   2.261
 4113TIP3   OH212302   0.375   3.972   2.220
 4113TIP3    H112303   0.430   4.036   2.175
 4113TIP3    H212304   0.309   3.947   2.155
 4114TIP3   OH212305   7.114   2.141   4.294
 4114TIP3    H112306   7.059   2.176   4.223
 4114TIP3    H212307   7.127   2.049   4.270
 4115TIP3   OH212308   6.528   6.243   4.007
 4115TIP3    H112309   6.518   6.335   3.983
 4115TIP3    H212310   6.472   6.196   3.945
 4116TIP3   OH212311   4.346   5.773   3.208
 4116TIP3    H112312   4.361   5.686   3.172
 4116TIP3    H212313   4.306   5.823   3.137
 4117TIP3   OH212314   3.021   4.829   0.382
 4117TIP3    H112315   3.108   4.794   0.400
 4117TIP3    H212316   3.035   4.921   0.362
 4118TIP3   OH212317   5.141   3.175   3.903
 4118TIP3    H112318   5.105   3.110   3.843
 4118TIP3    H212319   5.164   3.126   3.982
 4119TIP3   OH212320   4.752   1.006   4.259
 4119TIP3    H112321   4.743   0.922   4.215
 4119TIP3    H212322   4.744   1.071   4.189
 4120TIP3   OH212323   6.144   6.049   4.447
 4120TIP3    H112324   6.208   6.079   4.383
 4120TIP3    H212325   6.163   6.099   4.526
 4121TIP3   OH212326   3.001   1.973   2.152
 4121TIP3    H112327   2.907   1.969   2.171
 4121TIP3    H212328   3.007   2.027   2.073
 4122TIP3   OH212329   4.655   4.949   2.267
 4122TIP3    H112330   4.605   4.983   2.193
 4122TIP3    H212331   4.740   4.925   2.230
 4123TIP3   OH212332   0.251   0.220   2.568
 4123TIP3    H112333   0.191   0.257   2.633
 4123TIP3    H212334   0.334   0.210   2.616
 4124TIP3   OH212335   4.665   3.765   4.598
 4124TIP3    H112336   4.639   3.783   4.508
 4124TIP3    H212337   4.658   3.670   4.606
 4125TIP3   OH212338   2.790   5.434   0.594
 4125TIP3    H112339   2.850   5.460   0.524
 4125TIP3    H212340   2.803   5.501   0.662
 4126TIP3   OH212341   6.528   3.434   5.733
 4126TIP3    H112342   6.510   3.389   5.650
 4126TIP3    H212343   6.618   3.466   5.723
 4127TIP3   OH212344   7.040   3.353   0.347
 4127TIP3    H112345   7.045   3.422   0.282
 4127TIP3    H212346   6.947   3.331   0.353
 4128TIP3   OH212347   1.239   2.178   5.445
 4128TIP3    H112348   1.171   2.112   5.460
 4128TIP3    H212349   1.192   2.254   5.413
 4129TIP3   OH212350   4.946   5.279   2.983
 4129TIP3    H112351   4.955   5.289   3.078
 4129TIP3    H212352   5.010   5.211   2.961
 4130TIP3   OH212353   2.124   5.680   0.561
 4130TIP3    H112354   2.033   5.676   0.589
 4130TIP3    H212355   2.129   5.622   0.486
 4131TIP3   OH212356   0.475   4.739   3.133
 4131TIP3    H112357   0.429   4.798   3.193
 4131TIP3    H212358   0.477   4.655   3.179
 4132TIP3   OH212359   4.162   2.577   3.777
 4132TIP3    H112360   4.099   2.573   3.849
 4132TIP3    H212361   4.122   2.635   3.712
 4133TIP3   OH212362   2.191   0.105   5.479
 4133TIP3    H112363   2.184   0.075   5.569
 4133TIP3    H212364   2.166   0.029   5.426
 4134TIP3   OH212365   2.330   1.497   1.621
 4134TIP3    H112366   2.403   1.440   1.645
 4134TIP3    H212367   2.253   1.441   1.623
 4135TIP3   OH212368   0.573   3.710   4.494
 4135TIP3    H112369   0.592   3.801   4.518
 4135TIP3    H212370   0.658   3.665   4.501
 4136TIP3   OH212371   6.338   2.266   1.586
 4136TIP3    H112372   6.429   2.293   1.600
 4136TIP3    H212373   6.306   2.240   1.672
 4137TIP3   OH212374   6.876   4.743   4.413
 4137TIP3    H112375   6.961   4.703   4.432
 4137TIP3    H212376   6.823   4.725   4.490
 4138TIP3   OH212377   3.980   6.705   0.225
 4138TIP3    H112378   4.041   6.773   0.198
 4138TIP3    H212379   4.025   6.623   0.202
 4139TIP3   OH212380   0.023   3.252   1.280
 4139TIP3    H112381  -0.059   3.282   1.320
 4139TIP3    H212382   0.030   3.303   1.199
 4140TIP3   OH212383   4.774   1.367   3.190
 4140TIP3    H112384   4.753   1.451   3.148
 4140TIP3    H212385   4.696   1.347   3.242
 4141TIP3   OH212386   4.821   0.438   4.769
 4141TIP3    H112387   4.785   0.423   4.681
 4141TIP3    H212388   4.903   0.485   4.753
 4142TIP3   OH212389   5.537   2.832   3.968
 4142TIP3    H112390   5.552   2.888   3.892
 4142TIP3    H212391   5.573   2.881   4.042
 4143TIP3   OH212392   3.261   1.397   1.410
 4143TIP3    H112393   3.210   1.320   1.436
 4143TIP3    H212394   3.348   1.363   1.391
 4144TIP3   OH212395   3.680   0.699   5.465
 4144TIP3    H112396   3.753   0.740   5.513
 4144TIP3    H212397   3.710   0.610   5.448
 4145TIP3   OH212398   5.494   2.508   3.059
 4145TIP3    H112399   5.446   2.583   3.092
 4145TIP3    H212400   5.547   2.543   2.987
 4146TIP3   OH212401   6.427   1.975   4.995
 4146TIP3    H112402   6.385   1.983   4.909
 4146TIP3    H212403   6.355   1.964   5.056
 4147TIP3   OH212404   1.143   6.307   4.181
 4147TIP3    H112405   1.066   6.344   4.224
 4147TIP3    H212406   1.164   6.228   4.231
 4148TIP3   OH212407   2.599   1.031   2.932
 4148TIP3    H112408   2.594   1.014   3.026
 4148TIP3    H212409   2.523   0.987   2.895
 4149TIP3   OH212410   4.963   6.217   1.033
 4149TIP3    H112411   4.976   6.210   0.939
 4149TIP3    H212412   5.045   6.186   1.072
 4150TIP3   OH212413   5.286   4.640   4.182
 4150TIP3    H112414   5.354   4.690   4.137
 4150TIP3    H212415   5.204   4.670   4.143
 4151TIP3   OH212416   3.137   3.607   4.048
 4151TIP3    H112417   3.152   3.687   4.098
 4151TIP3    H212418   3.139   3.536   4.113
 4152TIP3   OH212419   4.102   1.312   5.001
 4152TIP3    H112420   4.121   1.234   5.054
 4152TIP3    H212421   4.148   1.297   4.919
 4153TIP3   OH212422   4.097   4.981   0.384
 4153TIP3    H112423   4.127   4.943   0.466
 4153TIP3    H212424   4.015   4.934   0.366
 4154TIP3   OH212425   5.608   5.615   0.052
 4154TIP3    H112426   5.550   5.604  -0.023
 4154TIP3    H212427   5.659   5.693   0.033
 4155TIP3   OH212428   5.318   2.072   0.798
 4155TIP3    H112429   5.406   2.053   0.830
 4155TIP3    H212430   5.278   2.124   0.868
 4156TIP3   OH212431   1.068   6.605   2.373
 4156TIP3    H112432   1.005   6.538   2.347
 4156TIP3    H212433   1.147   6.586   2.323
 4157TIP3   OH212434   6.847   5.401   2.752
 4157TIP3    H112435   6.861   5.307   2.741
 4157TIP3    H212436   6.751   5.410   2.755
 4158TIP3   OH212437   3.812   5.255   1.702
 4158TIP3    H112438   3.898   5.224   1.676
 4158TIP3    H212439   3.815   5.350   1.688
 4159TIP3   OH212440   6.000   3.061   0.833
 4159TIP3    H112441   5.949   3.086   0.755
 4159TIP3    H212442   6.082   3.026   0.798
 4160TIP3   OH212443   3.247   0.764   0.215
 4160TIP3    H112444   3.279   0.849   0.245
 4160TIP3    H212445   3.171   0.786   0.160
 4161TIP3   OH212446   4.320   5.205   5.471
 4161TIP3    H112447   4.352   5.135   5.414
 4161TIP3    H212448   4.397   5.235   5.519
 4162TIP3   OH212449  -0.007   2.144   3.381
 4162TIP3    H112450  -0.027   2.213   3.317
 4162TIP3    H212451   0.034   2.075   3.330
 4163TIP3   OH212452   0.576   3.288   4.715
 4163TIP3    H112453   0.597   3.330   4.632
 4163TIP3    H212454   0.631   3.209   4.717
 4164TIP3   OH212455   1.060   4.584   1.012
 4164TIP3    H112456   1.085   4.552   1.098
 4164TIP3    H212457   0.996   4.653   1.029
 4165TIP3   OH212458   2.839   4.885   1.143
 4165TIP3    H112459   2.794   4.967   1.122
 4165TIP3    H212460   2.918   4.912   1.189
 4166TIP3   OH212461   3.590   1.167   5.500
 4166TIP3    H112462   3.635   1.151   5.417
 4166TIP3    H212463   3.548   1.252   5.488
 4167TIP3   OH212464   3.442   6.501   4.273
 4167TIP3    H112465   3.356   6.543   4.269
 4167TIP3    H212466   3.491   6.539   4.200
 4168TIP3   OH212467   2.272   0.209   4.221
 4168TIP3    H112468   2.226   0.140   4.268
 4168TIP3    H212469   2.292   0.274   4.289
 4169TIP3   OH212470   2.078   2.563   1.942
 4169TIP3    H112471   2.065   2.514   1.860
 4169TIP3    H212472   2.157   2.614   1.927
 4170TIP3   OH212473   6.172   2.891   3.799
 4170TIP3    H112474   6.267   2.881   3.799
 4170TIP3    H212475   6.145   2.864   3.887
 4171TIP3   OH212476   0.398   5.427   4.065
 4171TIP3    H112477   0.315   5.458   4.102
 4171TIP3    H212478   0.457   5.421   4.140
 4172TIP3   OH212479   7.187   5.858   1.516
 4172TIP3    H112480   7.125   5.930   1.507
 4172TIP3    H212481   7.161   5.814   1.597
 4173TIP3   OH212482   1.068   1.169   3.221
 4173TIP3    H112483   0.987   1.216   3.242
 4173TIP3    H212484   1.129   1.195   3.291
 4174TIP3   OH212485   4.570   0.443   4.897
 4174TIP3    H112486   4.523   0.383   4.839
 4174TIP3    H212487   4.662   0.429   4.877
 4175TIP3   OH212488   5.302   0.913   2.218
 4175TIP3    H112489   5.371   0.907   2.152
 4175TIP3    H212490   5.341   0.960   2.291
 4176TIP3   OH212491   5.456   6.214   2.510
 4176TIP3    H112492   5.417   6.238   2.594
 4176TIP3    H212493   5.406   6.264   2.445
 4177TIP3   OH212494   7.048   1.148   2.498
 4177TIP3    H112495   7.009   1.064   2.475
 4177TIP3    H212496   6.993   1.213   2.454
 4178TIP3   OH212497   2.304   0.956   1.563
 4178TIP3    H112498   2.302   0.985   1.654
 4178TIP3    H212499   2.383   0.996   1.527
 4179TIP3   OH212500   1.201   3.652   2.465
 4179TIP3    H112501   1.168   3.724   2.517
 4179TIP3    H212502   1.210   3.579   2.527
 4180TIP3   OH212503   2.165   5.985   5.267
 4180TIP3    H112504   2.251   6.004   5.229
 4180TIP3    H212505   2.141   5.900   5.230
 4181TIP3   OH212506   6.194   1.688   5.078
 4181TIP3    H112507   6.162   1.663   4.991
 4181TIP3    H212508   6.286   1.662   5.077
 4182TIP3   OH212509   1.825   1.013   2.389
 4182TIP3    H112510   1.795   1.101   2.413
 4182TIP3    H212511   1.834   1.016   2.294
 4183TIP3   OH212512   6.255   3.400   5.815
 4183TIP3    H112513   6.187   3.464   5.796
 4183TIP3    H212514   6.332   3.432   5.768
 4184TIP3   OH212515   6.367   0.482   4.108
 4184TIP3    H112516   6.306   0.524   4.169
 4184TIP3    H212517   6.316   0.469   4.028
 4185TIP3   OH212518   4.916   3.051   0.564
 4185TIP3    H112519   4.995   2.999   0.548
 4185TIP3    H212520   4.869   3.047   0.480
 4186TIP3   OH212521   6.736   2.346   2.090
 4186TIP3    H112522   6.668   2.296   2.045
 4186TIP3    H212523   6.784   2.390   2.020
 4187TIP3   OH212524   5.220   5.238   1.069
 4187TIP3    H112525   5.247   5.290   0.993
 4187TIP3    H212526   5.293   5.178   1.084
 4188TIP3   OH212527   6.261   5.015   4.644
 4188TIP3    H112528   6.240   4.937   4.592
 4188TIP3    H212529   6.280   5.083   4.579
 4189TIP3   OH212530   6.917   5.070   5.359
 4189TIP3    H112531   6.848   5.048   5.422
 4189TIP3    H212532   6.875   5.061   5.273
 4190TIP3   OH212533   5.058   6.711   1.945
 4190TIP3    H112534   5.044   6.802   1.917
 4190TIP3    H212535   4.995   6.698   2.016
 4191TIP3   OH212536   1.647   3.808   4.597
 4191TIP3    H112537   1.640   3.720   4.635
 4191TIP3    H212538   1.624   3.867   4.669
 4192TIP3   OH212539   4.818   2.517   0.633
 4192TIP3    H112540   4.750   2.457   0.663
 4192TIP3    H212541   4.860   2.472   0.560
 4193TIP3   OH212542   0.422   5.770   0.537
 4193TIP3    H112543   0.502   5.751   0.587
 4193TIP3    H212544   0.404   5.862   0.555
 4194TIP3   OH212545   6.878   2.480   1.895
 4194TIP3    H112546   6.972   2.491   1.881
 4194TIP3    H212547   6.838   2.554   1.848
 4195TIP3   OH212548   6.117   0.069   0.239
 4195TIP3    H112549   6.048   0.009   0.268
 4195TIP3    H212550   6.196   0.015   0.237
 4196TIP3   OH212551   4.760   1.898   5.749
 4196TIP3    H112552   4.747   1.992   5.758
 4196TIP3    H212553   4.754   1.881   5.655
 4197TIP3   OH212554   1.083   0.348   0.422
 4197TIP3    H112555   1.145   0.302   0.366
 4197TIP3    H212556   0.997   0.326   0.387
 4198TIP3   OH212557   0.764   3.917   5.598
 4198TIP3    H112558   0.815   3.859   5.655
 4198TIP3    H212559   0.748   3.866   5.519
 4199TIP3   OH212560   4.708   0.411   0.817
 4199TIP3    H112561   4.694   0.345   0.749
 4199TIP3    H212562   4.683   0.494   0.776
 4200TIP3   OH212563   2.719   0.878   2.563
 4200TIP3    H112564   2.770   0.956   2.542
 4200TIP3    H212565   2.778   0.805   2.545
 4201TIP3   OH212566   5.184   5.105   5.812
 4201TIP3    H112567   5.120   5.155   5.862
 4201TIP3    H212568   5.139   5.086   5.729
 4202TIP3   OH212569   5.732   0.059   5.278
 4202TIP3    H112570   5.654   0.014   5.311
 4202TIP3    H212571   5.707   0.089   5.191
 4203TIP3   OH212572   0.932   3.753   0.964
 4203TIP3    H112573   0.918   3.682   0.901
 4203TIP3    H212574   0.847   3.796   0.969
 4204TIP3   OH212575   6.788   6.582   4.651
 4204TIP3    H112576   6.762   6.593   4.559
 4204TIP3    H212577   6.883   6.591   4.650
 4205TIP3   OH212578   7.122   3.672   1.434
 4205TIP3    H112579   7.208   3.649   1.469
 4205TIP3    H212580   7.067   3.686   1.511
 4206TIP3   OH212581   3.768   4.340   2.000
 4206TIP3    H112582   3.697   4.374   2.053
 4206TIP3    H212583   3.731   4.262   1.957
 4207TIP3   OH212584   0.750   0.262   0.141
 4207TIP3    H112585   0.779   0.253   0.051
 4207TIP3    H212586   0.655   0.267   0.135
 4208TIP3   OH212587   1.753   2.428   4.887
 4208TIP3    H112588   1.795   2.382   4.959
 4208TIP3    H212589   1.822   2.482   4.849
 4209TIP3   OH212590   6.819   0.094   3.212
 4209TIP3    H112591   6.782   0.020   3.164
 4209TIP3    H212592   6.911   0.096   3.187
 4210TIP3   OH212593   0.086   3.824   4.940
 4210TIP3    H112594   0.120   3.851   5.025
 4210TIP3    H212595   0.136   3.746   4.917
 4211TIP3   OH212596   4.357   4.959   5.322
 4211TIP3    H112597   4.428   4.917   5.370
 4211TIP3    H212598   4.400   5.016   5.259
 4212TIP3   OH212599   3.017   3.734   3.025
 4212TIP3    H112600   3.084   3.743   3.092
 4212TIP3    H212601   3.065   3.730   2.942
 4213TIP3   OH212602   5.504   1.271   2.643
 4213TIP3    H112603   5.459   1.271   2.727
 4213TIP3    H212604   5.458   1.337   2.591
 4214TIP3   OH212605   6.406   2.162   0.162
 4214TIP3    H112606   6.325   2.119   0.189
 4214TIP3    H212607   6.465   2.090   0.139
 4215TIP3   OH212608   7.149   3.251   0.601
 4215TIP3    H112609   7.077   3.267   0.540
 4215TIP3    H212610   7.107   3.234   0.685
 4216TIP3   OH212611   3.261   6.456   5.384
 4216TIP3    H112612   3.336   6.497   5.427
 4216TIP3    H212613   3.274   6.362   5.397
 4217TIP3   OH212614   4.515   3.596   2.201
 4217TIP3    H112615   4.538   3.657   2.271
 4217TIP3    H212616   4.551   3.635   2.122
 4218TIP3   OH212617   1.434   5.691   4.063
 4218TIP3    H112618   1.483   5.615   4.030
 4218TIP3    H212619   1.501   5.758   4.076
 4219TIP3   OH212620   0.713   6.274   3.819
 4219TIP3    H112621   0.726   6.224   3.739
 4219TIP3    H212622   0.801   6.288   3.853
 4220TIP3   OH212623   4.545   0.961   1.507
 4220TIP3    H112624   4.466   0.908   1.504
 4220TIP3    H212625   4.562   0.983   1.415
 4221TIP3   OH212626   3.011   1.414   3.144
 4221TIP3    H112627   3.016   1.450   3.056
 4221TIP3    H212628   2.935   1.356   3.143
 4222TIP3   OH212629   4.771   4.453   0.027
 4222TIP3    H112630   4.687   4.497   0.021
 4222TIP3    H212631   4.805   4.452  -0.062
 4223TIP3   OH212632   6.878   1.920   2.692
 4223TIP3    H112633   6.885   1.961   2.606
 4223TIP3    H212634   6.947   1.853   2.693
 4224TIP3   OH212635   1.689   4.635   0.137
 4224TIP3    H112636   1.754   4.661   0.072
 4224TIP3    H212637   1.721   4.674   0.219
 4225TIP3   OH212638   6.278   1.618   3.064
 4225TIP3    H112639   6.305   1.533   3.027
 4225TIP3    H212640   6.338   1.632   3.137
 4226TIP3   OH212641   3.298   1.167   1.661
 4226TIP3    H112642   3.376   1.119   1.633
 4226TIP3    H212643   3.323   1.259   1.651
 4227TIP3   OH212644   4.842   2.886   4.624
 4227TIP3    H112645   4.862   2.901   4.716
 4227TIP3    H212646   4.761   2.834   4.626
 4228TIP3   OH212647   0.692   3.083   0.100
 4228TIP3    H112648   0.658   3.096   0.011
 4228TIP3    H212649   0.670   3.165   0.145
 4229TIP3   OH212650   2.565   6.370   1.130
 4229TIP3    H112651   2.478   6.387   1.165
 4229TIP3    H212652   2.571   6.425   1.052
 4230TIP3   OH212653   6.361   1.063   4.783
 4230TIP3    H112654   6.355   1.019   4.699
 4230TIP3    H212655   6.291   1.129   4.781
 4231TIP3   OH212656   1.523   1.052   2.842
 4231TIP3    H112657   1.584   0.978   2.839
 4231TIP3    H212658   1.456   1.030   2.777
 4232TIP3   OH212659   5.971   0.513   4.948
 4232TIP3    H112660   5.901   0.577   4.938
 4232TIP3    H212661   6.013   0.536   5.031
 4233TIP3   OH212662   5.225   3.616   4.407
 4233TIP3    H112663   5.258   3.662   4.330
 4233TIP3    H212664   5.301   3.605   4.464
 4234TIP3   OH212665   5.561   6.572   2.306
 4234TIP3    H112666   5.500   6.501   2.328
 4234TIP3    H212667   5.591   6.604   2.391
 4235TIP3   OH212668   3.493   2.733   1.094
 4235TIP3    H112669   3.548   2.756   1.169
 4235TIP3    H212670   3.435   2.809   1.084
 4236TIP3   OH212671   1.428   0.872   2.055
 4236TIP3    H112672   1.491   0.923   2.107
 4236TIP3    H212673   1.447   0.896   1.964
 4237TIP3   OH212674   0.220   6.730   1.879
 4237TIP3    H112675   0.261   6.690   1.956
 4237TIP3    H212676   0.220   6.660   1.813
 4238TIP3   OH212677   0.566   2.792   4.167
 4238TIP3    H112678   0.478   2.807   4.200
 4238TIP3    H212679   0.575   2.854   4.094
 4239TIP3   OH212680   0.072   3.498   2.932
 4239TIP3    H112681  -0.008   3.528   2.890
 4239TIP3    H212682   0.121   3.455   2.862
 4240TIP3   OH212683   6.558   6.766   5.402
 4240TIP3    H112684   6.518   6.681   5.422
 4240TIP3    H212685   6.549   6.817   5.482
 4241TIP3   OH212686   5.593   6.454   2.887
 4241TIP3    H112687   5.574   6.365   2.919
 4241TIP3    H212688   5.645   6.440   2.807
 4242TIP3   OH212689   2.308   0.037   1.085
 4242TIP3    H112690   2.227   0.033   1.034
 4242TIP3    H212691   2.280   0.060   1.173
 4243TIP3   OH212692   5.410   2.389   2.141
 4243TIP3    H112693   5.437   2.314   2.088
 4243TIP3    H212694   5.451   2.465   2.098
 4244TIP3   OH212695   5.646   4.309   1.008
 4244TIP3    H112696   5.731   4.319   1.052
 4244TIP3    H212697   5.654   4.360   0.928
 4245TIP3   OH212698   1.396   6.092   5.756
 4245TIP3    H112699   1.415   5.998   5.756
 4245TIP3    H212700   1.333   6.104   5.685
 4246TIP3   OH212701   3.147   4.416   4.977
 4246TIP3    H112702   3.187   4.426   5.063
 4246TIP3    H212703   3.180   4.489   4.925
 4247TIP3   OH212704   1.506   3.495   0.888
 4247TIP3    H112705   1.480   3.447   0.809
 4247TIP3    H212706   1.599   3.514   0.876
 4248TIP3   OH212707   4.477   4.401   2.867
 4248TIP3    H112708   4.471   4.364   2.778
 4248TIP3    H212709   4.432   4.485   2.861
 4249TIP3   OH212710   0.321   4.954   4.956
 4249TIP3    H112711   0.286   5.035   4.993
 4249TIP3    H212712   0.243   4.901   4.939
 4250TIP3   OH212713   3.282   0.537   2.058
 4250TIP3    H112714   3.332   0.551   1.978
 4250TIP3    H212715   3.239   0.620   2.074
 4251TIP3   OH212716   1.492   3.445   4.184
 4251TIP3    H112717   1.528   3.365   4.145
 4251TIP3    H212718   1.409   3.459   4.139
 4252TIP3   OH212719   5.216   4.092   4.049
 4252TIP3    H112720   5.225   4.066   3.957
 4252TIP3    H212721   5.148   4.159   4.048
 4253TIP3   OH212722   0.370   5.233   1.700
 4253TIP3    H112723   0.324   5.264   1.622
 4253TIP3    H212724   0.462   5.251   1.682
 4254TIP3   OH212725   3.223   3.938   1.334
 4254TIP3    H112726   3.169   4.000   1.286
 4254TIP3    H212727   3.309   3.980   1.339
 4255TIP3   OH212728   3.779   4.659   1.969
 4255TIP3    H112729   3.805   4.568   1.954
 4255TIP3    H212730   3.685   4.655   1.984
 4256TIP3   OH212731   3.166   5.445   2.247
 4256TIP3    H112732   3.260   5.463   2.243
 4256TIP3    H212733   3.156   5.360   2.204
 4257TIP3   OH212734   2.557   3.148   1.671
 4257TIP3    H112735   2.470   3.155   1.633
 4257TIP3    H212736   2.617   3.171   1.599
 4258TIP3   OH212737   4.890   6.543   4.090
 4258TIP3    H112738   4.796   6.529   4.104
 4258TIP3    H212739   4.915   6.477   4.025
 4259TIP3   OH212740   0.325   1.199   0.720
 4259TIP3    H112741   0.286   1.285   0.701
 4259TIP3    H212742   0.392   1.188   0.652
 4260TIP3   OH212743   4.267   3.104   4.772
 4260TIP3    H112744   4.329   3.061   4.713
 4260TIP3    H212745   4.307   3.094   4.859
 4261TIP3   OH212746   0.701   3.195   2.261
 4261TIP3    H112747   0.710   3.197   2.166
 4261TIP3    H212748   0.739   3.111   2.288
 4262TIP3   OH212749   4.507   2.626   4.293
 4262TIP3    H112750   4.577   2.599   4.233
 4262TIP3    H212751   4.444   2.554   4.290
 4263TIP3   OH212752   0.101   2.959   5.338
 4263TIP3    H112753   0.063   2.871   5.346
 4263TIP3    H212754   0.169   2.950   5.272
 4264TIP3   OH212755   0.254   2.089   2.568
 4264TIP3    H112756   0.279   2.014   2.514
 4264TIP3    H212757   0.262   2.164   2.509
 4265TIP3   OH212758   2.460   1.858   1.656
 4265TIP3    H112759   2.376   1.893   1.627
 4265TIP3    H212760   2.519   1.871   1.581
 4266TIP3   OH212761   6.142   2.044   0.607
 4266TIP3    H112762   6.156   1.952   0.587
 4266TIP3    H212763   6.229   2.079   0.622
 4267TIP3   OH212764   2.201   4.581   0.785
 4267TIP3    H112765   2.278   4.539   0.748
 4267TIP3    H212766   2.229   4.670   0.804
 4268TIP3   OH212767   7.080   0.489   1.166
 4268TIP3    H112768   6.988   0.498   1.145
 4268TIP3    H212769   7.083   0.426   1.238
 4269TIP3   OH212770   6.654   1.178   5.122
 4269TIP3    H112771   6.706   1.113   5.170
 4269TIP3    H212772   6.671   1.158   5.030
 4270TIP3   OH212773   0.818   0.873   0.674
 4270TIP3    H112774   0.811   0.861   0.769
 4270TIP3    H212775   0.911   0.891   0.659
 4271TIP3   OH212776   6.415   6.175   4.456
 4271TIP3    H112777   6.332   6.214   4.430
 4271TIP3    H212778   6.471   6.250   4.476
 4272TIP3   OH212779   5.160   6.677   1.427
 4272TIP3    H112780   5.198   6.749   1.377
 4272TIP3    H212781   5.221   6.604   1.415
 4273TIP3   OH212782   0.927   5.624   2.488
 4273TIP3    H112783   0.949   5.706   2.531
 4273TIP3    H212784   0.989   5.617   2.415
 4274TIP3   OH212785   0.918   3.513   5.289
 4274TIP3    H112786   0.942   3.605   5.284
 4274TIP3    H212787   0.830   3.513   5.326
 4275TIP3   OH212788   5.103   4.278   5.636
 4275TIP3    H112789   5.102   4.220   5.560
 4275TIP3    H212790   5.163   4.349   5.610
 4276TIP3   OH212791   0.671   1.918   2.920
 4276TIP3    H112792   0.738   1.851   2.908
 4276TIP3    H212793   0.671   1.936   3.014
 4277TIP3   OH212794   6.228   0.628   4.310
 4277TIP3    H112795   6.213   0.611   4.404
 4277TIP3    H212796   6.262   0.717   4.307
 4278TIP3   OH212797   1.666   4.431   2.748
 4278TIP3    H112798   1.614   4.355   2.721
 4278TIP3    H212799   1.732   4.442   2.679
 4279TIP3   OH212800   0.722   1.030   2.713
 4279TIP3    H112801   0.673   0.976   2.774
 4279TIP3    H212802   0.658   1.094   2.682
 4280TIP3   OH212803   2.345   3.610   5.045
 4280TIP3    H112804   2.315   3.559   4.970
 4280TIP3    H212805   2.413   3.555   5.085
 4281TIP3   OH212806   3.939   1.382   2.980
 4281TIP3    H112807   3.882   1.321   2.932
 4281TIP3    H212808   3.997   1.326   3.031
 4282TIP3   OH212809   1.649   1.303   3.656
 4282TIP3    H112810   1.690   1.328   3.739
 4282TIP3    H212811   1.625   1.386   3.615
 4283TIP3   OH212812   2.533   0.285   4.753
 4283TIP3    H112813   2.578   0.297   4.670
 4283TIP3    H212814   2.565   0.201   4.786
 4284TIP3   OH212815   7.183   0.280   0.166
 4284TIP3    H112816   7.124   0.351   0.141
 4284TIP3    H212817   7.197   0.292   0.260
 4285TIP3   OH212818   3.264   1.555   0.355
 4285TIP3    H112819   3.174   1.586   0.349
 4285TIP3    H212820   3.256   1.463   0.382
 4286TIP3   OH212821   5.823   3.417   1.312
 4286TIP3    H112822   5.794   3.369   1.235
 4286TIP3    H212823   5.841   3.505   1.279
 4287TIP3   OH212824   6.235   2.439   1.387
 4287TIP3    H112825   6.278   2.363   1.426
 4287TIP3    H212826   6.295   2.512   1.406
 4288TIP3   OH212827   5.320   4.829   4.502
 4288TIP3    H112828   5.239   4.810   4.454
 4288TIP3    H212829   5.290   4.857   4.589
 4289TIP3   OH212830   5.436   1.260   2.922
 4289TIP3    H112831   5.451   1.322   2.993
 4289TIP3    H212832   5.430   1.175   2.965
 4290TIP3   OH212833   2.492   3.855   4.218
 4290TIP3    H112834   2.407   3.898   4.233
 4290TIP3    H212835   2.469   3.772   4.175
 4291TIP3   OH212836   4.031   2.665   3.552
 4291TIP3    H112837   4.095   2.645   3.484
 4291TIP3    H212838   3.981   2.740   3.518
 4292TIP3   OH212839   4.856   4.763   1.403
 4292TIP3    H112840   4.880   4.719   1.322
 4292TIP3    H212841   4.766   4.736   1.419
 4293TIP3   OH212842   2.363   0.988   4.689
 4293TIP3    H112843   2.412   0.981   4.771
 4293TIP3    H212844   2.275   1.015   4.717
 4294TIP3   OH212845   2.881   4.524   1.720
 4294TIP3    H112846   2.843   4.596   1.670
 4294TIP3    H212847   2.919   4.466   1.654
 4295TIP3   OH212848   1.064   5.911   0.035
 4295TIP3    H112849   1.082   5.817   0.032
 4295TIP3    H212850   1.115   5.947  -0.038
 4296TIP3   OH212851   7.136   3.013   1.154
 4296TIP3    H112852   7.144   3.090   1.209
 4296TIP3    H212853   7.208   3.020   1.092
 4297TIP3   OH212854   4.313   2.445   4.178
 4297TIP3    H112855   4.363   2.489   4.109
 4297TIP3    H212856   4.361   2.364   4.194
 4298TIP3   OH212857   3.222   4.694   1.562
 4298TIP3    H112858   3.202   4.601   1.552
 4298TIP3    H212859   3.316   4.700   1.547
 4299TIP3   OH212860   0.139   1.578   0.347
 4299TIP3    H112861   0.233   1.562   0.340
 4299TIP3    H212862   0.101   1.493   0.370
 4300TIP3   OH212863   1.690   3.893   2.902
 4300TIP3    H112864   1.693   3.956   2.975
 4300TIP3    H212865   1.761   3.832   2.920
 4301TIP3   OH212866   4.825   5.714   4.072
 4301TIP3    H112867   4.892   5.699   4.138
 4301TIP3    H212868   4.873   5.719   3.989
 4302TIP3   OH212869   2.458   3.499   5.829
 4302TIP3    H112870   2.487   3.509   5.919
 4302TIP3    H212871   2.537   3.513   5.776
 4303TIP3   OH212872   6.325   5.274   2.469
 4303TIP3    H112873   6.343   5.343   2.533
 4303TIP3    H212874   6.285   5.204   2.520
 4304TIP3   OH212875   6.717   5.714   3.971
 4304TIP3    H112876   6.757   5.690   4.054
 4304TIP3    H212877   6.671   5.635   3.943
 4305TIP3   OH212878   5.993   2.693   2.547
 4305TIP3    H112879   6.073   2.721   2.591
 4305TIP3    H212880   5.990   2.598   2.560
 4306TIP3   OH212881   1.866   5.011   5.483
 4306TIP3    H112882   1.934   5.053   5.431
 4306TIP3    H212883   1.820   5.084   5.525
 4307TIP3   OH212884   6.727   6.015   1.160
 4307TIP3    H112885   6.751   5.939   1.213
 4307TIP3    H212886   6.806   6.034   1.109
 4308TIP3   OH212887   6.419   5.731   1.397
 4308TIP3    H112888   6.332   5.713   1.432
 4308TIP3    H212889   6.420   5.826   1.381
 4309TIP3   OH212890   0.874   4.810   0.964
 4309TIP3    H112891   0.779   4.823   0.970
 4309TIP3    H212892   0.911   4.891   0.998
 4310TIP3   OH212893   1.354   4.222   5.807
 4310TIP3    H112894   1.434   4.271   5.826
 4310TIP3    H212895   1.319   4.199   5.893
 4311TIP3   OH212896   1.735   0.534   3.505
 4311TIP3    H112897   1.661   0.557   3.450
 4311TIP3    H212898   1.719   0.443   3.530
 4312TIP3   OH212899   3.001   3.072   1.075
 4312TIP3    H112900   2.970   3.042   0.990
 4312TIP3    H212901   3.035   3.160   1.059
 4313TIP3   OH212902   4.436   1.453   2.023
 4313TIP3    H112903   4.460   1.363   2.004
 4313TIP3    H212904   4.341   1.455   2.015
 4314TIP3   OH212905   2.547   0.737   5.661
 4314TIP3    H112906   2.518   0.685   5.736
 4314TIP3    H212907   2.632   0.771   5.686
 4315TIP3   OH212908   0.753   0.431   0.660
 4315TIP3    H112909   0.704   0.388   0.590
 4315TIP3    H212910   0.804   0.498   0.616
 4316TIP3   OH212911   0.254   3.091   3.145
 4316TIP3    H112912   0.301   3.172   3.166
 4316TIP3    H212913   0.283   3.069   3.057
 4317TIP3   OH212914   1.875   0.633   5.533
 4317TIP3    H112915   1.802   0.571   5.538
 4317TIP3    H212916   1.898   0.650   5.625
 4318TIP3   OH212917   1.900   3.824   0.446
 4318TIP3    H112918   1.939   3.740   0.422
 4318TIP3    H212919   1.914   3.879   0.369
 4319TIP3   OH212920   3.424   5.999   3.883
 4319TIP3    H112921   3.515   6.019   3.908
 4319TIP3    H212922   3.414   6.038   3.796
 4320TIP3   OH212923   5.733   6.466   4.625
 4320TIP3    H112924   5.756   6.422   4.707
 4320TIP3    H212925   5.705   6.554   4.653
 4321TIP3   OH212926   2.322   0.219   0.696
 4321TIP3    H112927   2.305   0.132   0.658
 4321TIP3    H212928   2.387   0.258   0.637
 4322TIP3   OH212929   3.268   1.675   2.826
 4322TIP3    H112930   3.356   1.713   2.822
 4322TIP3    H212931   3.211   1.744   2.791
 4323TIP3   OH212932   3.796   3.419   4.962
 4323TIP3    H112933   3.865   3.417   4.896
 4323TIP3    H212934   3.794   3.330   4.997
 4324TIP3   OH212935   3.545   0.317   2.699
 4324TIP3    H112936   3.582   0.397   2.662
 4324TIP3    H212937   3.527   0.339   2.790
 4325TIP3   OH212938   5.636   0.209   5.053
 4325TIP3    H112939   5.545   0.231   5.072
 4325TIP3    H212940   5.637   0.192   4.959
 4326TIP3   OH212941   1.353   4.662   4.491
 4326TIP3    H112942   1.342   4.596   4.559
 4326TIP3    H212943   1.441   4.647   4.456
 4327TIP3   OH212944   2.431   4.147   2.620
 4327TIP3    H112945   2.471   4.070   2.661
 4327TIP3    H212946   2.452   4.139   2.527
 4328TIP3   OH212947   5.525   0.610   2.000
 4328TIP3    H112948   5.478   0.689   1.977
 4328TIP3    H212949   5.528   0.610   2.096
 4329TIP3   OH212950   5.347   4.186   0.452
 4329TIP3    H112951   5.344   4.095   0.480
 4329TIP3    H212952   5.283   4.231   0.507
 4330TIP3   OH212953   3.692   5.597   3.574
 4330TIP3    H112954   3.735   5.527   3.526
 4330TIP3    H212955   3.707   5.676   3.521
 4331TIP3   OH212956   1.650   5.228   0.244
 4331TIP3    H112957   1.624   5.195   0.330
 4331TIP3    H212958   1.567   5.257   0.204
 4332TIP3   OH212959   4.534   2.490   1.929
 4332TIP3    H112960   4.572   2.405   1.906
 4332TIP3    H212961   4.456   2.497   1.875
 4333TIP3   OH212962   5.386   6.259   1.764
 4333TIP3    H112963   5.405   6.334   1.820
 4333TIP3    H212964   5.294   6.241   1.779
 4334TIP3   OH212965   0.638   1.799   5.858
 4334TIP3    H112966   0.580   1.866   5.895
 4334TIP3    H212967   0.651   1.828   5.767
 4335TIP3   OH212968   3.895   2.613   5.712
 4335TIP3    H112969   3.938   2.529   5.729
 4335TIP3    H212970   3.830   2.594   5.645
 4336TIP3   OH212971   2.928   6.325   1.195
 4336TIP3    H112972   2.868   6.277   1.139
 4336TIP3    H212973   2.945   6.266   1.268
 4337TIP3   OH212974   2.595   3.597   3.600
 4337TIP3    H112975   2.676   3.589   3.651
 4337TIP3    H212976   2.598   3.685   3.563
 4338TIP3   OH212977   5.326   3.810   4.692
 4338TIP3    H112978   5.380   3.760   4.630
 4338TIP3    H212979   5.242   3.820   4.647
 4339TIP3   OH212980   1.136   4.168   2.724
 4339TIP3    H112981   1.158   4.261   2.729
 4339TIP3    H212982   1.194   4.126   2.788
 4340TIP3   OH212983  -0.009   6.640   5.542
 4340TIP3    H112984  -0.018   6.672   5.453
 4340TIP3    H212985  -0.042   6.711   5.597
 4341TIP3   OH212986   2.504   5.890   4.785
 4341TIP3    H112987   2.580   5.946   4.802
 4341TIP3    H212988   2.538   5.801   4.795
 4342TIP3   OH212989   1.232   5.808   0.867
 4342TIP3    H112990   1.231   5.899   0.837
 4342TIP3    H212991   1.315   5.800   0.914
 4343TIP3   OH212992   2.019   3.111   1.497
 4343TIP3    H112993   2.081   3.156   1.555
 4343TIP3    H212994   1.934   3.149   1.519
 4344TIP3   OH212995   6.606   0.154   2.385
 4344TIP3    H112996   6.596   0.121   2.475
 4344TIP3    H212997   6.583   0.080   2.330
 4345TIP3   OH212998   4.386   2.774   3.869
 4345TIP3    H112999   4.323   2.708   3.840
 4345TIP3    H213000   4.394   2.833   3.794
 4346TIP3   OH213001   2.517   1.392   5.401
 4346TIP3    H113002   2.519   1.400   5.305
 4346TIP3    H213003   2.428   1.416   5.425
 4347TIP3   OH213004   4.161   0.159   2.820
 4347TIP3    H113005   4.078   0.118   2.793
 4347TIP3    H213006   4.136   0.218   2.891
 4348TIP3   OH213007   3.058   5.245   1.118
 4348TIP3    H113008   3.040   5.158   1.155
 4348TIP3    H213009   3.142   5.235   1.073
 4349TIP3   OH213010   1.036   1.834   3.508
 4349TIP3    H113011   0.965   1.894   3.485
 4349TIP3    H213012   1.055   1.854   3.599
 4350TIP3   OH213013   2.794   2.370   0.892
 4350TIP3    H113014   2.727   2.379   0.824
 4350TIP3    H213015   2.763   2.299   0.948
 4351TIP3   OH213016   2.607   5.136   4.120
 4351TIP3    H113017   2.519   5.149   4.154
 4351TIP3    H213018   2.594   5.099   4.033
 4352TIP3   OH213019   3.622   2.868   0.519
 4352TIP3    H113020   3.637   2.960   0.499
 4352TIP3    H213021   3.693   2.822   0.473
 4353TIP3   OH213022   7.123   4.746   5.767
 4353TIP3    H113023   7.081   4.692   5.834
 4353TIP3    H213024   7.174   4.684   5.715
 4354TIP3   OH213025   3.729   5.884   1.402
 4354TIP3    H113026   3.646   5.930   1.417
 4354TIP3    H213027   3.705   5.792   1.398
 4355TIP3   OH213028   6.334   5.535   5.949
 4355TIP3    H113029   6.397   5.463   5.956
 4355TIP3    H213030   6.340   5.563   5.858
 4356TIP3   OH213031   0.826   2.652   4.752
 4356TIP3    H113032   0.754   2.708   4.781
 4356TIP3    H213033   0.896   2.714   4.730
 4357TIP3   OH213034   0.360   5.437   0.088
 4357TIP3    H113035   0.302   5.360   0.080
 4357TIP3    H213036   0.392   5.433   0.178
 4358TIP3   OH213037   2.627   5.850   4.508
 4358TIP3    H113038   2.712   5.892   4.492
 4358TIP3    H213039   2.605   5.873   4.598
 4359TIP3   OH213040   0.122   5.833   0.765
 4359TIP3    H113041   0.167   5.751   0.785
 4359TIP3    H213042   0.115   5.834   0.670
 4360TIP3   OH213043   1.939   5.241   0.494
 4360TIP3    H113044   1.879   5.304   0.454
 4360TIP3    H213045   2.026   5.271   0.468
 4361TIP3   OH213046   4.216   5.973   5.091
 4361TIP3    H113047   4.303   5.934   5.100
 4361TIP3    H213048   4.214   6.009   5.003
 4362TIP3   OH213049   4.506   1.939   2.409
 4362TIP3    H113050   4.474   1.858   2.370
 4362TIP3    H213051   4.572   1.971   2.347
 4363TIP3   OH213052   3.946   3.921   4.028
 4363TIP3    H113053   3.952   3.883   4.116
 4363TIP3    H213054   4.034   3.913   3.992
 4364TIP3   OH213055   6.108   1.072   1.284
 4364TIP3    H113056   6.096   1.070   1.379
 4364TIP3    H213057   6.184   1.016   1.268
 4365TIP3   OH213058   2.966   3.940   2.483
 4365TIP3    H113059   2.928   4.028   2.479
 4365TIP3    H213060   3.042   3.944   2.424
 4366TIP3   OH213061   0.330   0.898   5.654
 4366TIP3    H113062   0.283   0.866   5.731
 4366TIP3    H213063   0.333   0.993   5.667
 4367TIP3   OH213064   0.252   2.763   0.903
 4367TIP3    H113065   0.222   2.709   0.830
 4367TIP3    H213066   0.341   2.733   0.920
 4368TIP3   OH213067   3.172   5.316   0.300
 4368TIP3    H113068   3.167   5.341   0.208
 4368TIP3    H213069   3.113   5.241   0.309
 4369TIP3   OH213070   2.480   4.116   5.687
 4369TIP3    H113071   2.427   4.172   5.743
 4369TIP3    H213072   2.570   4.140   5.706
 4370TIP3   OH213073   0.963   1.986   4.181
 4370TIP3    H113074   0.945   2.063   4.126
 4370TIP3    H213075   0.910   1.916   4.143
 4371TIP3   OH213076   1.698   5.221   4.144
 4371TIP3    H113077   1.782   5.239   4.103
 4371TIP3    H213078   1.718   5.161   4.216
 4372TIP3   OH213079   1.123   6.364   1.767
 4372TIP3    H113080   1.127   6.329   1.856
 4372TIP3    H213081   1.128   6.286   1.711
 4373TIP3   OH213082   2.438   2.545   2.184
 4373TIP3    H113083   2.356   2.499   2.204
 4373TIP3    H213084   2.482   2.553   2.268
 4374TIP3   OH213085   4.957   1.009   1.011
 4374TIP3    H113086   4.985   1.044   1.096
 4374TIP3    H213087   5.020   1.044   0.948
 4375TIP3   OH213088   6.919   6.082   2.173
 4375TIP3    H113089   6.856   6.078   2.101
 4375TIP3    H213090   7.004   6.091   2.130
 4376TIP3   OH213091   2.133   2.414   3.461
 4376TIP3    H113092   2.059   2.448   3.410
 4376TIP3    H213093   2.182   2.491   3.487
 4377TIP3   OH213094   1.415   2.733   1.892
 4377TIP3    H113095   1.452   2.787   1.962
 4377TIP3    H213096   1.388   2.652   1.936
 4378TIP3   OH213097   4.740   5.916   3.096
 4378TIP3    H113098   4.834   5.929   3.105
 4378TIP3    H213099   4.723   5.833   3.142
 4379TIP3   OH213100   0.245   4.202   0.864
 4379TIP3    H113101   0.213   4.141   0.931
 4379TIP3    H213102   0.177   4.269   0.858
 4380TIP3   OH213103   2.302   0.955   3.903
 4380TIP3    H113104   2.374   0.920   3.957
 4380TIP3    H213105   2.223   0.919   3.943
 4381TIP3   OH213106   2.212   4.421   3.140
 4381TIP3    H113107   2.230   4.511   3.113
 4381TIP3    H213108   2.260   4.410   3.222
 4382TIP3   OH213109   0.523   4.278   0.336
 4382TIP3    H113110   0.548   4.242   0.421
 4382TIP3    H213111   0.595   4.335   0.311
 4383TIP3   OH213112   5.516   2.069   3.697
 4383TIP3    H113113   5.465   1.989   3.686
 4383TIP3    H213114   5.604   2.046   3.667
 4384TIP3   OH213115   2.703   4.727   1.592
 4384TIP3    H113116   2.705   4.821   1.611
 4384TIP3    H213117   2.673   4.722   1.501
 4385TIP3   OH213118   6.785   0.222   2.123
 4385TIP3    H113119   6.803   0.248   2.214
 4385TIP3    H213120   6.716   0.156   2.131
 4386TIP3   OH213121   5.956   6.127   0.428
 4386TIP3    H113122   6.027   6.159   0.484
 4386TIP3    H213123   5.896   6.083   0.487
 4387TIP3   OH213124   3.151   4.426   1.578
 4387TIP3    H113125   3.117   4.359   1.518
 4387TIP3    H213126   3.146   4.385   1.664
 4388TIP3   OH213127   2.372   4.695   4.102
 4388TIP3    H113128   2.416   4.681   4.018
 4388TIP3    H213129   2.284   4.722   4.080
 4389TIP3   OH213130   4.292   4.570   5.472
 4389TIP3    H113131   4.201   4.597   5.487
 4389TIP3    H213132   4.306   4.496   5.532
 4390TIP3   OH213133   6.893   6.484   3.501
 4390TIP3    H113134   6.800   6.503   3.488
 4390TIP3    H213135   6.935   6.571   3.504
 4391TIP3   OH213136   5.054   5.087   5.564
 4391TIP3    H113137   5.062   5.029   5.488
 4391TIP3    H213138   5.013   5.166   5.529
 4392TIP3   OH213139   5.012   1.947   4.014
 4392TIP3    H113140   5.071   1.878   4.044
 4392TIP3    H213141   4.924   1.913   4.030
 4393TIP3   OH213142   1.041   6.364   2.628
 4393TIP3    H113143   1.122   6.322   2.656
 4393TIP3    H213144   1.069   6.440   2.577
 4394TIP3   OH213145   4.351   6.489   3.696
 4394TIP3    H113146   4.424   6.463   3.640
 4394TIP3    H213147   4.386   6.558   3.752
 4395TIP3   OH213148   6.683   0.496   4.738
 4395TIP3    H113149   6.763   0.517   4.691
 4395TIP3    H213150   6.671   0.402   4.724
 4396TIP3   OH213151   4.681   3.537   2.911
 4396TIP3    H113152   4.703   3.543   3.004
 4396TIP3    H213153   4.666   3.444   2.896
 4397TIP3   OH213154   6.422   1.614   5.510
 4397TIP3    H113155   6.429   1.553   5.583
 4397TIP3    H213156   6.376   1.564   5.441
 4398TIP3   OH213157   0.079   2.723   1.164
 4398TIP3    H113158   0.088   2.817   1.176
 4398TIP3    H213159   0.166   2.693   1.139
 4399TIP3   OH213160   7.038   3.041   2.002
 4399TIP3    H113161   7.071   3.042   1.912
 4399TIP3    H213162   7.037   3.133   2.029
 4400TIP3   OH213163   4.508   2.493   3.350
 4400TIP3    H113164   4.561   2.432   3.402
 4400TIP3    H213165   4.570   2.533   3.289
 4401TIP3   OH213166   4.538   6.593   5.670
 4401TIP3    H113167   4.632   6.608   5.660
 4401TIP3    H213168   4.501   6.681   5.681
 4402TIP3   OH213169   7.102   6.158   4.297
 4402TIP3    H113170   7.015   6.191   4.320
 4402TIP3    H213171   7.112   6.079   4.350
 4403TIP3   OH213172   5.262   1.718   0.466
 4403TIP3    H113173   5.177   1.731   0.507
 4403TIP3    H213174   5.322   1.771   0.517
 4404TIP3   OH213175   3.758   6.131   0.119
 4404TIP3    H113176   3.830   6.104   0.061
 4404TIP3    H213177   3.777   6.087   0.202
 4405TIP3   OH213178   6.676   6.325   2.618
 4405TIP3    H113179   6.726   6.329   2.537
 4405TIP3    H213180   6.624   6.405   2.618
 4406TIP3   OH213181   2.122   1.824   5.105
 4406TIP3    H113182   2.054   1.815   5.172
 4406TIP3    H213183   2.152   1.735   5.089
 4407TIP3   OH213184   6.504   4.904   0.777
 4407TIP3    H113185   6.415   4.935   0.761
 4407TIP3    H213186   6.493   4.809   0.789
 4408TIP3   OH213187   2.880   6.681   5.537
 4408TIP3    H113188   2.926   6.602   5.508
 4408TIP3    H213189   2.849   6.660   5.625
 4409TIP3   OH213190   5.491   1.798   4.625
 4409TIP3    H113191   5.575   1.806   4.670
 4409TIP3    H213192   5.477   1.703   4.617
 4410TIP3   OH213193   1.073   1.707   4.653
 4410TIP3    H113194   0.985   1.674   4.667
 4410TIP3    H213195   1.081   1.781   4.714
 4411TIP3   OH213196   2.265   5.886   0.809
 4411TIP3    H113197   2.203   5.906   0.879
 4411TIP3    H213198   2.350   5.878   0.853
 4412TIP3   OH213199   4.276   0.956   0.433
 4412TIP3    H113200   4.361   0.920   0.408
 4412TIP3    H213201   4.299   1.033   0.486
 4413TIP3   OH213202   6.317   3.431   2.537
 4413TIP3    H113203   6.268   3.441   2.455
 4413TIP3    H213204   6.392   3.489   2.527
 4414TIP3   OH213205   6.063   4.680   3.225
 4414TIP3    H113206   6.155   4.700   3.245
 4414TIP3    H213207   6.034   4.625   3.298
 4415TIP3   OH213208   4.388   1.725   2.949
 4415TIP3    H113209   4.344   1.714   3.034
 4415TIP3    H213210   4.320   1.704   2.885
 4416TIP3   OH213211   2.975   6.395   4.834
 4416TIP3    H113212   2.919   6.430   4.764
 4416TIP3    H213213   2.917   6.340   4.886
 4417TIP3   OH213214   5.198   1.281   3.454
 4417TIP3    H113215   5.227   1.359   3.406
 4417TIP3    H213216   5.103   1.282   3.447
 4418TIP3   OH213217   4.228   5.207   2.889
 4418TIP3    H113218   4.176   5.154   2.829
 4418TIP3    H213219   4.164   5.261   2.935
 4419TIP3   OH213220   2.860   5.164   0.540
 4419TIP3    H113221   2.769   5.172   0.509
 4419TIP3    H213222   2.881   5.251   0.574
 4420TIP3   OH213223   2.809   3.090   0.555
 4420TIP3    H113224   2.841   3.148   0.485
 4420TIP3    H213225   2.755   3.147   0.609
 4421TIP3   OH213226   6.685   6.224   4.800
 4421TIP3    H113227   6.659   6.310   4.767
 4421TIP3    H213228   6.746   6.243   4.872
 4422TIP3   OH213229   7.109   4.612   3.382
 4422TIP3    H113230   7.114   4.553   3.307
 4422TIP3    H213231   7.153   4.565   3.453
 4423TIP3   OH213232   5.667   3.173   2.217
 4423TIP3    H113233   5.724   3.101   2.192
 4423TIP3    H213234   5.589   3.162   2.162
 4424TIP3   OH213235   5.409   1.306   1.115
 4424TIP3    H113236   5.444   1.395   1.124
 4424TIP3    H213237   5.484   1.249   1.130
 4425TIP3   OH213238   4.712   2.506   4.128
 4425TIP3    H113239   4.784   2.473   4.074
 4425TIP3    H213240   4.637   2.509   4.068
 4426TIP3   OH213241   3.161   6.728   2.175
 4426TIP3    H113242   3.185   6.821   2.184
 4426TIP3    H213243   3.236   6.681   2.210
 4427TIP3   OH213244   2.844   4.406   3.577
 4427TIP3    H113245   2.938   4.389   3.584
 4427TIP3    H213246   2.820   4.447   3.661
 4428TIP3   OH213247   4.698   6.050   5.827
 4428TIP3    H113248   4.718   5.962   5.858
 4428TIP3    H213249   4.634   6.037   5.757
 4429TIP3   OH213250   5.008   5.851   1.110
 4429TIP3    H113251   4.935   5.912   1.126
 4429TIP3    H213252   5.086   5.906   1.107
 4430TIP3   OH213253   6.964   4.368   5.169
 4430TIP3    H113254   6.955   4.326   5.083
 4430TIP3    H213255   6.945   4.298   5.232
 4431TIP3   OH213256   1.082   2.272   0.155
 4431TIP3    H113257   1.001   2.267   0.205
 4431TIP3    H213258   1.149   2.239   0.214
 4432TIP3   OH213259   2.391   4.070   3.982
 4432TIP3    H113260   2.366   4.047   4.072
 4432TIP3    H213261   2.315   4.048   3.929
 4433TIP3   OH213262   7.044   6.337   5.592
 4433TIP3    H113263   7.119   6.344   5.652
 4433TIP3    H213264   7.081   6.298   5.513
 4434TIP3   OH213265   3.604   5.814   2.688
 4434TIP3    H113266   3.637   5.724   2.686
 4434TIP3    H213267   3.543   5.819   2.614
 4435TIP3   OH213268   7.001   0.926   2.952
 4435TIP3    H113269   6.946   0.999   2.924
 4435TIP3    H213270   7.066   0.965   3.011
 4436TIP3   OH213271   5.174   0.953   5.467
 4436TIP3    H113272   5.145   0.894   5.398
 4436TIP3    H213273   5.136   0.917   5.547
 4437TIP3   OH213274   3.326   4.830   5.561
 4437TIP3    H113275   3.324   4.771   5.485
 4437TIP3    H213276   3.389   4.898   5.536
 4438TIP3   OH213277   4.543   2.191   5.494
 4438TIP3    H113278   4.487   2.267   5.506
 4438TIP3    H213279   4.629   2.218   5.527
 4439TIP3   OH213280   5.466   0.391   3.268
 4439TIP3    H113281   5.492   0.482   3.254
 4439TIP3    H213282   5.384   0.382   3.219
 4440TIP3   OH213283   5.046   0.959   0.427
 4440TIP3    H113284   5.041   1.049   0.395
 4440TIP3    H213285   4.958   0.924   0.415
 4441TIP3   OH213286   1.288   3.336   3.992
 4441TIP3    H113287   1.301   3.331   3.897
 4441TIP3    H213288   1.336   3.261   4.027
 4442TIP3   OH213289   0.626   2.984   2.981
 4442TIP3    H113290   0.546   3.029   2.954
 4442TIP3    H213291   0.620   2.978   3.076
 4443TIP3   OH213292   5.624   4.858   3.219
 4443TIP3    H113293   5.534   4.890   3.214
 4443TIP3    H213294   5.639   4.842   3.313
 4444TIP3   OH213295   5.244   4.924   3.447
 4444TIP3    H113296   5.201   4.840   3.462
 4444TIP3    H213297   5.229   4.974   3.527
 4445TIP3   OH213298   1.029   5.967   3.183
 4445TIP3    H113299   0.968   6.022   3.134
 4445TIP3    H213300   1.059   5.902   3.118
 4446TIP3   OH213301   2.428   6.508   1.543
 4446TIP3    H113302   2.481   6.454   1.601
 4446TIP3    H213303   2.362   6.547   1.600
 4447TIP3   OH213304   6.877   5.514   3.659
 4447TIP3    H113305   6.933   5.506   3.737
 4447TIP3    H213306   6.801   5.459   3.679
 4448TIP3   OH213307   0.734   6.356   2.862
 4448TIP3    H113308   0.707   6.292   2.797
 4448TIP3    H213309   0.673   6.429   2.850
 4449TIP3   OH213310   4.012   5.837   2.193
 4449TIP3    H113311   3.980   5.748   2.181
 4449TIP3    H213312   4.096   5.827   2.237
 4450TIP3   OH213313   0.890   5.896   1.397
 4450TIP3    H113314   0.919   5.808   1.372
 4450TIP3    H213315   0.801   5.883   1.430
 4451TIP3   OH213316   7.064   2.201   0.852
 4451TIP3    H113317   6.994   2.156   0.804
 4451TIP3    H213318   7.145   2.165   0.817
 4452TIP3   OH213319   7.077   2.413   4.702
 4452TIP3    H113320   7.115   2.377   4.622
 4452TIP3    H213321   7.084   2.508   4.690
 4453TIP3   OH213322   3.846   2.917   2.795
 4453TIP3    H113323   3.881   2.877   2.875
 4453TIP3    H213324   3.877   2.860   2.724
 4454TIP3   OH213325   4.818   6.255   5.546
 4454TIP3    H113326   4.749   6.197   5.515
 4454TIP3    H213327   4.772   6.324   5.594
 4455TIP3   OH213328   6.761   1.548   5.099
 4455TIP3    H113329   6.826   1.589   5.043
 4455TIP3    H213330   6.804   1.540   5.184
 4456TIP3   OH213331   4.971   2.997   5.314
 4456TIP3    H113332   5.016   3.014   5.397
 4456TIP3    H213333   4.974   3.080   5.268
 4457TIP3   OH213334   4.843   0.207   3.185
 4457TIP3    H113335   4.777   0.149   3.148
 4457TIP3    H213336   4.819   0.294   3.151
 4458TIP3   OH213337   3.044   1.335   4.959
 4458TIP3    H113338   3.108   1.378   4.903
 4458TIP3    H213339   3.091   1.318   5.041
 4459TIP3   OH213340   6.274   2.875   0.904
 4459TIP3    H113341   6.301   2.870   0.812
 4459TIP3    H213342   6.323   2.948   0.940
 4460TIP3   OH213343   6.591   2.980   2.063
 4460TIP3    H113344   6.570   3.044   2.131
 4460TIP3    H213345   6.570   3.024   1.981
 4461TIP3   OH213346   4.100   5.739   0.777
 4461TIP3    H113347   4.134   5.775   0.859
 4461TIP3    H213348   4.075   5.817   0.726
 4462TIP3   OH213349   2.938   1.896   0.446
 4462TIP3    H113350   2.962   1.925   0.358
 4462TIP3    H213351   2.846   1.920   0.455
 4463TIP3   OH213352   5.434   5.523   4.608
 4463TIP3    H113353   5.467   5.612   4.622
 4463TIP3    H213354   5.373   5.532   4.535
 4464TIP3   OH213355   2.782   1.777   4.368
 4464TIP3    H113356   2.798   1.743   4.280
 4464TIP3    H213357   2.749   1.703   4.418
 4465TIP3   OH213358   1.276   5.002   0.352
 4465TIP3    H113359   1.321   4.960   0.279
 4465TIP3    H213360   1.329   4.979   0.429
 4466TIP3   OH213361   6.022   2.663   4.806
 4466TIP3    H113362   5.926   2.658   4.812
 4466TIP3    H213363   6.038   2.692   4.716
 4467TIP3   OH213364   0.923   5.921   0.276
 4467TIP3    H113365   0.955   5.989   0.335
 4467TIP3    H213366   0.974   5.933   0.196
 4468TIP3   OH213367   0.792   5.345   4.203
 4468TIP3    H113368   0.867   5.402   4.185
 4468TIP3    H213369   0.767   5.311   4.118
 4469TIP3   OH213370   3.295   3.755   2.055
 4469TIP3    H113371   3.304   3.670   2.098
 4469TIP3    H213372   3.296   3.735   1.961
 4470TIP3   OH213373   2.163   6.618   3.713
 4470TIP3    H113374   2.235   6.657   3.763
 4470TIP3    H213375   2.161   6.527   3.743
 4471TIP3   OH213376   2.084   0.115   3.670
 4471TIP3    H113377   2.107   0.207   3.677
 4471TIP3    H213378   2.018   0.102   3.739
 4472TIP3   OH213379   5.163   2.526   3.186
 4472TIP3    H113380   5.130   2.490   3.103
 4472TIP3    H213381   5.126   2.614   3.191
 4473TIP3   OH213382   7.052   1.554   3.103
 4473TIP3    H113383   6.958   1.558   3.087
 4473TIP3    H213384   7.072   1.461   3.114
 4474TIP3   OH213385   2.645   3.263   2.656
 4474TIP3    H113386   2.680   3.195   2.713
 4474TIP3    H213387   2.575   3.220   2.607
 4475TIP3   OH213388   5.554   0.182   4.519
 4475TIP3    H113389   5.604   0.258   4.546
 4475TIP3    H213390   5.583   0.112   4.577
 4476TIP3   OH213391   4.919   4.961   3.573
 4476TIP3    H113392   5.000   4.963   3.624
 4476TIP3    H213393   4.923   4.878   3.525
 4477TIP3   OH213394   6.908   4.045   5.667
 4477TIP3    H113395   6.897   4.010   5.755
 4477TIP3    H213396   6.951   3.974   5.618
 4478TIP3   OH213397   3.268   2.573   3.275
 4478TIP3    H113398   3.235   2.517   3.345
 4478TIP3    H213399   3.192   2.586   3.217
 4479TIP3   OH213400   4.031   3.345   3.265
 4479TIP3    H113401   3.962   3.410   3.274
 4479TIP3    H213402   3.987   3.268   3.228
 4480TIP3   OH213403   3.414   3.311   0.665
 4480TIP3    H113404   3.450   3.299   0.753
 4480TIP3    H213405   3.416   3.406   0.652
 4481TIP3   OH213406   6.699   2.161   4.112
 4481TIP3    H113407   6.622   2.141   4.059
 4481TIP3    H213408   6.672   2.235   4.167
 4482TIP3   OH213409   3.267   2.253   0.802
 4482TIP3    H113410   3.193   2.311   0.789
 4482TIP3    H213411   3.311   2.250   0.717
 4483TIP3   OH213412   0.421   3.907  -0.020
 4483TIP3    H113413   0.514   3.893  -0.003
 4483TIP3    H213414   0.394   3.971   0.046
 4484TIP3   OH213415   2.458   0.305   1.399
 4484TIP3    H113416   2.515   0.285   1.473
 4484TIP3    H213417   2.410   0.224   1.382
 4485TIP3   OH213418   4.850   5.459   1.140
 4485TIP3    H113419   4.756   5.467   1.128
 4485TIP3    H213420   4.865   5.365   1.148
 4486TIP3   OH213421   0.480   1.216   0.505
 4486TIP3    H113422   0.535   1.287   0.538
 4486TIP3    H213423   0.443   1.251   0.424
 4487TIP3   OH213424   1.399   3.654   1.986
 4487TIP3    H113425   1.486   3.614   1.992
 4487TIP3    H213426   1.416   3.748   1.978
 4488TIP3   OH213427   3.496   2.993   1.725
 4488TIP3    H113428   3.413   2.945   1.730
 4488TIP3    H213429   3.492   3.055   1.798
 4489TIP3   OH213430   5.235   2.664   4.996
 4489TIP3    H113431   5.253   2.742   4.943
 4489TIP3    H213432   5.315   2.651   5.047
 4490TIP3   OH213433   5.894   6.277   5.128
 4490TIP3    H113434   5.963   6.270   5.061
 4490TIP3    H213435   5.921   6.351   5.182
 4491TIP3   OH213436   0.466   3.579   3.507
 4491TIP3    H113437   0.528   3.513   3.477
 4491TIP3    H213438   0.382   3.552   3.469
 4492TIP3   OH213439   2.309   5.612   0.991
 4492TIP3    H113440   2.318   5.534   0.935
 4492TIP3    H213441   2.344   5.684   0.939
 4493TIP3   OH213442   5.167   2.735   1.947
 4493TIP3    H113443   5.249   2.694   1.921
 4493TIP3    H213444   5.187   2.829   1.947
 4494TIP3   OH213445   1.988   0.311   1.961
 4494TIP3    H113446   2.078   0.344   1.952
 4494TIP3    H213447   1.985   0.272   2.049
 4495TIP3   OH213448   4.899   0.476   0.288
 4495TIP3    H113449   4.915   0.383   0.272
 4495TIP3    H213450   4.806   0.487   0.270
 4496TIP3   OH213451   5.895   0.234   3.225
 4496TIP3    H113452   5.872   0.206   3.136
 4496TIP3    H213453   5.876   0.159   3.280
 4497TIP3   OH213454   4.009   4.993   2.308
 4497TIP3    H113455   3.935   4.973   2.250
 4497TIP3    H213456   4.082   5.010   2.248
 4498TIP3   OH213457   4.133   2.262   4.598
 4498TIP3    H113458   4.123   2.323   4.525
 4498TIP3    H213459   4.185   2.310   4.663
 4499TIP3   OH213460   4.030   4.300   1.712
 4499TIP3    H113461   4.057   4.376   1.661
 4499TIP3    H213462   4.086   4.302   1.789
 4500TIP3   OH213463   4.210   1.913   5.463
 4500TIP3    H113464   4.152   1.871   5.400
 4500TIP3    H213465   4.297   1.880   5.441
 4501TIP3   OH213466   2.779   4.496   0.119
 4501TIP3    H113467   2.857   4.543   0.150
 4501TIP3    H213468   2.779   4.414   0.168
 4502TIP3   OH213469   1.692   3.220   4.452
 4502TIP3    H113470   1.615   3.270   4.478
 4502TIP3    H213471   1.661   3.163   4.382
 4503TIP3   OH213472   6.140   1.407   2.881
 4503TIP3    H113473   6.088   1.390   2.802
 4503TIP3    H213474   6.077   1.402   2.953
 4504TIP3   OH213475   3.149   3.529   2.010
 4504TIP3    H113476   3.073   3.575   2.047
 4504TIP3    H213477   3.111   3.458   1.959
 4505TIP3   OH213478   1.905   5.790   5.390
 4505TIP3    H113479   1.902   5.800   5.295
 4505TIP3    H213480   1.950   5.707   5.403
 4506TIP3   OH213481   1.325   2.553   3.330
 4506TIP3    H113482   1.329   2.584   3.240
 4506TIP3    H213483   1.365   2.623   3.382
 4507TIP3   OH213484   2.205   0.377   3.545
 4507TIP3    H113485   2.230   0.358   3.635
 4507TIP3    H213486   2.179   0.469   3.546
 4508TIP3   OH213487   1.194   6.319   2.273
 4508TIP3    H113488   1.258   6.385   2.300
 4508TIP3    H213489   1.211   6.244   2.330
 4509TIP3   OH213490   5.577   2.197   5.223
 4509TIP3    H113491   5.647   2.136   5.246
 4509TIP3    H213492   5.575   2.196   5.127
 4510TIP3   OH213493   2.536   6.373   5.388
 4510TIP3    H113494   2.448   6.388   5.421
 4510TIP3    H213495   2.564   6.291   5.430
 4511TIP3   OH213496   4.879   0.177   1.408
 4511TIP3    H113497   4.849   0.134   1.488
 4511TIP3    H213498   4.844   0.124   1.337
 4512TIP3   OH213499   1.919   6.340   0.610
 4512TIP3    H113500   1.974   6.400   0.558
 4512TIP3    H213501   1.829   6.363   0.586
 4513TIP3   OH213502   6.105   0.468   2.786
 4513TIP3    H113503   6.178   0.519   2.818
 4513TIP3    H213504   6.125   0.452   2.694
 4514TIP3   OH213505   7.045   4.024   2.751
 4514TIP3    H113506   6.996   4.021   2.669
 4514TIP3    H213507   6.978   4.026   2.819
 4515TIP3   OH213508   4.096   4.155   2.315
 4515TIP3    H113509   4.071   4.192   2.400
 4515TIP3    H213510   4.080   4.061   2.324
 4516TIP3   OH213511   4.108   1.902   3.882
 4516TIP3    H113512   4.082   1.978   3.934
 4516TIP3    H213513   4.066   1.828   3.925
 4517TIP3   OH213514   0.088   2.818   3.674
 4517TIP3    H113515   0.003   2.855   3.653
 4517TIP3    H213516   0.075   2.723   3.670
 4518TIP3   OH213517   6.506   1.466   1.926
 4518TIP3    H113518   6.455   1.420   1.992
 4518TIP3    H213519   6.454   1.461   1.847
 4519TIP3   OH213520   1.006   2.639   3.160
 4519TIP3    H113521   1.040   2.602   3.242
 4519TIP3    H213522   1.043   2.583   3.091
 4520TIP3   OH213523   2.726   0.611   2.450
 4520TIP3    H113524   2.705   0.518   2.454
 4520TIP3    H213525   2.643   0.654   2.433
 4521TIP3   OH213526   0.022   2.923   2.199
 4521TIP3    H113527   0.053   3.012   2.186
 4521TIP3    H213528  -0.066   2.923   2.162
 4522TIP3   OH213529   3.832   3.170   4.138
 4522TIP3    H113530   3.803   3.084   4.170
 4522TIP3    H213531   3.794   3.176   4.050
 4523TIP3   OH213532   3.423   4.486   5.178
 4523TIP3    H113533   3.461   4.558   5.128
 4523TIP3    H213534   3.482   4.412   5.162
 4524TIP3   OH213535   5.801   0.929   3.018
 4524TIP3    H113536   5.865   0.949   3.086
 4524TIP3    H213537   5.840   0.962   2.937
 4525TIP3   OH213538   3.263   3.262   3.354
 4525TIP3    H113539   3.344   3.278   3.402
 4525TIP3    H213540   3.196   3.252   3.422
 4526TIP3   OH213541   4.738   4.429   3.029
 4526TIP3    H113542   4.680   4.420   3.105
 4526TIP3    H213543   4.679   4.446   2.956
 4527TIP3   OH213544   3.124   3.231   4.651
 4527TIP3    H113545   3.138   3.298   4.584
 4527TIP3    H213546   3.211   3.215   4.688
 4528TIP3   OH213547   5.227   2.238   5.633
 4528TIP3    H113548   5.157   2.285   5.587
 4528TIP3    H213549   5.299   2.301   5.638
 4529TIP3   OH213550   5.145   0.517   3.675
 4529TIP3    H113551   5.240   0.515   3.680
 4529TIP3    H213552   5.125   0.534   3.583
 4530TIP3   OH213553   1.131   4.303   3.820
 4530TIP3    H113554   1.056   4.261   3.777
 4530TIP3    H213555   1.109   4.304   3.912
 4531TIP3   OH213556   6.011   4.140   1.747
 4531TIP3    H113557   6.011   4.054   1.705
 4531TIP3    H213558   6.055   4.126   1.831
 4532TIP3   OH213559   1.020   2.172   5.105
 4532TIP3    H113560   1.086   2.241   5.105
 4532TIP3    H213561   1.035   2.124   5.023
 4533TIP3   OH213562   4.317   1.403   0.478
 4533TIP3    H113563   4.236   1.454   0.474
 4533TIP3    H213564   4.340   1.386   0.387
 4534TIP3   OH213565   2.033   1.799   3.578
 4534TIP3    H113566   2.101   1.738   3.548
 4534TIP3    H213567   2.048   1.808   3.672
 4535TIP3   OH213568   0.639   2.874   5.624
 4535TIP3    H113569   0.686   2.812   5.568
 4535TIP3    H213570   0.682   2.958   5.607
 4536TIP3   OH213571   2.929   6.115   2.893
 4536TIP3    H113572   2.968   6.139   2.809
 4536TIP3    H213573   2.874   6.190   2.916
 4537TIP3   OH213574   4.336   1.348   4.045
 4537TIP3    H113575   4.284   1.298   3.982
 4537TIP3    H213576   4.282   1.424   4.066
 4538TIP3   OH213577   4.017   5.375   1.313
 4538TIP3    H113578   3.954   5.325   1.261
 4538TIP3    H213579   4.083   5.311   1.339
 4539TIP3   OH213580   7.059   5.387   4.812
 4539TIP3    H113581   7.069   5.311   4.755
 4539TIP3    H213582   6.965   5.402   4.817
 4540TIP3   OH213583   2.927   1.746   4.132
 4540TIP3    H113584   2.989   1.750   4.059
 4540TIP3    H213585   2.842   1.734   4.090
 4541TIP3   OH213586   4.432   0.477   5.626
 4541TIP3    H113587   4.437   0.562   5.582
 4541TIP3    H213588   4.519   0.464   5.664
 4542TIP3   OH213589   0.610   6.787   0.914
 4542TIP3    H113590   0.612   6.797   0.819
 4542TIP3    H213591   0.563   6.705   0.928
 4543TIP3   OH213592   5.828   4.375   4.910
 4543TIP3    H113593   5.898   4.439   4.922
 4543TIP3    H213594   5.762   4.400   4.975
 4544TIP3   OH213595   2.099   4.024   3.548
 4544TIP3    H113596   2.033   3.958   3.567
 4544TIP3    H213597   2.148   3.987   3.474
 4545TIP3   OH213598   2.212   3.248   1.627
 4545TIP3    H113599   2.267   3.315   1.669
 4545TIP3    H213600   2.274   3.183   1.594
 4546TIP3   OH213601   2.493   2.613   4.050
 4546TIP3    H113602   2.405   2.639   4.077
 4546TIP3    H213603   2.496   2.518   4.064
 4547TIP3   OH213604   6.545   5.569   5.077
 4547TIP3    H113605   6.459   5.571   5.035
 4547TIP3    H213606   6.544   5.490   5.130
 4548TIP3   OH213607   1.692   1.304   4.613
 4548TIP3    H113608   1.604   1.311   4.576
 4548TIP3    H213609   1.684   1.243   4.686
 4549TIP3   OH213610   0.670   5.542   0.173
 4549TIP3    H113611   0.582   5.577   0.155
 4549TIP3    H213612   0.723   5.619   0.193
 4550TIP3   OH213613   4.545   5.302   2.541
 4550TIP3    H113614   4.536   5.314   2.636
 4550TIP3    H213615   4.620   5.244   2.531
 4551TIP3   OH213616   5.240   6.480   1.900
 4551TIP3    H113617   5.178   6.550   1.919
 4551TIP3    H213618   5.302   6.483   1.973
 4552TIP3   OH213619   0.229   4.715   2.265
 4552TIP3    H113620   0.153   4.701   2.322
 4552TIP3    H213621   0.283   4.778   2.311
 4553TIP3   OH213622   5.894   1.072   2.792
 4553TIP3    H113623   5.945   1.138   2.744
 4553TIP3    H213624   5.815   1.060   2.739
 4554TIP3   OH213625   3.483   4.381   5.445
 4554TIP3    H113626   3.456   4.432   5.368
 4554TIP3    H213627   3.469   4.290   5.419
 4555TIP3   OH213628   6.509   6.492   3.929
 4555TIP3    H113629   6.599   6.511   3.904
 4555TIP3    H213630   6.463   6.576   3.921
 4556TIP3   OH213631   4.699   2.255   3.380
 4556TIP3    H113632   4.761   2.322   3.352
 4556TIP3    H213633   4.753   2.187   3.421
 4557TIP3   OH213634   5.524   3.699   2.912
 4557TIP3    H113635   5.443   3.724   2.956
 4557TIP3    H213636   5.563   3.633   2.969
 4558TIP3   OH213637   4.635   5.466   0.419
 4558TIP3    H113638   4.704   5.409   0.452
 4558TIP3    H213639   4.605   5.514   0.496
 4559TIP3   OH213640   4.175   5.107   2.110
 4559TIP3    H113641   4.189   5.055   2.031
 4559TIP3    H213642   4.135   5.188   2.079
 4560TIP3   OH213643   2.141   6.116   0.115
 4560TIP3    H113644   2.101   6.103   0.029
 4560TIP3    H213645   2.203   6.188   0.102
 4561TIP3   OH213646   3.182   1.744   3.977
 4561TIP3    H113647   3.190   1.653   3.950
 4561TIP3    H213648   3.178   1.793   3.895
 4562TIP3   OH213649   6.428   6.309   0.181
 4562TIP3    H113650   6.361   6.321   0.249
 4562TIP3    H213651   6.379   6.300   0.100
 4563TIP3   OH213652   6.216   3.483   3.749
 4563TIP3    H113653   6.212   3.543   3.675
 4563TIP3    H213654   6.174   3.403   3.717
 4564TIP3   OH213655   5.583   6.106   1.120
 4564TIP3    H113656   5.594   6.080   1.212
 4564TIP3    H213657   5.539   6.031   1.079
 4565TIP3   OH213658   3.513   6.629   1.407
 4565TIP3    H113659   3.575   6.585   1.464
 4565TIP3    H213660   3.560   6.707   1.377
 4566TIP3   OH213661   0.670   2.731   1.851
 4566TIP3    H113662   0.702   2.755   1.938
 4566TIP3    H213663   0.742   2.753   1.792
 4567TIP3   OH213664   6.656   3.122   5.844
 4567TIP3    H113665   6.670   3.216   5.848
 4567TIP3    H213666   6.666   3.092   5.935
 4568TIP3   OH213667   3.503   4.908   4.590
 4568TIP3    H113668   3.456   4.846   4.645
 4568TIP3    H213669   3.539   4.972   4.651
 4569TIP3   OH213670   5.527   2.491   4.062
 4569TIP3    H113671   5.593   2.536   4.115
 4569TIP3    H213672   5.569   2.478   3.977
 4570TIP3   OH213673   0.935   1.697   3.897
 4570TIP3    H113674   0.994   1.768   3.870
 4570TIP3    H213675   0.899   1.664   3.814
 4571TIP3   OH213676   3.727   0.908   5.062
 4571TIP3    H113677   3.748   0.995   5.096
 4571TIP3    H213678   3.665   0.872   5.126
 4572TIP3   OH213679   7.128   1.240   5.128
 4572TIP3    H113680   7.063   1.223   5.060
 4572TIP3    H213681   7.193   1.296   5.085
 4573TIP3   OH213682   3.770   3.507   3.621
 4573TIP3    H113683   3.813   3.476   3.701
 4573TIP3    H213684   3.683   3.469   3.625
 4574TIP3   OH213685   6.297   5.958   0.662
 4574TIP3    H113686   6.370   6.000   0.616
 4574TIP3    H213687   6.254   5.904   0.596
 4575TIP3   OH213688   0.579   5.393   5.626
 4575TIP3    H113689   0.548   5.345   5.549
 4575TIP3    H213690   0.674   5.386   5.622
 4576TIP3   OH213691   0.666   1.374   0.877
 4576TIP3    H113692   0.731   1.425   0.828
 4576TIP3    H213693   0.664   1.289   0.833
 4577TIP3   OH213694   4.530   0.160   4.967
 4577TIP3    H113695   4.573   0.143   5.051
 4577TIP3    H213696   4.552   0.251   4.947
 4578TIP3   OH213697   1.501   3.326   0.111
 4578TIP3    H113698   1.435   3.275   0.158
 4578TIP3    H213699   1.571   3.339   0.175
 4579TIP3   OH213700   1.690   2.909   5.361
 4579TIP3    H113701   1.687   2.813   5.356
 4579TIP3    H213702   1.623   2.931   5.426
 4580TIP3   OH213703   6.039   2.820   4.026
 4580TIP3    H113704   6.023   2.861   4.110
 4580TIP3    H213705   6.029   2.726   4.043
 4581TIP3   OH213706   1.212   5.854   2.240
 4581TIP3    H113707   1.295   5.889   2.209
 4581TIP3    H213708   1.163   5.833   2.161
 4582TIP3   OH213709   4.161   2.051   1.595
 4582TIP3    H113710   4.221   1.995   1.644
 4582TIP3    H213711   4.183   2.140   1.622
 4583TIP3   OH213712   0.759   1.892   3.202
 4583TIP3    H113713   0.812   1.823   3.243
 4583TIP3    H213714   0.792   1.973   3.240
 4584TIP3   OH213715   5.304   3.498   3.558
 4584TIP3    H113716   5.383   3.525   3.605
 4584TIP3    H213717   5.330   3.418   3.512
 4585TIP3   OH213718   2.148   0.557   5.053
 4585TIP3    H113719   2.226   0.573   5.105
 4585TIP3    H213720   2.075   0.566   5.115
 4586TIP3   OH213721   3.059   4.548   4.642
 4586TIP3    H113722   2.987   4.497   4.606
 4586TIP3    H213723   3.136   4.521   4.591
 4587TIP3   OH213724   0.238   5.361   1.900
 4587TIP3    H113725   0.271   5.445   1.929
 4587TIP3    H213726   0.294   5.336   1.827
 4588TIP3   OH213727   2.878   4.650   3.166
 4588TIP3    H113728   2.919   4.719   3.219
 4588TIP3    H213729   2.917   4.569   3.197
 4589TIP3   OH213730   0.819   2.266   1.252
 4589TIP3    H113731   0.840   2.341   1.308
 4589TIP3    H213732   0.724   2.269   1.243
 4590TIP3   OH213733   6.191   6.350   4.408
 4590TIP3    H113734   6.099   6.363   4.433
 4590TIP3    H213735   6.190   6.345   4.313
 4591TIP3   OH213736   5.293   2.060   1.466
 4591TIP3    H113737   5.346   2.128   1.424
 4591TIP3    H213738   5.355   1.989   1.485
 4592TIP3   OH213739   0.698   1.795   0.161
 4592TIP3    H113740   0.662   1.808   0.074
 4592TIP3    H213741   0.709   1.700   0.168
 4593TIP3   OH213742   6.152   1.788   0.361
 4593TIP3    H113743   6.063   1.780   0.394
 4593TIP3    H213744   6.208   1.783   0.439
 4594TIP3   OH213745   1.546   3.166   4.009
 4594TIP3    H113746   1.558   3.072   3.993
 4594TIP3    H213747   1.595   3.209   3.939
 4595TIP3   OH213748   2.934   2.214   1.692
 4595TIP3    H113749   2.929   2.189   1.784
 4595TIP3    H213750   2.960   2.134   1.647
 4596TIP3   OH213751   3.368   3.754   1.509
 4596TIP3    H113752   3.392   3.840   1.473
 4596TIP3    H213753   3.273   3.750   1.497
 4597TIP3   OH213754   6.610   5.067   4.265
 4597TIP3    H113755   6.586   5.028   4.349
 4597TIP3    H213756   6.635   4.992   4.210
 4598TIP3   OH213757   0.935   6.323   0.058
 4598TIP3    H113758   0.882   6.359  -0.012
 4598TIP3    H213759   0.871   6.285   0.119
 4599TIP3   OH213760   4.387   2.988   1.251
 4599TIP3    H113761   4.306   2.989   1.202
 4599TIP3    H213762   4.360   2.986   1.343
 4600TIP3   OH213763   5.817   4.964   5.884
 4600TIP3    H113764   5.733   4.920   5.900
 4600TIP3    H213765   5.807   5.050   5.923
 4601TIP3   OH213766   5.607   4.820   1.064
 4601TIP3    H113767   5.542   4.842   1.130
 4601TIP3    H213768   5.673   4.889   1.070
 4602TIP3   OH213769   5.945   3.244   4.649
 4602TIP3    H113770   5.903   3.319   4.607
 4602TIP3    H213771   6.004   3.283   4.714
 4603TIP3   OH213772   1.152   1.202   2.729
 4603TIP3    H113773   1.219   1.261   2.764
 4603TIP3    H213774   1.111   1.163   2.805
 4604TIP3   OH213775   6.752   0.200   1.291
 4604TIP3    H113776   6.781   0.113   1.263
 4604TIP3    H213777   6.667   0.184   1.333
 4605TIP3   OH213778   4.222   6.215   0.587
 4605TIP3    H113779   4.258   6.188   0.672
 4605TIP3    H213780   4.215   6.310   0.594
 4606TIP3   OH213781   2.825   0.888   4.208
 4606TIP3    H113782   2.807   0.820   4.273
 4606TIP3    H213783   2.778   0.965   4.240
 4607TIP3   OH213784   2.819   4.180   2.490
 4607TIP3    H113785   2.764   4.170   2.412
 4607TIP3    H213786   2.760   4.167   2.563
 4608TIP3   OH213787   5.836   1.524   5.716
 4608TIP3    H113788   5.827   1.548   5.623
 4608TIP3    H213789   5.889   1.445   5.715
 4609TIP3   OH213790   6.626   0.931   0.173
 4609TIP3    H113791   6.707   0.881   0.158
 4609TIP3    H213792   6.646   1.018   0.137
 4610TIP3   OH213793   1.390   3.578   0.124
 4610TIP3    H113794   1.386   3.597   0.030
 4610TIP3    H213795   1.439   3.496   0.129
 4611TIP3   OH213796   0.633   3.756   1.956
 4611TIP3    H113797   0.690   3.745   2.032
 4611TIP3    H213798   0.688   3.795   1.889
 4612TIP3   OH213799   6.549   5.117   1.519
 4612TIP3    H113800   6.588   5.135   1.433
 4612TIP3    H213801   6.527   5.024   1.516
 4613TIP3   OH213802   4.291   4.442   4.925
 4613TIP3    H113803   4.267   4.373   4.988
 4613TIP3    H213804   4.251   4.521   4.961
 4614TIP3   OH213805   1.587   4.258   5.525
 4614TIP3    H113806   1.608   4.242   5.616
 4614TIP3    H213807   1.591   4.172   5.483
 4615TIP3   OH213808   1.484   6.481   1.951
 4615TIP3    H113809   1.561   6.491   2.006
 4615TIP3    H213810   1.432   6.412   1.994
 4616TIP3   OH213811   1.263   6.535   2.820
 4616TIP3    H113812   1.180   6.542   2.867
 4616TIP3    H213813   1.272   6.441   2.801
 4617TIP3   OH213814   4.860   6.117   4.275
 4617TIP3    H113815   4.904   6.191   4.232
 4617TIP3    H213816   4.895   6.117   4.364
 4618TIP3   OH213817   4.396   5.644   4.425
 4618TIP3    H113818   4.379   5.556   4.391
 4618TIP3    H213819   4.450   5.629   4.502
 4619TIP3   OH213820   5.254   1.730   5.243
 4619TIP3    H113821   5.211   1.662   5.193
 4619TIP3    H213822   5.276   1.689   5.327
 4620TIP3   OH213823   6.782   2.883   0.637
 4620TIP3    H113824   6.746   2.806   0.593
 4620TIP3    H213825   6.876   2.880   0.618
 4621TIP3   OH213826   3.057   4.479   0.542
 4621TIP3    H113827   3.094   4.445   0.461
 4621TIP3    H213828   3.133   4.504   0.595
 4622TIP3   OH213829   2.577   4.114   1.966
 4622TIP3    H113830   2.561   4.066   1.884
 4622TIP3    H213831   2.499   4.170   1.975
 4623TIP3   OH213832   1.791   6.318   4.084
 4623TIP3    H113833   1.772   6.284   3.996
 4623TIP3    H213834   1.714   6.293   4.136
 4624TIP3   OH213835   5.190   1.734   4.052
 4624TIP3    H113836   5.176   1.685   4.133
 4624TIP3    H213837   5.277   1.706   4.023
 4625TIP3   OH213838   2.548   5.067   4.483
 4625TIP3    H113839   2.571   5.059   4.576
 4625TIP3    H213840   2.532   5.161   4.471
 4626TIP3   OH213841   2.693   1.558   4.526
 4626TIP3    H113842   2.599   1.551   4.538
 4626TIP3    H213843   2.731   1.523   4.606
 4627TIP3   OH213844   3.662   5.027   3.537
 4627TIP3    H113845   3.586   5.079   3.512
 4627TIP3    H213846   3.736   5.088   3.532
 4628TIP3   OH213847   4.669   4.315   0.250
 4628TIP3    H113848   4.666   4.245   0.185
 4628TIP3    H213849   4.710   4.388   0.203
 4629TIP3   OH213850   0.670   5.888   2.598
 4629TIP3    H113851   0.626   5.803   2.593
 4629TIP3    H213852   0.601   5.951   2.578
 4630TIP3   OH213853   0.619   6.606   4.742
 4630TIP3    H113854   0.653   6.552   4.814
 4630TIP3    H213855   0.679   6.591   4.670
 4631TIP3   OH213856   5.679   4.246   3.379
 4631TIP3    H113857   5.592   4.210   3.398
 4631TIP3    H213858   5.664   4.311   3.311
 4632TIP3   OH213859   3.396   4.229   2.164
 4632TIP3    H113860   3.420   4.148   2.120
 4632TIP3    H213861   3.427   4.219   2.254
 4633TIP3   OH213862   5.694   5.940   3.797
 4633TIP3    H113863   5.662   6.010   3.740
 4633TIP3    H213864   5.667   5.860   3.753
 4634TIP3   OH213865   4.444   2.338   4.998
 4634TIP3    H113866   4.528   2.301   4.972
 4634TIP3    H213867   4.427   2.300   5.084
 4635TIP3   OH213868   5.091   6.250   1.836
 4635TIP3    H113869   5.061   6.199   1.912
 4635TIP3    H213870   5.106   6.338   1.871
 4636TIP3   OH213871   0.058   2.527   4.509
 4636TIP3    H113872   0.092   2.576   4.434
 4636TIP3    H213873  -0.005   2.587   4.550
 4637TIP3   OH213874   3.632   6.026   3.306
 4637TIP3    H113875   3.714   5.976   3.302
 4637TIP3    H213876   3.658   6.112   3.338
 4638TIP3   OH213877   3.552   0.158   2.468
 4638TIP3    H113878   3.580   0.146   2.559
 4638TIP3    H213879   3.519   0.248   2.465
 4639TIP3   OH213880   6.273   3.491   0.294
 4639TIP3    H113881   6.295   3.412   0.245
 4639TIP3    H213882   6.335   3.491   0.368
 4640TIP3   OH213883   3.609   3.231   1.363
 4640TIP3    H113884   3.631   3.152   1.313
 4640TIP3    H213885   3.664   3.225   1.441
 4641TIP3   OH213886   6.677   5.373   0.266
 4641TIP3    H113887   6.689   5.360   0.172
 4641TIP3    H213888   6.614   5.307   0.292
 4642TIP3   OH213889   1.710   0.067   5.650
 4642TIP3    H113890   1.745  -0.021   5.666
 4642TIP3    H213891   1.670   0.092   5.734
 4643TIP3   OH213892   4.788   5.335   2.287
 4643TIP3    H113893   4.696   5.358   2.290
 4643TIP3    H213894   4.832   5.406   2.334
 4644TIP3   OH213895   4.086   3.580   5.850
 4644TIP3    H113896   4.078   3.595   5.944
 4644TIP3    H213897   4.041   3.655   5.810
 4645TIP3   OH213898   1.073   6.472   0.269
 4645TIP3    H113899   1.021   6.431   0.199
 4645TIP3    H213900   1.158   6.429   0.263
 4646TIP3   OH213901   5.514   0.978   0.374
 4646TIP3    H113902   5.527   1.000   0.281
 4646TIP3    H213903   5.459   0.900   0.372
 4647TIP3   OH213904   2.250   0.141   1.624
 4647TIP3    H113905   2.259   0.109   1.714
 4647TIP3    H213906   2.272   0.234   1.630
 4648TIP3   OH213907   6.023   4.190   2.727
 4648TIP3    H113908   6.016   4.283   2.750
 4648TIP3    H213909   6.016   4.188   2.631
 4649TIP3   OH213910   6.917   6.117   2.450
 4649TIP3    H113911   6.826   6.136   2.472
 4649TIP3    H213912   6.915   6.098   2.356
 4650TIP3   OH213913   5.728   6.744   1.964
 4650TIP3    H113914   5.798   6.678   1.960
 4650TIP3    H213915   5.742   6.797   1.884
 4651TIP3   OH213916   5.471   5.064   2.679
 4651TIP3    H113917   5.548   5.070   2.623
 4651TIP3    H213918   5.397   5.084   2.621
 4652TIP3   OH213919   5.791   6.726   5.185
 4652TIP3    H113920   5.727   6.706   5.253
 4652TIP3    H213921   5.741   6.773   5.118
 4653TIP3   OH213922   1.392   6.072   1.959
 4653TIP3    H113923   1.415   5.993   2.007
 4653TIP3    H213924   1.427   6.144   2.011
 4654TIP3   OH213925   0.990   0.371   3.317
 4654TIP3    H113926   0.966   0.454   3.358
 4654TIP3    H213927   0.978   0.386   3.223
 4655TIP3   OH213928   3.656   1.471   2.204
 4655TIP3    H113929   3.585   1.426   2.250
 4655TIP3    H213930   3.625   1.561   2.193
 4656TIP3   OH213931   3.751   5.913   5.777
 4656TIP3    H113932   3.745   5.850   5.706
 4656TIP3    H213933   3.663   5.917   5.814
 4657TIP3   OH213934   3.085   1.675   3.552
 4657TIP3    H113935   3.028   1.674   3.630
 4657TIP3    H213936   3.055   1.600   3.500
 4658TIP3   OH213937   6.718   2.651   5.361
 4658TIP3    H113938   6.718   2.668   5.455
 4658TIP3    H213939   6.699   2.558   5.353
 4659TIP3   OH213940   3.031   0.876   2.382
 4659TIP3    H113941   2.983   0.924   2.314
 4659TIP3    H213942   3.025   0.932   2.460
 4660TIP3   OH213943   1.471   2.844   1.668
 4660TIP3    H113944   1.430   2.808   1.590
 4660TIP3    H213945   1.425   2.803   1.741
 4661TIP3   OH213946   6.967   3.914   1.834
 4661TIP3    H113947   6.924   3.999   1.822
 4661TIP3    H213948   7.042   3.917   1.774
 4662TIP3   OH213949   3.098   6.590   1.476
 4662TIP3    H113950   3.073   6.657   1.412
 4662TIP3    H213951   3.171   6.629   1.524
 4663TIP3   OH213952   4.360   6.132   0.052
 4663TIP3    H113953   4.357   6.036   0.053
 4663TIP3    H213954   4.395   6.155   0.139
 4664TIP3   OH213955   3.333   5.887   0.816
 4664TIP3    H113956   3.304   5.912   0.904
 4664TIP3    H213957   3.396   5.818   0.831
 4665TIP3   OH213958   7.187   5.526   5.279
 4665TIP3    H113959   7.129   5.595   5.246
 4665TIP3    H213960   7.195   5.543   5.372
 4666TIP3   OH213961   3.347   3.022   0.705
 4666TIP3    H113962   3.294   2.963   0.653
 4666TIP3    H213963   3.324   3.110   0.673
 4667TIP3   OH213964   4.701   6.613   0.987
 4667TIP3    H113965   4.716   6.545   1.052
 4667TIP3    H213966   4.612   6.598   0.956
 4668TIP3   OH213967   3.856   2.331   0.917
 4668TIP3    H113968   3.786   2.267   0.903
 4668TIP3    H213969   3.919   2.286   0.972
 4669TIP3   OH213970   4.361   6.700   2.708
 4669TIP3    H113971   4.276   6.696   2.753
 4669TIP3    H213972   4.417   6.750   2.766
 4670TIP3   OH213973   3.818   3.784   3.331
 4670TIP3    H113974   3.733   3.765   3.371
 4670TIP3    H213975   3.869   3.704   3.345
 4671TIP3   OH213976   5.882   2.228   5.888
 4671TIP3    H113977   5.792   2.231   5.855
 4671TIP3    H213978   5.929   2.176   5.823
 4672TIP3   OH213979   5.978   1.408   3.217
 4672TIP3    H113980   5.979   1.503   3.205
 4672TIP3    H213981   5.944   1.374   3.135
 4673TIP3   OH213982   7.101   0.637   3.889
 4673TIP3    H113983   7.012   0.628   3.922
 4673TIP3    H213984   7.113   0.563   3.830
 4674TIP3   OH213985   5.744   4.193   0.446
 4674TIP3    H113986   5.718   4.281   0.422
 4674TIP3    H213987   5.699   4.176   0.529
 4675TIP3   OH213988   2.122   6.384   3.168
 4675TIP3    H113989   2.053   6.383   3.234
 4675TIP3    H213990   2.194   6.432   3.210
 4676TIP3   OH213991   1.284   2.591   4.695
 4676TIP3    H113992   1.291   2.543   4.778
 4676TIP3    H213993   1.243   2.528   4.635
 4677TIP3   OH213994   4.721   5.282   2.018
 4677TIP3    H113995   4.796   5.236   1.981
 4677TIP3    H213996   4.754   5.324   2.097
 4678TIP3   OH213997   3.966   6.112   5.582
 4678TIP3    H113998   4.031   6.042   5.585
 4678TIP3    H213999   3.947   6.131   5.674
 4679TIP3   OH214000   1.422   2.057   0.730
 4679TIP3    H114001   1.516   2.064   0.720
 4679TIP3    H214002   1.386   2.078   0.644
 4680TIP3   OH214003   3.910   3.055   1.395
 4680TIP3    H114004   3.867   3.034   1.478
 4680TIP3    H214005   3.891   2.980   1.338
 4681TIP3   OH214006   2.431   6.517   5.634
 4681TIP3    H114007   2.490   6.450   5.598
 4681TIP3    H214008   2.478   6.551   5.710
 4682TIP3   OH214009   5.829   3.130   4.311
 4682TIP3    H114010   5.757   3.173   4.358
 4682TIP3    H214011   5.905   3.187   4.326
 4683TIP3   OH214012   7.053   0.738   4.233
 4683TIP3    H114013   7.057   0.815   4.177
 4683TIP3    H214014   6.991   0.680   4.189
 4684TIP3   OH214015   6.291   3.100   2.775
 4684TIP3    H114016   6.241   3.051   2.839
 4684TIP3    H214017   6.371   3.049   2.761
 4685TIP3   OH214018   5.486   4.031   2.876
 4685TIP3    H114019   5.529   4.063   2.955
 4685TIP3    H214020   5.527   3.947   2.859
 4686TIP3   OH214021   0.752   3.082   4.703
 4686TIP3    H114022   0.771   3.027   4.780
 4686TIP3    H214023   0.686   3.032   4.654
 4687TIP3   OH214024   0.966   1.140   2.460
 4687TIP3    H114025   1.016   1.179   2.388
 4687TIP3    H214026   0.875   1.165   2.443
 4688TIP3   OH214027   5.817   1.132   0.190
 4688TIP3    H114028   5.905   1.148   0.156
 4688TIP3    H214029   5.776   1.218   0.193
 4689TIP3   OH214030   5.857   5.428   3.190
 4689TIP3    H114031   5.898   5.348   3.223
 4689TIP3    H214032   5.771   5.400   3.159
 4690TIP3   OH214033   2.689   4.918   3.299
 4690TIP3    H114034   2.775   4.875   3.304
 4690TIP3    H214035   2.688   4.960   3.213
 4691TIP3   OH214036   4.554   3.567   4.763
 4691TIP3    H114037   4.512   3.649   4.788
 4691TIP3    H214038   4.511   3.501   4.816
 4692TIP3   OH214039   3.376   6.715   4.950
 4692TIP3    H114040   3.314   6.655   4.991
 4692TIP3    H214041   3.387   6.786   5.014
 4693TIP3   OH214042   3.817   5.062   2.491
 4693TIP3    H114043   3.878   5.040   2.420
 4693TIP3    H214044   3.757   4.988   2.496
 4694TIP3   OH214045   6.318   4.003   5.746
 4694TIP3    H114046   6.305   4.087   5.790
 4694TIP3    H214047   6.234   3.957   5.756
 4695TIP3   OH214048   1.930   3.516   4.629
 4695TIP3    H114049   1.916   3.477   4.542
 4695TIP3    H214050   2.022   3.541   4.629
 4696TIP3   OH214051   6.007   3.407   4.129
 4696TIP3    H114052   6.002   3.354   4.209
 4696TIP3    H214053   6.000   3.497   4.159
 4697TIP3   OH214054   3.530   4.193   2.414
 4697TIP3    H114055   3.593   4.261   2.391
 4697TIP3    H214056   3.581   4.112   2.415
 4698TIP3   OH214057   4.295   4.622   2.854
 4698TIP3    H114058   4.347   4.702   2.856
 4698TIP3    H214059   4.248   4.622   2.937
 4699TIP3   OH214060   6.218   6.383   0.335
 4699TIP3    H114061   6.125   6.405   0.343
 4699TIP3    H214062   6.261   6.436   0.401
 4700TIP3   OH214063   6.671   3.977   0.356
 4700TIP3    H114064   6.654   4.006   0.267
 4700TIP3    H214065   6.752   4.023   0.381
 4701TIP3   OH214066   5.830   6.617   3.051
 4701TIP3    H114067   5.918   6.613   3.015
 4701TIP3    H214068   5.817   6.531   3.093
 4702TIP3   OH214069   1.576   2.277   3.974
 4702TIP3    H114070   1.575   2.366   3.939
 4702TIP3    H214071   1.617   2.286   4.060
 4703TIP3   OH214072   2.499   5.979   2.935
 4703TIP3    H114073   2.469   5.974   2.844
 4703TIP3    H214074   2.497   6.072   2.956
 4704TIP3   OH214075   1.154   3.063   2.950
 4704TIP3    H114076   1.147   3.052   2.856
 4704TIP3    H214077   1.084   3.007   2.986
 4705TIP3   OH214078   3.374   6.413   3.336
 4705TIP3    H114079   3.302   6.475   3.347
 4705TIP3    H214080   3.435   6.457   3.278
 4706TIP3   OH214081   6.215   4.363   0.527
 4706TIP3    H114082   6.271   4.408   0.463
 4706TIP3    H214083   6.184   4.285   0.482
 4707TIP3   OH214084   3.636   0.089   4.045
 4707TIP3    H114085   3.664   0.001   4.072
 4707TIP3    H214086   3.571   0.073   3.976
 4708TIP3   OH214087   0.229   2.135   4.543
 4708TIP3    H114088   0.292   2.102   4.479
 4708TIP3    H214089   0.229   2.070   4.613
 4709TIP3   OH214090   1.529   6.556   0.839
 4709TIP3    H114091   1.545   6.529   0.749
 4709TIP3    H214092   1.612   6.593   0.868
 4710TIP3   OH214093   6.466   1.062   2.350
 4710TIP3    H114094   6.552   1.044   2.386
 4710TIP3    H214095   6.465   1.157   2.337
 4711TIP3   OH214096   0.557   0.421   2.601
 4711TIP3    H114097   0.650   0.430   2.581
 4711TIP3    H214098   0.545   0.328   2.617
 4712TIP3   OH214099   6.503   0.014   2.941
 4712TIP3    H114100   6.522   0.099   2.981
 4712TIP3    H214101   6.410  -0.001   2.961
 4713TIP3   OH214102   0.078   0.668   3.200
 4713TIP3    H114103   0.142   0.740   3.207
 4713TIP3    H214104   0.124   0.600   3.151
 4714TIP3   OH214105   6.059   2.759   0.676
 4714TIP3    H114106   6.098   2.692   0.620
 4714TIP3    H214107   5.975   2.780   0.633
 4715TIP3   OH214108   3.208   6.571   5.122
 4715TIP3    H114109   3.114   6.590   5.125
 4715TIP3    H214110   3.234   6.561   5.214
 4716TIP3   OH214111   6.333   3.465   4.665
 4716TIP3    H114112   6.366   3.546   4.705
 4716TIP3    H214113   6.282   3.424   4.735
 4717TIP3   OH214114   6.541   0.879   2.536
 4717TIP3    H114115   6.556   0.803   2.479
 4717TIP3    H214116   6.467   0.924   2.497
 4718TIP3   OH214117   4.779   0.024   0.502
 4718TIP3    H114118   4.761   0.107   0.546
 4718TIP3    H214119   4.715   0.019   0.431
 4719TIP3   OH214120   6.930   0.341   5.802
 4719TIP3    H114121   7.007   0.388   5.770
 4719TIP3    H214122   6.858   0.374   5.746
 4720TIP3   OH214123   1.596   0.956   4.530
 4720TIP3    H114124   1.593   0.863   4.553
 4720TIP3    H214125   1.525   0.995   4.581
 4721TIP3   OH214126   3.379   2.165   1.469
 4721TIP3    H114127   3.387   2.089   1.411
 4721TIP3    H214128   3.397   2.130   1.557
 4722TIP3   OH214129   7.100   6.346   0.063
 4722TIP3    H114130   7.007   6.350   0.039
 4722TIP3    H214131   7.123   6.436   0.085
 4723TIP3   OH214132   3.266   6.617   0.835
 4723TIP3    H114133   3.217   6.649   0.911
 4723TIP3    H214134   3.314   6.541   0.866
 4724TIP3   OH214135   2.113   2.419   4.742
 4724TIP3    H114136   2.040   2.475   4.715
 4724TIP3    H214137   2.189   2.457   4.699
 4725TIP3   OH214138   1.826   4.997   2.128
 4725TIP3    H114139   1.831   5.055   2.052
 4725TIP3    H214140   1.895   5.027   2.187
 4726TIP3   OH214141   1.696   3.074   5.140
 4726TIP3    H114142   1.642   3.012   5.092
 4726TIP3    H214143   1.722   3.027   5.219
 4727TIP3   OH214144   6.267   2.599   4.479
 4727TIP3    H114145   6.182   2.566   4.451
 4727TIP3    H214146   6.247   2.668   4.542
 4728TIP3   OH214147   4.942   6.526   1.245
 4728TIP3    H114148   4.933   6.600   1.305
 4728TIP3    H214149   5.028   6.537   1.205
 4729TIP3   OH214150   3.714   0.759   2.370
 4729TIP3    H114151   3.781   0.712   2.419
 4729TIP3    H214152   3.747   0.760   2.280
 4730TIP3   OH214153   3.032   1.072   2.149
 4730TIP3    H114154   3.034   1.016   2.071
 4730TIP3    H214155   3.123   1.098   2.163
 4731TIP3   OH214156   5.444   0.319   0.596
 4731TIP3    H114157   5.474   0.264   0.668
 4731TIP3    H214158   5.518   0.321   0.535
 4732TIP3   OH214159   0.961   0.585   1.503
 4732TIP3    H114160   0.939   0.625   1.587
 4732TIP3    H214161   1.014   0.509   1.526
 4733TIP3   OH214162   3.459   2.227   5.692
 4733TIP3    H114163   3.508   2.280   5.755
 4733TIP3    H214164   3.368   2.255   5.703
 4734TIP3   OH214165   0.211   3.488   5.825
 4734TIP3    H114166   0.156   3.542   5.768
 4734TIP3    H214167   0.170   3.402   5.823
 4735TIP3   OH214168   7.203   4.866   1.517
 4735TIP3    H114169   7.172   4.875   1.427
 4735TIP3    H214170   7.297   4.853   1.509
 4736TIP3   OH214171   0.834   0.986   1.680
 4736TIP3    H114172   0.903   1.042   1.716
 4736TIP3    H214173   0.753   1.034   1.694
 4737TIP3   OH214174   0.744   4.064   2.665
 4737TIP3    H114175   0.655   4.072   2.631
 4737TIP3    H214176   0.798   4.111   2.602
 4738TIP3   OH214177   4.527   6.287   5.352
 4738TIP3    H114178   4.450   6.230   5.343
 4738TIP3    H214179   4.599   6.235   5.316
 4739TIP3   OH214180   5.452   4.589   1.606
 4739TIP3    H114181   5.544   4.580   1.582
 4739TIP3    H214182   5.450   4.575   1.701
 4740TIP3   OH214183   5.349   6.651   3.202
 4740TIP3    H114184   5.342   6.584   3.270
 4740TIP3    H214185   5.439   6.684   3.210
 4741TIP3   OH214186   1.543   0.954   3.183
 4741TIP3    H114187   1.579   0.924   3.266
 4741TIP3    H214188   1.582   1.040   3.169
 4742TIP3   OH214189   4.588   5.099   4.488
 4742TIP3    H114190   4.534   5.130   4.416
 4742TIP3    H214191   4.586   5.004   4.481
 4743TIP3   OH214192   4.366   4.212   5.328
 4743TIP3    H114193   4.335   4.292   5.285
 4743TIP3    H214194   4.425   4.172   5.264
 4744TIP3   OH214195   3.900   6.765   0.478
 4744TIP3    H114196   3.837   6.718   0.532
 4744TIP3    H214197   3.912   6.710   0.401
 4745TIP3   OH214198   0.683   5.217   3.587
 4745TIP3    H114199   0.773   5.213   3.554
 4745TIP3    H214200   0.641   5.138   3.552
 4746TIP3   OH214201   0.758   5.030   4.633
 4746TIP3    H114202   0.766   5.096   4.564
 4746TIP3    H214203   0.690   4.971   4.601
 4747TIP3   OH214204   2.033   5.972   0.634
 4747TIP3    H114205   1.978   6.013   0.700
 4747TIP3    H214206   1.986   5.986   0.552
 4748TIP3   OH214207   2.052   0.187   2.775
 4748TIP3    H114208   1.989   0.136   2.827
 4748TIP3    H214209   2.000   0.225   2.704
 4749TIP3   OH214210   0.448   0.217   2.768
 4749TIP3    H114211   0.487   0.130   2.772
 4749TIP3    H214212   0.479   0.261   2.848
 4750TIP3   OH214213   7.073   5.479   2.613
 4750TIP3    H114214   7.006   5.456   2.677
 4750TIP3    H214215   7.058   5.420   2.540
 4751TIP3   OH214216   3.357   4.982   0.182
 4751TIP3    H114217   3.346   4.941   0.096
 4751TIP3    H214218   3.324   5.071   0.170
 4752TIP3   OH214219   4.351   3.145   3.231
 4752TIP3    H114220   4.336   3.156   3.137
 4752TIP3    H214221   4.438   3.183   3.245
 4753TIP3   OH214222   6.791   6.583   2.784
 4753TIP3    H114223   6.812   6.609   2.874
 4753TIP3    H214224   6.821   6.492   2.777
 4754TIP3   OH214225   5.268   1.660   0.792
 4754TIP3    H114226   5.246   1.572   0.763
 4754TIP3    H214227   5.185   1.707   0.790
 4755TIP3   OH214228   4.077   4.602   3.476
 4755TIP3    H114229   4.013   4.534   3.453
 4755TIP3    H214230   4.143   4.597   3.407
 4756TIP3   OH214231   1.514   1.355   1.948
 4756TIP3    H114232   1.511   1.389   2.038
 4756TIP3    H214233   1.607   1.353   1.926
 4757TIP3   OH214234   1.635   3.743   0.576
 4757TIP3    H114235   1.719   3.775   0.544
 4757TIP3    H214236   1.580   3.738   0.498
 4758TIP3   OH214237   2.702   1.087   1.182
 4758TIP3    H114238   2.647   1.127   1.249
 4758TIP3    H214239   2.791   1.112   1.207
 4759TIP3   OH214240   6.580   6.223   2.264
 4759TIP3    H114241   6.581   6.243   2.170
 4759TIP3    H214242   6.636   6.291   2.303
 4760TIP3   OH214243   2.869   0.857   1.972
 4760TIP3    H114244   2.880   0.859   1.877
 4760TIP3    H214245   2.802   0.790   1.987
 4761TIP3   OH214246   0.047   2.287   1.103
 4761TIP3    H114247   0.143   2.289   1.111
 4761TIP3    H214248   0.025   2.366   1.055
 4762TIP3   OH214249   7.100   6.322   2.281
 4762TIP3    H114250   7.057   6.245   2.320
 4762TIP3    H214251   7.133   6.291   2.197
 4763TIP3   OH214252   5.892   0.742   3.625
 4763TIP3    H114253   5.802   0.724   3.599
 4763TIP3    H214254   5.939   0.749   3.542
 4764TIP3   OH214255   4.749   3.735   0.035
 4764TIP3    H114256   4.807   3.725  -0.041
 4764TIP3    H214257   4.809   3.733   0.110
 4765TIP3   OH214258   6.698   4.706   5.156
 4765TIP3    H114259   6.789   4.680   5.169
 4765TIP3    H214260   6.669   4.656   5.080
 4766TIP3   OH214261   1.597   0.620   2.439
 4766TIP3    H114262   1.529   0.643   2.376
 4766TIP3    H214263   1.613   0.701   2.487
 4767TIP3   OH214264   0.585   2.162   3.081
 4767TIP3    H114265   0.560   2.253   3.097
 4767TIP3    H214266   0.571   2.150   2.987
 4768TIP3   OH214267   6.983   6.496   4.213
 4768TIP3    H114268   6.995   6.478   4.307
 4768TIP3    H214269   7.071   6.519   4.182
 4769TIP3   OH214270   6.803   3.438   5.667
 4769TIP3    H114271   6.853   3.376   5.614
 4769TIP3    H214272   6.869   3.497   5.703
 4770TIP3   OH214273   4.117   0.591   0.416
 4770TIP3    H114274   4.052   0.612   0.484
 4770TIP3    H214275   4.072   0.608   0.334
 4771TIP3   OH214276   4.980   4.216   0.164
 4771TIP3    H114277   5.013   4.130   0.191
 4771TIP3    H214278   4.901   4.196   0.113
 4772TIP3   OH214279   6.161   2.303   1.138
 4772TIP3    H114280   6.231   2.323   1.076
 4772TIP3    H214281   6.177   2.362   1.212
 4773TIP3   OH214282   2.814   4.197   3.170
 4773TIP3    H114283   2.893   4.212   3.222
 4773TIP3    H214284   2.829   4.112   3.128
 4774TIP3   OH214285   1.550   3.775   1.596
 4774TIP3    H114286   1.541   3.691   1.552
 4774TIP3    H214287   1.460   3.806   1.606
 4775TIP3   OH214288   1.516   5.610   3.572
 4775TIP3    H114289   1.471   5.693   3.556
 4775TIP3    H214290   1.487   5.584   3.659
 4776TIP3   OH214291   6.061   6.345   1.268
 4776TIP3    H114292   6.071   6.392   1.351
 4776TIP3    H214293   5.984   6.384   1.227
 4777TIP3   OH214294   1.907   2.565   0.911
 4777TIP3    H114295   1.851   2.593   0.839
 4777TIP3    H214296   1.986   2.618   0.903
 4778TIP3   OH214297   1.966   4.268   1.858
 4778TIP3    H114298   2.007   4.354   1.849
 4778TIP3    H214299   2.034   4.214   1.899
 4779TIP3   OH214300   4.957   1.727   1.267
 4779TIP3    H114301   4.947   1.812   1.311
 4779TIP3    H214302   5.052   1.713   1.265
 4780TIP3   OH214303   2.225   2.171   4.742
 4780TIP3    H114304   2.222   2.147   4.834
 4780TIP3    H214305   2.183   2.257   4.738
 4781TIP3   OH214306   3.257   4.031   2.798
 4781TIP3    H114307   3.350   4.044   2.779
 4781TIP3    H214308   3.212   4.063   2.720
 4782TIP3   OH214309   2.027   6.189   4.788
 4782TIP3    H114310   2.001   6.105   4.750
 4782TIP3    H214311   2.053   6.168   4.877
 4783TIP3   OH214312   1.176   3.427   2.636
 4783TIP3    H114313   1.107   3.361   2.640
 4783TIP3    H214314   1.192   3.451   2.727
 4784TIP3   OH214315   0.047   3.989   2.916
 4784TIP3    H114316   0.006   3.944   2.989
 4784TIP3    H214317  -0.021   3.993   2.849
 4785TIP3   OH214318   7.207   1.747   2.966
 4785TIP3    H114319   7.148   1.683   3.006
 4785TIP3    H214320   7.287   1.697   2.948
 4786TIP3   OH214321  -0.008   5.086   2.895
 4786TIP3    H114322   0.043   5.150   2.845
 4786TIP3    H214323  -0.029   5.131   2.977
 4787TIP3   OH214324   2.597   4.611   0.670
 4787TIP3    H114325   2.556   4.678   0.615
 4787TIP3    H214326   2.671   4.579   0.618
 4788TIP3   OH214327   5.377   0.236   2.982
 4788TIP3    H114328   5.419   0.222   2.897
 4788TIP3    H214329   5.375   0.149   3.022
 4789TIP3   OH214330   0.100   0.741   3.635
 4789TIP3    H114331   0.163   0.810   3.655
 4789TIP3    H214332   0.152   0.662   3.628
 4790TIP3   OH214333   1.621   5.463   0.534
 4790TIP3    H114334   1.592   5.483   0.624
 4790TIP3    H214335   1.550   5.410   0.498
 4791TIP3   OH214336   6.612   2.443   2.465
 4791TIP3    H114337   6.707   2.452   2.475
 4791TIP3    H214338   6.591   2.500   2.391
 4792TIP3   OH214339   2.512   1.383   5.122
 4792TIP3    H114340   2.479   1.469   5.096
 4792TIP3    H214341   2.588   1.368   5.066
 4793TIP3   OH214342   5.065   0.063   2.054
 4793TIP3    H114343   5.027   0.060   2.142
 4793TIP3    H214344   5.157   0.085   2.068
 4794TIP3   OH214345   4.380   1.103   5.434
 4794TIP3    H114346   4.293   1.113   5.474
 4794TIP3    H214347   4.364   1.106   5.340
 4795TIP3   OH214348   4.945   2.428   0.390
 4795TIP3    H114349   4.912   2.372   0.321
 4795TIP3    H214350   5.039   2.408   0.395
 4796TIP3   OH214351   6.685   2.785   2.835
 4796TIP3    H114352   6.668   2.823   2.921
 4796TIP3    H214353   6.648   2.849   2.773
 4797TIP3   OH214354   5.065   1.929   2.552
 4797TIP3    H114355   5.133   1.995   2.539
 4797TIP3    H214356   4.983   1.978   2.548
 4798TIP3   OH214357   0.482   6.437   3.100
 4798TIP3    H114358   0.471   6.351   3.058
 4798TIP3    H214359   0.461   6.500   3.031
 4799TIP3   OH214360   4.862   2.324   2.444
 4799TIP3    H114361   4.907   2.308   2.361
 4799TIP3    H214362   4.819   2.408   2.432
 4800TIP3   OH214363   0.308   1.407   2.717
 4800TIP3    H114364   0.305   1.358   2.799
 4800TIP3    H214365   0.222   1.393   2.678
 4801TIP3   OH214366   1.788   5.992   3.524
 4801TIP3    H114367   1.876   6.021   3.549
 4801TIP3    H214368   1.803   5.919   3.464
 4802TIP3   OH214369   1.990   6.476   3.952
 4802TIP3    H114370   2.007   6.555   4.004
 4802TIP3    H214371   1.952   6.414   4.013
 4803TIP3   OH214372   2.615   0.020   1.375
 4803TIP3    H114373   2.632  -0.038   1.300
 4803TIP3    H214374   2.696   0.069   1.387
 4804TIP3   OH214375   6.320   0.370   1.147
 4804TIP3    H114376   6.390   0.333   1.093
 4804TIP3    H214377   6.261   0.297   1.162
 4805TIP3   OH214378   6.228   6.634   5.586
 4805TIP3    H114379   6.137   6.603   5.593
 4805TIP3    H214380   6.234   6.704   5.652
 4806TIP3   OH214381   1.179   4.534   2.479
 4806TIP3    H114382   1.143   4.446   2.467
 4806TIP3    H214383   1.113   4.580   2.531
 4807TIP3   OH214384   0.973   1.089   0.082
 4807TIP3    H114385   1.004   1.155   0.020
 4807TIP3    H214386   0.931   1.022   0.027
 4808TIP3   OH214387   0.510   3.262   2.746
 4808TIP3    H114388   0.576   3.332   2.745
 4808TIP3    H214389   0.547   3.192   2.692
 4809TIP3   OH214390   4.977   2.688   3.516
 4809TIP3    H114391   5.023   2.609   3.546
 4809TIP3    H214392   5.037   2.760   3.537
 4810TIP3   OH214393   4.688   0.659   1.621
 4810TIP3    H114394   4.722   0.727   1.679
 4810TIP3    H214395   4.596   0.683   1.607
 4811TIP3   OH214396   0.472   1.484   2.423
 4811TIP3    H114397   0.441   1.504   2.512
 4811TIP3    H214398   0.565   1.509   2.424
 4812TIP3   OH214399   3.735   1.134   0.171
 4812TIP3    H114400   3.657   1.185   0.193
 4812TIP3    H214401   3.707   1.043   0.175
 4813TIP3   OH214402   2.883   1.085   3.494
 4813TIP3    H114403   2.856   1.032   3.419
 4813TIP3    H214404   2.925   1.022   3.553
 4814TIP3   OH214405   4.118   4.712   3.095
 4814TIP3    H114406   4.178   4.657   3.145
 4814TIP3    H214407   4.120   4.796   3.140
 4815TIP3   OH214408   1.838   3.954   0.072
 4815TIP3    H114409   1.883   4.018   0.018
 4815TIP3    H214410   1.907   3.916   0.127
 4816TIP3   OH214411   2.400   5.925   3.442
 4816TIP3    H114412   2.398   5.872   3.362
 4816TIP3    H214413   2.398   5.861   3.513
 4817TIP3   OH214414   0.893   6.257   2.262
 4817TIP3    H114415   0.875   6.292   2.175
 4817TIP3    H214416   0.987   6.265   2.273
 4818TIP3   OH214417   6.068   4.808   4.570
 4818TIP3    H114418   6.012   4.877   4.606
 4818TIP3    H214419   6.011   4.759   4.511
 4819TIP3   OH214420   6.939   3.137   3.454
 4819TIP3    H114421   6.884   3.145   3.376
 4819TIP3    H214422   7.028   3.129   3.420
 4820TIP3   OH214423   1.355   6.590   4.593
 4820TIP3    H114424   1.449   6.602   4.602
 4820TIP3    H214425   1.317   6.669   4.630
 4821TIP3   OH214426   6.271   4.720   2.553
 4821TIP3    H114427   6.232   4.788   2.498
 4821TIP3    H214428   6.214   4.714   2.629
 4822TIP3   OH214429   5.932   1.068   3.654
 4822TIP3    H114430   5.972   1.138   3.706
 4822TIP3    H214431   5.884   1.015   3.718
 4823TIP3   OH214432   5.440   1.536   1.524
 4823TIP3    H114433   5.513   1.579   1.480
 4823TIP3    H214434   5.424   1.456   1.474
 4824TIP3   OH214435   6.399   4.930   1.719
 4824TIP3    H114436   6.377   4.849   1.672
 4824TIP3    H214437   6.492   4.921   1.740
 4825TIP3   OH214438   4.851   0.045   1.168
 4825TIP3    H114439   4.894   0.002   1.094
 4825TIP3    H214440   4.815   0.126   1.131
 4826TIP3   OH214441   1.293   0.307   5.673
 4826TIP3    H114442   1.277   0.228   5.724
 4826TIP3    H214443   1.330   0.276   5.590
 4827TIP3   OH214444   3.099   3.741   1.482
 4827TIP3    H114445   3.030   3.694   1.435
 4827TIP3    H214446   3.131   3.805   1.418
 4828TIP3   OH214447   4.233   1.967   1.875
 4828TIP3    H114448   4.250   1.991   1.966
 4828TIP3    H214449   4.320   1.949   1.839
 4829TIP3   OH214450   3.470   6.800   2.304
 4829TIP3    H114451   3.433   6.718   2.272
 4829TIP3    H214452   3.456   6.798   2.399
 4830TIP3   OH214453   5.260   4.906   0.190
 4830TIP3    H114454   5.319   4.936   0.259
 4830TIP3    H214455   5.235   4.818   0.216
 4831TIP3   OH214456   2.980   4.764   5.822
 4831TIP3    H114457   3.037   4.839   5.834
 4831TIP3    H214458   2.939   4.778   5.736
 4832TIP3   OH214459   2.026   5.020   3.192
 4832TIP3    H114460   2.117   5.026   3.162
 4832TIP3    H214461   1.995   4.936   3.157
 4833TIP3   OH214462   3.185   3.749   0.201
 4833TIP3    H114463   3.254   3.683   0.200
 4833TIP3    H214464   3.109   3.706   0.162
 4834TIP3   OH214465   2.312   1.657   2.209
 4834TIP3    H114466   2.308   1.667   2.114
 4834TIP3    H214467   2.340   1.566   2.222
 4835TIP3   OH214468   2.059   1.393   5.747
 4835TIP3    H114469   1.981   1.449   5.750
 4835TIP3    H214470   2.061   1.360   5.657
 4836TIP3   OH214471   1.655   2.398   0.918
 4836TIP3    H114472   1.748   2.420   0.909
 4836TIP3    H214473   1.653   2.302   0.919
 4837TIP3   OH214474   2.728   5.990   1.521
 4837TIP3    H114475   2.655   5.936   1.492
 4837TIP3    H214476   2.801   5.963   1.466
 4838TIP3   OH214477   2.426   2.566   2.611
 4838TIP3    H114478   2.475   2.550   2.692
 4838TIP3    H214479   2.485   2.537   2.541
 4839TIP3   OH214480   7.056   2.719   3.813
 4839TIP3    H114481   7.009   2.753   3.737
 4839TIP3    H214482   7.093   2.636   3.784
 4840TIP3   OH214483   0.915   6.734   2.584
 4840TIP3    H114484   1.000   6.743   2.627
 4840TIP3    H214485   0.935   6.738   2.490
 4841TIP3   OH214486   0.434   2.560   0.859
 4841TIP3    H114487   0.430   2.550   0.764
 4841TIP3    H214488   0.523   2.533   0.882
 4842TIP3   OH214489   7.117   6.738   0.636
 4842TIP3    H114490   7.051   6.672   0.611
 4842TIP3    H214491   7.166   6.696   0.707
 4843TIP3   OH214492   5.999   3.768   5.507
 4843TIP3    H114493   6.008   3.857   5.539
 4843TIP3    H214494   6.070   3.758   5.443
 4844TIP3   OH214495   6.095   1.551   0.239
 4844TIP3    H114496   6.066   1.569   0.149
 4844TIP3    H214497   6.130   1.635   0.270
 4845TIP3   OH214498   0.914   6.674   4.121
 4845TIP3    H114499   0.859   6.599   4.102
 4845TIP3    H214500   0.976   6.678   4.048
 4846TIP3   OH214501   0.367   0.398   5.266
 4846TIP3    H114502   0.390   0.455   5.193
 4846TIP3    H214503   0.450   0.366   5.299
 4847TIP3   OH214504   2.743   1.509   3.063
 4847TIP3    H114505   2.730   1.438   3.125
 4847TIP3    H214506   2.672   1.498   2.999
 4848TIP3   OH214507   2.247   4.050   2.033
 4848TIP3    H114508   2.281   4.131   2.070
 4848TIP3    H214509   2.160   4.040   2.073
 4849TIP3   OH214510   2.424   4.412   2.708
 4849TIP3    H114511   2.467   4.415   2.793
 4849TIP3    H214512   2.447   4.326   2.672
 4850TIP3   OH214513   6.558   5.960   5.007
 4850TIP3    H114514   6.511   6.040   5.030
 4850TIP3    H214515   6.502   5.916   4.944
 4851TIP3   OH214516   4.845   5.679   2.363
 4851TIP3    H114517   4.800   5.763   2.355
 4851TIP3    H214518   4.935   5.697   2.335
 4852TIP3   OH214519   1.323   1.950   3.419
 4852TIP3    H114520   1.227   1.954   3.424
 4852TIP3    H214521   1.343   1.857   3.419
 4853TIP3   OH214522   1.798   6.508   5.583
 4853TIP3    H114523   1.773   6.481   5.494
 4853TIP3    H214524   1.725   6.562   5.613
 4854TIP3   OH214525   6.276   1.692   2.361
 4854TIP3    H114526   6.367   1.718   2.345
 4854TIP3    H214527   6.258   1.720   2.451
 4855TIP3   OH214528   1.103   0.047   5.908
 4855TIP3    H114529   1.169   0.112   5.931
 4855TIP3    H214530   1.036   0.096   5.861
 4856TIP3   OH214531   5.161   3.546   1.126
 4856TIP3    H114532   5.086   3.603   1.144
 4856TIP3    H214533   5.188   3.569   1.037
 4857TIP3   OH214534   4.252   6.079   4.357
 4857TIP3    H114535   4.195   6.141   4.310
 4857TIP3    H214536   4.250   6.110   4.448
 4858TIP3   OH214537   2.732   4.212   2.767
 4858TIP3    H114538   2.780   4.281   2.814
 4858TIP3    H214539   2.707   4.150   2.836
 4859TIP3   OH214540   4.432   5.575   0.747
 4859TIP3    H114541   4.393   5.533   0.823
 4859TIP3    H214542   4.440   5.667   0.772
 4860TIP3   OH214543   5.266   2.882   0.517
 4860TIP3    H114544   5.269   2.792   0.484
 4860TIP3    H214545   5.187   2.884   0.571
 4861TIP3   OH214546   3.970   5.405   4.001
 4861TIP3    H114547   3.983   5.472   4.068
 4861TIP3    H214548   3.935   5.453   3.926
 4862TIP3   OH214549   1.874   6.781   0.625
 4862TIP3    H114550   1.911   6.746   0.544
 4862TIP3    H214551   1.875   6.876   0.612
 4863TIP3   OH214552   0.750   2.701   0.836
 4863TIP3    H114553   0.753   2.710   0.741
 4863TIP3    H214554   0.705   2.779   0.866
 4864TIP3   OH214555   3.297   3.496   1.624
 4864TIP3    H114556   3.339   3.410   1.623
 4864TIP3    H214557   3.227   3.490   1.559
 4865TIP3   OH214558   3.195   1.836   4.691
 4865TIP3    H114559   3.146   1.815   4.612
 4865TIP3    H214560   3.234   1.922   4.674
 4866TIP3   OH214561   4.390   1.594   0.852
 4866TIP3    H114562   4.298   1.599   0.827
 4866TIP3    H214563   4.411   1.682   0.883
 4867TIP3   OH214564   1.758   5.831   2.441
 4867TIP3    H114565   1.709   5.912   2.451
 4867TIP3    H214566   1.718   5.771   2.504
 4868TIP3   OH214567   4.273   5.636   1.186
 4868TIP3    H114568   4.319   5.567   1.234
 4868TIP3    H214569   4.217   5.678   1.252
 4869TIP3   OH214570   4.215   3.823   3.587
 4869TIP3    H114571   4.156   3.890   3.624
 4869TIP3    H214572   4.296   3.834   3.636
 4870TIP3   OH214573   6.697   1.866   5.207
 4870TIP3    H114574   6.764   1.799   5.223
 4870TIP3    H214575   6.654   1.877   5.292
 4871TIP3   OH214576   2.793   2.784   3.646
 4871TIP3    H114577   2.804   2.823   3.733
 4871TIP3    H214578   2.710   2.736   3.651
 4872TIP3   OH214579   1.474   6.373   1.053
 4872TIP3    H114580   1.392   6.364   1.004
 4872TIP3    H214581   1.526   6.434   1.000
 4873TIP3   OH214582   5.603   5.850   2.138
 4873TIP3    H114583   5.551   5.771   2.126
 4873TIP3    H214584   5.652   5.835   2.219
 4874TIP3   OH214585   5.754   3.281   5.330
 4874TIP3    H114586   5.834   3.258   5.377
 4874TIP3    H214587   5.692   3.306   5.399
 4875TIP3   OH214588   1.282   3.357   1.603
 4875TIP3    H114589   1.293   3.373   1.509
 4875TIP3    H214590   1.336   3.280   1.620
 4876TIP3   OH214591   0.290   6.181   0.975
 4876TIP3    H114592   0.354   6.123   1.017
 4876TIP3    H214593   0.222   6.193   1.042
 4877TIP3   OH214594   3.776   3.809   4.869
 4877TIP3    H114595   3.762   3.724   4.826
 4877TIP3    H214596   3.870   3.814   4.883
 4878TIP3   OH214597   4.334   5.420   4.623
 4878TIP3    H114598   4.259   5.418   4.562
 4878TIP3    H214599   4.317   5.495   4.679
 4879TIP3   OH214600   2.499   1.998   3.627
 4879TIP3    H114601   2.428   2.004   3.564
 4879TIP3    H214602   2.579   2.007   3.575
 4880TIP3   OH214603   2.361   4.932   3.315
 4880TIP3    H114604   2.353   4.884   3.232
 4880TIP3    H214605   2.424   5.001   3.297
 4881TIP3   OH214606   0.307   2.205   3.562
 4881TIP3    H114607   0.330   2.262   3.488
 4881TIP3    H214608   0.305   2.117   3.525
 4882TIP3   OH214609   1.866   4.741   5.448
 4882TIP3    H114610   1.914   4.724   5.367
 4882TIP3    H214611   1.861   4.836   5.453
 4883TIP3   OH214612   0.795   1.287   3.977
 4883TIP3    H114613   0.705   1.314   3.996
 4883TIP3    H214614   0.801   1.287   3.882
 4884TIP3   OH214615   4.919   0.796   0.177
 4884TIP3    H114616   5.003   0.831   0.146
 4884TIP3    H214617   4.879   0.756   0.100
 4885TIP3   OH214618   5.562   0.955   3.134
 4885TIP3    H114619   5.641   0.924   3.090
 4885TIP3    H214620   5.548   1.043   3.099
 4886TIP3   OH214621   0.523   5.276   4.639
 4886TIP3    H114622   0.587   5.261   4.569
 4886TIP3    H214623   0.457   5.208   4.626
 4887TIP3   OH214624   0.982   4.109   5.029
 4887TIP3    H114625   1.003   4.124   5.121
 4887TIP3    H214626   0.894   4.074   5.029
 4888TIP3   OH214627   4.785   3.603   2.650
 4888TIP3    H114628   4.756   3.558   2.729
 4888TIP3    H214629   4.820   3.686   2.682
 4889TIP3   OH214630   2.728   1.542   1.553
 4889TIP3    H114631   2.755   1.454   1.581
 4889TIP3    H214632   2.718   1.535   1.458
 4890TIP3   OH214633   2.987   5.496   0.402
 4890TIP3    H114634   3.015   5.548   0.478
 4890TIP3    H214635   3.058   5.435   0.387
 4891TIP3   OH214636   4.116   5.453   3.343
 4891TIP3    H114637   4.110   5.510   3.420
 4891TIP3    H214638   4.198   5.404   3.356
 4892TIP3   OH214639   1.785   0.437   2.446
 4892TIP3    H114640   1.818   0.512   2.494
 4892TIP3    H214641   1.691   0.455   2.435
 4893TIP3   OH214642   2.014   4.246   3.243
 4893TIP3    H114643   2.010   4.166   3.191
 4893TIP3    H214644   2.091   4.292   3.210
 4894TIP3   OH214645   1.906   3.866   1.299
 4894TIP3    H114646   1.836   3.803   1.285
 4894TIP3    H214647   1.986   3.819   1.276
 4895TIP3   OH214648   2.734   2.402   1.611
 4895TIP3    H114649   2.791   2.340   1.657
 4895TIP3    H214650   2.767   2.403   1.521
 4896TIP3   OH214651   6.416   6.583   0.452
 4896TIP3    H114652   6.480   6.579   0.381
 4896TIP3    H214653   6.457   6.536   0.524
 4897TIP3   OH214654   3.297   3.259   1.213
 4897TIP3    H114655   3.218   3.246   1.266
 4897TIP3    H214656   3.369   3.249   1.274
 4898TIP3   OH214657   1.658   4.465   3.863
 4898TIP3    H114658   1.671   4.539   3.922
 4898TIP3    H214659   1.571   4.479   3.826
 4899TIP3   OH214660   0.347   4.092   0.637
 4899TIP3    H114661   0.304   4.108   0.720
 4899TIP3    H214662   0.406   4.166   0.625
 4900TIP3   OH214663   2.909   6.446   4.203
 4900TIP3    H114664   2.834   6.415   4.154
 4900TIP3    H214665   2.871   6.499   4.274
 4901TIP3   OH214666   4.139   2.436   4.396
 4901TIP3    H114667   4.205   2.432   4.327
 4901TIP3    H214668   4.113   2.528   4.399
 4902TIP3   OH214669   4.593   5.047   3.425
 4902TIP3    H114670   4.673   5.095   3.403
 4902TIP3    H214671   4.563   5.087   3.506
 4903TIP3   OH214672   0.529   3.282   1.259
 4903TIP3    H114673   0.485   3.224   1.321
 4903TIP3    H214674   0.608   3.312   1.306
 4904TIP3   OH214675   6.258   0.820   0.563
 4904TIP3    H114676   6.268   0.784   0.651
 4904TIP3    H214677   6.264   0.744   0.505
 4905TIP3   OH214678   4.776   6.553   3.770
 4905TIP3    H114679   4.832   6.488   3.813
 4905TIP3    H214680   4.807   6.637   3.802
 4906TIP3   OH214681   1.267   2.254   4.927
 4906TIP3    H114682   1.350   2.212   4.905
 4906TIP3    H214683   1.292   2.336   4.969
 4907TIP3   OH214684   3.021   5.309   2.446
 4907TIP3    H114685   3.056   5.352   2.368
 4907TIP3    H214686   3.012   5.379   2.510
 4908TIP3   OH214687   0.224   1.906   1.462
 4908TIP3    H114688   0.132   1.932   1.469
 4908TIP3    H214689   0.228   1.851   1.384
 4909TIP3   OH214690   0.568   2.589   3.658
 4909TIP3    H114691   0.591   2.563   3.569
 4909TIP3    H214692   0.488   2.641   3.648
 4910TIP3   OH214693   6.804   0.924   1.144
 4910TIP3    H114694   6.734   0.872   1.184
 4910TIP3    H214695   6.799   0.903   1.051
 4911TIP3   OH214696   2.194   3.293   5.155
 4911TIP3    H114697   2.230   3.352   5.221
 4911TIP3    H214698   2.271   3.256   5.111
 4912TIP3   OH214699  -0.027   5.058   2.177
 4912TIP3    H114700   0.057   5.059   2.224
 4912TIP3    H214701  -0.023   5.134   2.119
 4913TIP3   OH214702   1.619   4.569   4.371
 4913TIP3    H114703   1.554   4.533   4.310
 4913TIP3    H214704   1.702   4.559   4.325
 4914TIP3   OH214705   5.086   1.393   5.282
 4914TIP3    H114706   5.063   1.304   5.307
 4914TIP3    H214707   5.152   1.382   5.213
 4915TIP3   OH214708   0.602   6.363   4.267
 4915TIP3    H114709   0.579   6.297   4.203
 4915TIP3    H214710   0.565   6.331   4.349
 4916TIP3   OH214711   6.221   1.962   3.649
 4916TIP3    H114712   6.138   1.994   3.613
 4916TIP3    H214713   6.195   1.890   3.707
 4917TIP3   OH214714   2.787   2.612   3.371
 4917TIP3    H114715   2.784   2.534   3.425
 4917TIP3    H214716   2.771   2.684   3.431
 4918TIP3   OH214717   0.257   4.977   1.573
 4918TIP3    H114718   0.262   5.042   1.644
 4918TIP3    H214719   0.229   5.027   1.497
 4919TIP3   OH214720   5.544   4.739   0.161
 4919TIP3    H114721   5.616   4.703   0.110
 4919TIP3    H214722   5.496   4.662   0.193
 4920TIP3   OH214723   1.257   1.450   5.892
 4920TIP3    H114724   1.329   1.390   5.874
 4920TIP3    H214725   1.178   1.399   5.872
 4921TIP3   OH214726   2.967   4.082   3.682
 4921TIP3    H114727   2.919   4.034   3.750
 4921TIP3    H214728   3.018   4.014   3.636
 4922TIP3   OH214729   0.977   0.816   5.071
 4922TIP3    H114730   0.940   0.903   5.082
 4922TIP3    H214731   1.050   0.828   5.011
 4923TIP3   OH214732   3.948   2.364   1.926
 4923TIP3    H114733   4.035   2.345   1.961
 4923TIP3    H214734   3.965   2.400   1.839
 4924TIP3   OH214735   2.938   5.575   2.555
 4924TIP3    H114736   2.897   5.568   2.469
 4924TIP3    H214737   2.871   5.616   2.610
 4925TIP3   OH214738   5.413   0.839   0.905
 4925TIP3    H114739   5.400   0.757   0.953
 4925TIP3    H214740   5.387   0.908   0.967
 4926TIP3   OH214741   2.298   5.019   0.657
 4926TIP3    H114742   2.231   4.975   0.711
 4926TIP3    H214743   2.280   5.112   0.669
 4927TIP3   OH214744   0.557   6.773   4.086
 4927TIP3    H114745   0.485   6.733   4.038
 4927TIP3    H214746   0.569   6.718   4.163
 4928TIP3   OH214747   6.454   3.183   3.045
 4928TIP3    H114748   6.449   3.278   3.048
 4928TIP3    H214749   6.381   3.156   2.991
 4929TIP3   OH214750   5.559   3.887   0.800
 4929TIP3    H114751   5.561   3.983   0.804
 4929TIP3    H214752   5.574   3.859   0.890
 4930TIP3   OH214753   0.307   1.866   2.440
 4930TIP3    H114754   0.389   1.837   2.400
 4930TIP3    H214755   0.275   1.789   2.488
 4931TIP3   OH214756   1.220   2.987   3.686
 4931TIP3    H114757   1.208   2.894   3.669
 4931TIP3    H214758   1.216   2.995   3.781
 4932TIP3   OH214759   4.512   4.072   4.536
 4932TIP3    H114760   4.451   4.026   4.478
 4932TIP3    H214761   4.456   4.127   4.591
 4933TIP3   OH214762   5.367   0.236   4.341
 4933TIP3    H114763   5.440   0.253   4.400
 4933TIP3    H214764   5.378   0.298   4.269
 4934TIP3   OH214765   6.166   5.850   3.369
 4934TIP3    H114766   6.092   5.806   3.328
 4934TIP3    H214767   6.207   5.782   3.422
 4935TIP3   OH214768   3.631   4.135   1.862
 4935TIP3    H114769   3.563   4.179   1.812
 4935TIP3    H214770   3.585   4.094   1.935
 4936TIP3   OH214771   6.607   3.960   4.765
 4936TIP3    H114772   6.538   4.025   4.780
 4936TIP3    H214773   6.671   4.005   4.710
 4937TIP3   OH214774   3.568   0.073   1.440
 4937TIP3    H114775   3.549  -0.012   1.479
 4937TIP3    H214776   3.643   0.105   1.490
 4938TIP3   OH214777   1.701   1.457   1.434
 4938TIP3    H114778   1.768   1.498   1.379
 4938TIP3    H214779   1.619   1.498   1.407
 4939TIP3   OH214780   5.462   1.845   4.047
 4939TIP3    H114781   5.541   1.890   4.079
 4939TIP3    H214782   5.491   1.756   4.027
 4940TIP3   OH214783   7.033   5.253   5.819
 4940TIP3    H114784   7.062   5.165   5.799
 4940TIP3    H214785   6.971   5.275   5.750
 4941TIP3   OH214786   2.105   1.299   1.666
 4941TIP3    H114787   2.067   1.298   1.754
 4941TIP3    H214788   2.066   1.224   1.621
 4942TIP3   OH214789   6.465   0.270   5.287
 4942TIP3    H114790   6.414   0.211   5.232
 4942TIP3    H214791   6.400   0.314   5.342
 4943TIP3   OH214792   3.780   5.959   0.515
 4943TIP3    H114793   3.695   5.945   0.471
 4943TIP3    H214794   3.808   6.045   0.485
 4944TIP3   OH214795   1.640   5.690   2.791
 4944TIP3    H114796   1.575   5.738   2.741
 4944TIP3    H214797   1.590   5.624   2.839
 4945TIP3   OH214798   3.448   2.056   2.924
 4945TIP3    H114799   3.410   2.105   2.997
 4945TIP3    H214800   3.399   2.086   2.847
 4946TIP3   OH214801   3.710   0.832   2.975
 4946TIP3    H114802   3.637   0.805   2.919
 4946TIP3    H214803   3.679   0.911   3.018
 4947TIP3   OH214804   2.018   6.787   1.011
 4947TIP3    H114805   2.101   6.777   0.965
 4947TIP3    H214806   2.019   6.876   1.044
 4948TIP3   OH214807   2.909   2.476   0.345
 4948TIP3    H114808   2.934   2.478   0.438
 4948TIP3    H214809   2.830   2.422   0.343
 4949TIP3   OH214810   5.055   2.469   2.929
 4949TIP3    H114811   5.046   2.418   2.849
 4949TIP3    H214812   4.967   2.469   2.968
 4950TIP3   OH214813   2.841   0.306   2.404
 4950TIP3    H114814   2.862   0.274   2.491
 4950TIP3    H214815   2.916   0.360   2.379
 4951TIP3   OH214816   5.874   4.905   3.112
 4951TIP3    H114817   5.788   4.896   3.153
 4951TIP3    H214818   5.933   4.856   3.170
 4952TIP3   OH214819   6.898   2.005   4.405
 4952TIP3    H114820   6.966   2.070   4.388
 4952TIP3    H214821   6.883   2.010   4.499
 4953TIP3   OH214822   5.691   2.998   0.347
 4953TIP3    H114823   5.664   2.977   0.257
 4953TIP3    H214824   5.628   3.063   0.376
 4954TIP3   OH214825   4.600   4.293   3.698
 4954TIP3    H114826   4.661   4.236   3.652
 4954TIP3    H214827   4.593   4.256   3.786
 4955TIP3   OH214828   0.125   0.677   3.994
 4955TIP3    H114829   0.041   0.655   3.953
 4955TIP3    H214830   0.157   0.752   3.943
 4956TIP3   OH214831   2.795   0.206   4.173
 4956TIP3    H114832   2.792   0.264   4.097
 4956TIP3    H214833   2.868   0.147   4.154
 4957TIP3   OH214834   5.050   4.663   4.028
 4957TIP3    H114835   4.997   4.646   3.949
 4957TIP3    H214836   4.992   4.714   4.085
 4958TIP3   OH214837   0.213   2.885   3.961
 4958TIP3    H114838   0.212   2.904   3.867
 4958TIP3    H214839   0.122   2.899   3.989
 4959TIP3   OH214840   3.594   5.256   1.032
 4959TIP3    H114841   3.666   5.194   1.028
 4959TIP3    H214842   3.533   5.226   0.964
 4960TIP3   OH214843   6.469   1.946   1.703
 4960TIP3    H114844   6.456   1.863   1.657
 4960TIP3    H214845   6.387   1.993   1.690
 4961TIP3   OH214846   3.408   0.864   5.868
 4961TIP3    H114847   3.317   0.891   5.870
 4961TIP3    H214848   3.429   0.854   5.775
 4962TIP3   OH214849   2.508   1.045   1.004
 4962TIP3    H114850   2.579   1.047   1.068
 4962TIP3    H214851   2.459   1.126   1.020
 4963TIP3   OH214852   3.538   2.943   1.446
 4963TIP3    H114853   3.554   2.954   1.540
 4963TIP3    H214854   3.443   2.952   1.437
 4964TIP3   OH214855   6.451   3.503   3.010
 4964TIP3    H114856   6.408   3.524   2.928
 4964TIP3    H214857   6.407   3.557   3.076
 4965TIP3   OH214858   0.699   2.355   3.933
 4965TIP3    H114859   0.662   2.403   4.007
 4965TIP3    H214860   0.623   2.327   3.882
 4966TIP3   OH214861   0.482   2.443   2.923
 4966TIP3    H114862   0.517   2.381   2.859
 4966TIP3    H214863   0.560   2.482   2.964
 4967TIP3   OH214864   3.404   2.639   0.187
 4967TIP3    H114865   3.400   2.686   0.270
 4967TIP3    H214866   3.328   2.580   0.189
 4968TIP3   OH214867   4.983   4.609   4.815
 4968TIP3    H114868   5.072   4.644   4.821
 4968TIP3    H214869   4.989   4.521   4.851
 4969TIP3   OH214870   6.929   5.143   1.124
 4969TIP3    H114871   6.962   5.079   1.060
 4969TIP3    H214872   6.951   5.228   1.086
 4970TIP3   OH214873   6.563   4.630   2.325
 4970TIP3    H114874   6.642   4.683   2.308
 4970TIP3    H214875   6.561   4.621   2.420
 4971TIP3   OH214876   5.437   3.483   0.270
 4971TIP3    H114877   5.429   3.460   0.362
 4971TIP3    H214878   5.515   3.538   0.265
 4972TIP3   OH214879   4.285   5.133   2.382
 4972TIP3    H114880   4.321   5.101   2.300
 4972TIP3    H214881   4.361   5.146   2.438
 4973TIP3   OH214882   6.297   6.609   4.137
 4973TIP3    H114883   6.268   6.519   4.150
 4973TIP3    H214884   6.257   6.636   4.054
 4974TIP3   OH214885   6.756   2.902   4.374
 4974TIP3    H114886   6.799   2.895   4.289
 4974TIP3    H214887   6.685   2.965   4.361
 4975TIP3   OH214888   5.020   6.479   3.252
 4975TIP3    H114889   4.974   6.491   3.335
 4975TIP3    H214890   5.026   6.567   3.215
 4976TIP3   OH214891   3.934   5.992   4.674
 4976TIP3    H114892   3.929   6.019   4.582
 4976TIP3    H214893   3.855   6.028   4.714
 4977TIP3   OH214894   5.115   2.221   5.137
 4977TIP3    H114895   5.156   2.203   5.222
 4977TIP3    H214896   5.119   2.138   5.091
 4978TIP3   OH214897   6.319   5.960   5.308
 4978TIP3    H114898   6.230   5.981   5.282
 4978TIP3    H214899   6.337   5.875   5.269
 4979TIP3   OH214900   6.124   0.046   1.670
 4979TIP3    H114901   6.074   0.008   1.742
 4979TIP3    H214902   6.059   0.092   1.616
 4980TIP3   OH214903   4.920   4.884   4.128
 4980TIP3    H114904   4.834   4.921   4.109
 4980TIP3    H214905   4.969   4.957   4.165
 4981TIP3   OH214906   6.115   4.876   0.638
 4981TIP3    H114907   6.064   4.824   0.575
 4981TIP3    H214908   6.052   4.904   0.704
 4982TIP3   OH214909   3.352   1.074   0.635
 4982TIP3    H114910   3.313   1.066   0.722
 4982TIP3    H214911   3.445   1.090   0.652
 4983TIP3   OH214912   3.623   5.823   3.031
 4983TIP3    H114913   3.621   5.875   2.951
 4983TIP3    H214914   3.689   5.865   3.085
 4984TIP3   OH214915   5.831   4.514   5.824
 4984TIP3    H114916   5.856   4.495   5.914
 4984TIP3    H214917   5.899   4.573   5.792
 4985TIP3   OH214918   3.193   1.159   3.154
 4985TIP3    H114919   3.138   1.092   3.194
 4985TIP3    H214920   3.151   1.242   3.177
 4986TIP3   OH214921   6.022   4.846   4.053
 4986TIP3    H114922   6.038   4.929   4.098
 4986TIP3    H214923   6.079   4.848   3.976
 4987TIP3   OH214924   4.328   4.171   0.999
 4987TIP3    H114925   4.370   4.148   0.917
 4987TIP3    H214926   4.311   4.087   1.042
 4988TIP3   OH214927   2.876   2.143   2.454
 4988TIP3    H114928   2.925   2.061   2.461
 4988TIP3    H214929   2.803   2.123   2.396
 4989TIP3   OH214930   0.872   1.119   1.143
 4989TIP3    H114931   0.818   1.196   1.164
 4989TIP3    H214932   0.906   1.091   1.228
 4990TIP3   OH214933   4.044   2.409   1.451
 4990TIP3    H114934   4.132   2.413   1.413
 4990TIP3    H214935   3.988   2.454   1.388
 4991TIP3   OH214936   2.975   5.398   0.905
 4991TIP3    H114937   3.041   5.359   0.848
 4991TIP3    H214938   2.979   5.347   0.986
 4992TIP3   OH214939   5.380   3.715   4.933
 4992TIP3    H114940   5.371   3.754   4.846
 4992TIP3    H214941   5.461   3.751   4.967
 4993TIP3   OH214942   0.060   6.102   5.166
 4993TIP3    H114943   0.100   6.017   5.151
 4993TIP3    H214944   0.134   6.164   5.162
 4994TIP3   OH214945   5.152   4.747   3.640
 4994TIP3    H114946   5.109   4.737   3.725
 4994TIP3    H214947   5.245   4.756   3.661
 4995TIP3   OH214948   0.465   3.635   2.765
 4995TIP3    H114949   0.530   3.590   2.710
 4995TIP3    H214950   0.415   3.688   2.703
 4996TIP3   OH214951   4.820   4.391   5.648
 4996TIP3    H114952   4.887   4.339   5.692
 4996TIP3    H214953   4.789   4.335   5.577
 4997TIP3   OH214954   6.022   1.174   0.721
 4997TIP3    H114955   5.948   1.217   0.763
 4997TIP3    H214956   6.014   1.082   0.747
 4998TIP3   OH214957   1.792   3.308   3.121
 4998TIP3    H114958   1.703   3.311   3.156
 4998TIP3    H214959   1.815   3.215   3.122
 4999TIP3   OH214960   6.700   5.210   1.261
 4999TIP3    H114961   6.744   5.157   1.195
 4999TIP3    H214962   6.666   5.286   1.213
 5000TIP3   OH214963   5.093   3.044   2.774
 5000TIP3    H114964   5.031   2.991   2.823
 5000TIP3    H214965   5.101   3.125   2.824
 5001TIP3   OH214966   5.662   0.599   0.913
 5001TIP3    H114967   5.677   0.559   0.999
 5001TIP3    H214968   5.568   0.592   0.899
 5002TIP3   OH214969   4.532   4.116   1.248
 5002TIP3    H114970   4.477   4.086   1.321
 5002TIP3    H214971   4.562   4.036   1.205
 5003TIP3   OH214972   6.864   0.138   2.869
 5003TIP3    H114973   6.826   0.225   2.856
 5003TIP3    H214974   6.932   0.130   2.802
 5004TIP3   OH214975   4.904   2.321   1.616
 5004TIP3    H114976   4.959   2.286   1.546
 5004TIP3    H214977   4.965   2.365   1.675
 5005TIP3   OH214978   3.454   2.296   4.516
 5005TIP3    H114979   3.478   2.381   4.553
 5005TIP3    H214980   3.518   2.282   4.446
 5006TIP3   OH214981   3.954   0.559   0.668
 5006TIP3    H114982   3.870   0.513   0.665
 5006TIP3    H214983   4.007   0.509   0.731
 5007TIP3   OH214984   3.136   6.388   2.068
 5007TIP3    H114985   3.145   6.436   1.986
 5007TIP3    H214986   3.225   6.361   2.090
 5008TIP3   OH214987   5.017   5.020   5.077
 5008TIP3    H114988   4.966   5.093   5.113
 5008TIP3    H214989   5.107   5.038   5.105
 5009TIP3   OH214990   2.149   2.809   1.168
 5009TIP3    H114991   2.221   2.746   1.157
 5009TIP3    H214992   2.171   2.857   1.247
 5010TIP3   OH214993   1.200   2.931   5.692
 5010TIP3    H114994   1.200   3.022   5.661
 5010TIP3    H214995   1.290   2.902   5.680
 5011TIP3   OH214996   4.573   2.828   3.227
 5011TIP3    H114997   4.486   2.857   3.256
 5011TIP3    H214998   4.616   2.796   3.306
 5012TIP3   OH214999   2.584   1.128   3.563
 5012TIP3    H115000   2.507   1.103   3.511
 5012TIP3    H215001   2.659   1.106   3.508
 5013TIP3   OH215002   0.998   2.019   4.580
 5013TIP3    H115003   0.933   1.951   4.561
 5013TIP3    H215004   0.970   2.094   4.528
 5014TIP3   OH215005   6.032   0.712   4.066
 5014TIP3    H115006   6.066   0.738   3.981
 5014TIP3    H215007   6.093   0.749   4.129
 5015TIP3   OH215008   1.613   2.867   1.115
 5015TIP3    H115009   1.612   2.775   1.142
 5015TIP3    H215010   1.692   2.903   1.153
 5016TIP3   OH215011   4.141   6.377   3.817
 5016TIP3    H115012   4.125   6.285   3.800
 5016TIP3    H215013   4.201   6.405   3.749
 5017TIP3   OH215014   6.475   0.364   3.430
 5017TIP3    H115015   6.542   0.309   3.390
 5017TIP3    H215016   6.523   0.444   3.456
 5018TIP3   OH215017   1.550   1.122   4.088
 5018TIP3    H115018   1.573   1.178   4.162
 5018TIP3    H215019   1.610   1.148   4.018
 5019TIP3   OH215020   3.690   5.939   1.943
 5019TIP3    H115021   3.712   6.029   1.963
 5019TIP3    H215022   3.633   5.944   1.866
 5020TIP3   OH215023   1.388   4.204   3.559
 5020TIP3    H115024   1.392   4.175   3.651
 5020TIP3    H215025   1.299   4.237   3.548
 5021TIP3   OH215026   4.257   2.595   3.339
 5021TIP3    H115027   4.290   2.681   3.314
 5021TIP3    H215028   4.336   2.544   3.359
 5022TIP3   OH215029   6.882   5.969   1.711
 5022TIP3    H115030   6.845   5.950   1.624
 5022TIP3    H215031   6.854   5.895   1.765
 5023TIP3   OH215032   4.855   1.887   3.491
 5023TIP3    H115033   4.901   1.970   3.479
 5023TIP3    H215034   4.816   1.894   3.578
 5024TIP3   OH215035   3.025   5.064   3.591
 5024TIP3    H115036   3.042   5.127   3.661
 5024TIP3    H215037   3.078   5.094   3.517
 5025TIP3   OH215038   6.681   1.560   1.587
 5025TIP3    H115039   6.632   1.480   1.569
 5025TIP3    H215040   6.615   1.629   1.583
 5026TIP3   OH215041   0.822   5.361   3.263
 5026TIP3    H115042   0.835   5.451   3.293
 5026TIP3    H215043   0.842   5.307   3.340
 5027TIP3   OH215044   2.329   5.359   2.080
 5027TIP3    H115045   2.268   5.432   2.090
 5027TIP3    H215046   2.411   5.391   2.117
 5028TIP3   OH215047   0.039   2.122   0.405
 5028TIP3    H115048   0.089   2.040   0.405
 5028TIP3    H215049  -0.041   2.102   0.453
 5029TIP3   OH215050   4.598   4.587   3.859
 5029TIP3    H115051   4.551   4.620   3.935
 5029TIP3    H215052   4.677   4.546   3.894
 5030TIP3   OH215053   2.799   5.091   1.957
 5030TIP3    H115054   2.829   5.117   2.045
 5030TIP3    H215055   2.758   5.170   1.922
 5031TIP3   OH215056   5.218   4.076   3.374
 5031TIP3    H115057   5.193   3.986   3.355
 5031TIP3    H215058   5.257   4.108   3.293
 5032TIP3   OH215059   4.924   1.281   3.392
 5032TIP3    H115060   4.880   1.306   3.310
 5032TIP3    H215061   4.911   1.187   3.398
 5033TIP3   OH215062   4.867   0.699   2.949
 5033TIP3    H115063   4.925   0.688   3.025
 5033TIP3    H215064   4.889   0.626   2.891
 5034TIP3   OH215065   3.561   6.514   4.525
 5034TIP3    H115066   3.499   6.487   4.592
 5034TIP3    H215067   3.511   6.511   4.443
 5035TIP3   OH215068   1.111   1.704   1.122
 5035TIP3    H115069   1.204   1.699   1.103
 5035TIP3    H215070   1.092   1.797   1.128
 5036TIP3   OH215071   7.005   4.551   0.142
 5036TIP3    H115072   6.994   4.580   0.051
 5036TIP3    H215073   6.921   4.511   0.165
 5037TIP3   OH215074   4.757   0.911   4.787
 5037TIP3    H115075   4.675   0.949   4.817
 5037TIP3    H215076   4.755   0.921   4.691
 5038TIP3   OH215077   6.473   6.411   1.526
 5038TIP3    H115078   6.439   6.394   1.613
 5038TIP3    H215079   6.399   6.448   1.477
 5039TIP3   OH215080   2.620   1.861   1.321
 5039TIP3    H115081   2.573   1.781   1.346
 5039TIP3    H215082   2.713   1.837   1.331
 5040TIP3   OH215083   0.401   3.518   4.569
 5040TIP3    H115084   0.429   3.490   4.656
 5040TIP3    H215085   0.453   3.597   4.552
 5041TIP3   OH215086   3.349   6.300   0.683
 5041TIP3    H115087   3.423   6.361   0.681
 5041TIP3    H215088   3.285   6.338   0.624
 5042TIP3   OH215089   5.895   3.349   2.853
 5042TIP3    H115090   5.965   3.389   2.904
 5042TIP3    H215091   5.839   3.422   2.827
 5043TIP3   OH215092   0.719   5.366   2.994
 5043TIP3    H115093   0.762   5.354   3.079
 5043TIP3    H215094   0.643   5.307   2.998
 5044TIP3   OH215095   1.607   6.687   5.753
 5044TIP3    H115096   1.537   6.628   5.724
 5044TIP3    H215097   1.628   6.658   5.842
 5045TIP3   OH215098   2.488   1.597   0.245
 5045TIP3    H115099   2.557   1.545   0.286
 5045TIP3    H215100   2.417   1.598   0.309
 5046TIP3   OH215101   5.072   6.635   5.574
 5046TIP3    H115102   5.155   6.634   5.621
 5046TIP3    H215103   5.070   6.552   5.526
 5047TIP3   OH215104   1.325   5.087   0.772
 5047TIP3    H115105   1.255   5.085   0.837
 5047TIP3    H215106   1.339   5.180   0.754
 5048TIP3   OH215107   3.966   3.578   3.428
 5048TIP3    H115108   3.906   3.552   3.498
 5048TIP3    H215109   4.053   3.572   3.466
 5049TIP3   OH215110   5.819   2.375   1.913
 5049TIP3    H115111   5.744   2.328   1.950
 5049TIP3    H215112   5.781   2.446   1.862
 5050TIP3   OH215113   3.592   3.793   2.874
 5050TIP3    H115114   3.630   3.794   2.787
 5050TIP3    H215115   3.656   3.747   2.928
 5051TIP3   OH215116   1.710   6.688   1.715
 5051TIP3    H115117   1.625   6.712   1.750
 5051TIP3    H215118   1.708   6.717   1.624
 5052TIP3   OH215119   1.806   5.623   5.613
 5052TIP3    H115120   1.867   5.570   5.561
 5052TIP3    H215121   1.741   5.654   5.550
 5053TIP3   OH215122   2.530   1.350   0.500
 5053TIP3    H115123   2.441   1.380   0.480
 5053TIP3    H215124   2.520   1.256   0.517
 5054TIP3   OH215125   2.688   4.191   4.438
 5054TIP3    H115126   2.750   4.212   4.369
 5054TIP3    H215127   2.702   4.098   4.456
 5055TIP3   OH215128   3.312   4.909   3.153
 5055TIP3    H115129   3.393   4.940   3.194
 5055TIP3    H215130   3.320   4.813   3.153
 5056TIP3   OH215131   4.876   1.574   3.918
 5056TIP3    H115132   4.913   1.639   3.858
 5056TIP3    H215133   4.792   1.550   3.879
 5057TIP3   OH215134   6.875   4.976   4.653
 5057TIP3    H115135   6.783   4.998   4.637
 5057TIP3    H215136   6.873   4.883   4.675
 5058TIP3   OH215137   2.093   5.376   1.169
 5058TIP3    H115138   2.112   5.470   1.174
 5058TIP3    H215139   2.008   5.367   1.213
 5059TIP3   OH215140   4.164   1.242   1.539
 5059TIP3    H115141   4.078   1.201   1.538
 5059TIP3    H215142   4.211   1.201   1.466
 5060TIP3   OH215143   4.493   5.987   4.834
 5060TIP3    H115144   4.558   6.005   4.766
 5060TIP3    H215145   4.409   6.005   4.793
 5061TIP3   OH215146   6.841   6.252   4.391
 5061TIP3    H115147   6.794   6.186   4.443
 5061TIP3    H215148   6.859   6.323   4.452
 5062TIP3   OH215149   5.919   1.695   4.571
 5062TIP3    H115150   5.949   1.604   4.559
 5062TIP3    H215151   5.827   1.687   4.593
 5063TIP3   OH215152   6.147   4.067   1.266
 5063TIP3    H115153   6.104   4.056   1.182
 5063TIP3    H215154   6.083   4.037   1.330
 5064TIP3   OH215155   2.870   1.047   2.877
 5064TIP3    H115156   2.776   1.031   2.868
 5064TIP3    H215157   2.889   1.029   2.969
 5065TIP3   OH215158   0.695   3.857   5.304
 5065TIP3    H115159   0.663   3.768   5.287
 5065TIP3    H215160   0.633   3.913   5.257
 5066TIP3   OH215161   3.751   2.294   4.453
 5066TIP3    H115162   3.822   2.234   4.429
 5066TIP3    H215163   3.747   2.291   4.548
 5067TIP3   OH215164   4.231   3.216   0.836
 5067TIP3    H115165   4.179   3.279   0.785
 5067TIP3    H215166   4.294   3.270   0.884
 5068TIP3   OH215167   0.659   4.479   3.419
 5068TIP3    H115168   0.648   4.567   3.456
 5068TIP3    H215169   0.569   4.445   3.412
 5069TIP3   OH215170   0.464   5.303   5.405
 5069TIP3    H115171   0.424   5.356   5.335
 5069TIP3    H215172   0.409   5.225   5.409
 5070TIP3   OH215173   5.886   3.489   2.441
 5070TIP3    H115174   5.968   3.462   2.398
 5070TIP3    H215175   5.872   3.421   2.508
 5071TIP3   OH215176   2.164   2.901   1.420
 5071TIP3    H115177   2.091   2.961   1.434
 5071TIP3    H215178   2.178   2.861   1.506
 5072TIP3   OH215179   1.526   5.078   1.653
 5072TIP3    H115180   1.533   5.028   1.572
 5072TIP3    H215181   1.506   5.013   1.720
 5073TIP3   OH215182   2.726   1.193   0.232
 5073TIP3    H115183   2.696   1.109   0.269
 5073TIP3    H215184   2.655   1.220   0.174
 5074TIP3   OH215185   7.102   3.655   2.731
 5074TIP3    H115186   7.029   3.705   2.766
 5074TIP3    H215187   7.161   3.720   2.694
 5075TIP3   OH215188   3.788   1.449   4.634
 5075TIP3    H115189   3.859   1.502   4.672
 5075TIP3    H215190   3.735   1.422   4.709
 5076TIP3   OH215191   3.410   4.587   3.415
 5076TIP3    H115192   3.421   4.543   3.331
 5076TIP3    H215193   3.316   4.590   3.429
 5077TIP3   OH215194   5.279   2.031   0.535
 5077TIP3    H115195   5.189   2.055   0.515
 5077TIP3    H215196   5.280   2.019   0.630
 5078TIP3   OH215197   4.830   6.454   0.683
 5078TIP3    H115198   4.747   6.478   0.723
 5078TIP3    H215199   4.889   6.526   0.705
 5079TIP3   OH215200   1.750   5.511   3.448
 5079TIP3    H115201   1.762   5.422   3.481
 5079TIP3    H215202   1.673   5.544   3.494
 5080TIP3   OH215203   6.815   6.051   5.602
 5080TIP3    H115204   6.814   6.062   5.507
 5080TIP3    H215205   6.907   6.037   5.624
 5081TIP3   OH215206   1.885   4.323   3.874
 5081TIP3    H115207   1.800   4.367   3.880
 5081TIP3    H215208   1.865   4.231   3.894
 5082TIP3   OH215209   3.508   2.631   3.118
 5082TIP3    H115210   3.445   2.614   3.188
 5082TIP3    H215211   3.561   2.552   3.114
 5083TIP3   OH215212   3.799   3.170   3.113
 5083TIP3    H115213   3.791   3.141   3.204
 5083TIP3    H215214   3.714   3.154   3.074
 5084TIP3   OH215215   2.424   5.632   2.914
 5084TIP3    H115216   2.503   5.636   2.860
 5084TIP3    H215217   2.444   5.566   2.980
 5085TIP3   OH215218   1.954   1.542   4.801
 5085TIP3    H115219   1.973   1.448   4.807
 5085TIP3    H215220   1.864   1.546   4.770
 5086TIP3   OH215221   1.045   0.406   3.959
 5086TIP3    H115222   1.082   0.363   3.882
 5086TIP3    H215223   0.973   0.458   3.925
 5087TIP3   OH215224   6.621   4.010   3.104
 5087TIP3    H115225   6.646   3.945   3.170
 5087TIP3    H215226   6.526   4.000   3.097
 5088TIP3   OH215227   5.134   1.962   5.335
 5088TIP3    H115228   5.197   2.033   5.349
 5088TIP3    H215229   5.183   1.894   5.290
 5089TIP3   OH215230   7.231   3.535   4.395
 5089TIP3    H115231   7.213   3.627   4.375
 5089TIP3    H215232   7.153   3.488   4.366
 5090TIP3   OH215233   2.992   2.179   1.324
 5090TIP3    H115234   3.071   2.154   1.278
 5090TIP3    H215235   2.978   2.110   1.389
 5091TIP3   OH215236   2.140   1.792   5.693
 5091TIP3    H115237   2.183   1.707   5.700
 5091TIP3    H215238   2.059   1.775   5.645
 5092TIP3   OH215239   5.183   4.546   5.568
 5092TIP3    H115240   5.106   4.535   5.623
 5092TIP3    H215241   5.247   4.590   5.624
 5093TIP3   OH215242   2.990   5.294   4.173
 5093TIP3    H115243   3.009   5.379   4.133
 5093TIP3    H215244   2.899   5.301   4.203
 5094TIP3   OH215245   5.149   0.708   1.239
 5094TIP3    H115246   5.166   0.763   1.315
 5094TIP3    H215247   5.154   0.618   1.272
 5095TIP3   OH215248   6.817   3.456   0.771
 5095TIP3    H115249   6.905   3.424   0.791
 5095TIP3    H215250   6.817   3.547   0.801
 5096TIP3   OH215251   5.797   4.828   4.967
 5096TIP3    H115252   5.799   4.799   4.876
 5096TIP3    H215253   5.856   4.766   5.012
 5097TIP3   OH215254   2.657   3.711   4.405
 5097TIP3    H115255   2.633   3.731   4.315
 5097TIP3    H215256   2.690   3.622   4.403
 5098TIP3   OH215257   4.980   4.842   2.900
 5098TIP3    H115258   5.034   4.808   2.829
 5098TIP3    H215259   4.915   4.898   2.857
 5099TIP3   OH215260   3.458   2.322   3.343
 5099TIP3    H115261   3.394   2.378   3.386
 5099TIP3    H215262   3.539   2.337   3.392
 5100TIP3   OH215263   7.138   4.156   0.925
 5100TIP3    H115264   7.155   4.241   0.885
 5100TIP3    H215265   7.071   4.115   0.869
 5101TIP3   OH215266   5.808   0.210   2.883
 5101TIP3    H115267   5.819   0.297   2.920
 5101TIP3    H215268   5.897   0.178   2.869
 5102TIP3   OH215269   3.224   5.567   1.202
 5102TIP3    H115270   3.204   5.583   1.110
 5102TIP3    H215271   3.299   5.507   1.200
 5103TIP3   OH215272   3.122   4.517   5.243
 5103TIP3    H115273   3.058   4.586   5.263
 5103TIP3    H215274   3.207   4.562   5.245
 5104TIP3   OH215275   3.190   3.677   3.233
 5104TIP3    H115276   3.265   3.651   3.180
 5104TIP3    H215277   3.154   3.594   3.266
 5105TIP3   OH215278   0.093   6.051   3.767
 5105TIP3    H115279   0.092   6.146   3.776
 5105TIP3    H215280   0.185   6.026   3.779
 5106TIP3   OH215281   3.622   6.524   5.034
 5106TIP3    H115282   3.675   6.493   4.961
 5106TIP3    H215283   3.562   6.587   4.995
 5107TIP3   OH215284   4.582   5.921   0.350
 5107TIP3    H115285   4.522   5.939   0.422
 5107TIP3    H215286   4.667   5.952   0.380
 5108TIP3   OH215287   1.083   0.136   1.003
 5108TIP3    H115288   1.002   0.108   0.962
 5108TIP3    H215289   1.135   0.056   1.013
 5109TIP3   OH215290   1.931   3.305   4.289
 5109TIP3    H115291   1.992   3.233   4.296
 5109TIP3    H215292   1.886   3.307   4.374
 5110TIP3   OH215293   0.657   0.845   5.274
 5110TIP3    H115294   0.720   0.842   5.202
 5110TIP3    H215295   0.576   0.878   5.234
 5111TIP3   OH215296   6.710   0.032   5.725
 5111TIP3    H115297   6.685   0.113   5.769
 5111TIP3    H215298   6.630   0.004   5.679
 5112TIP3   OH215299   5.808   4.715   2.851
 5112TIP3    H115300   5.797   4.687   2.942
 5112TIP3    H215301   5.725   4.757   2.829
 5113TIP3   OH215302   3.625   5.640   1.451
 5113TIP3    H115303   3.539   5.642   1.491
 5113TIP3    H215304   3.637   5.548   1.425
 5114TIP3   OH215305   7.044   2.885   2.675
 5114TIP3    H115306   7.135   2.897   2.700
 5114TIP3    H215307   6.996   2.955   2.719
 5115TIP3   OH215308   3.170   1.228  -0.016
 5115TIP3    H115309   3.266   1.225  -0.011
 5115TIP3    H215310   3.141   1.163   0.049
 5116TIP3   OH215311   6.501   4.568   2.604
 5116TIP3    H115312   6.418   4.600   2.568
 5116TIP3    H215313   6.481   4.481   2.638
 5117TIP3   OH215314   3.156   1.911   2.774
 5117TIP3    H115315   3.139   1.978   2.708
 5117TIP3    H215316   3.157   1.959   2.857
 5118TIP3   OH215317   1.676   1.086   4.808
 5118TIP3    H115318   1.592   1.057   4.772
 5118TIP3    H215319   1.734   1.010   4.798
 5119TIP3   OH215320   0.090   0.314   1.674
 5119TIP3    H115321   0.137   0.372   1.614
 5119TIP3    H215322   0.010   0.291   1.627
 5120TIP3   OH215323   3.501   6.808   3.409
 5120TIP3    H115324   3.581   6.760   3.431
 5120TIP3    H215325   3.492   6.873   3.478
 5121TIP3   OH215326   6.502   2.369   2.700
 5121TIP3    H115327   6.532   2.377   2.610
 5121TIP3    H215328   6.564   2.420   2.751
 5122TIP3   OH215329   4.421   1.670   3.539
 5122TIP3    H115330   4.394   1.579   3.553
 5122TIP3    H215331   4.339   1.719   3.530
 5123TIP3   OH215332   2.042   6.049   3.541
 5123TIP3    H115333   2.062   5.955   3.536
 5123TIP3    H215334   2.126   6.090   3.559
 5124TIP3   OH215335   1.727   5.262   1.982
 5124TIP3    H115336   1.724   5.358   1.978
 5124TIP3    H215337   1.747   5.235   1.892
 5125TIP3   OH215338   5.210   4.404   0.109
 5125TIP3    H115339   5.181   4.346   0.039
 5125TIP3    H215340   5.130   4.423   0.158
 5126TIP3   OH215341   0.521   4.524   5.388
 5126TIP3    H115342   0.461   4.450   5.375
 5126TIP3    H215343   0.464   4.601   5.388
 5127TIP3   OH215344   4.720   6.079   5.345
 5127TIP3    H115345   4.657   6.052   5.279
 5127TIP3    H215346   4.715   6.012   5.413
 5128TIP3   OH215347   3.526   5.401   2.424
 5128TIP3    H115348   3.561   5.374   2.509
 5128TIP3    H215349   3.520   5.320   2.374
 5129TIP3   OH215350   4.613   6.697   4.747
 5129TIP3    H115351   4.683   6.705   4.812
 5129TIP3    H215352   4.537   6.736   4.791
 5130TIP3   OH215353   1.894   3.649   2.702
 5130TIP3    H115354   1.833   3.587   2.743
 5130TIP3    H215355   1.887   3.630   2.608
 5131TIP3   OH215356   4.310   6.159   2.910
 5131TIP3    H115357   4.386   6.103   2.928
 5131TIP3    H215358   4.283   6.134   2.822
 5132TIP3   OH215359   2.823   3.272   2.243
 5132TIP3    H115360   2.729   3.262   2.254
 5132TIP3    H215361   2.838   3.257   2.149
 5133TIP3   OH215362   5.604   2.105   4.513
 5133TIP3    H115363   5.627   2.059   4.594
 5133TIP3    H215364   5.613   2.038   4.445
 5134TIP3   OH215365   1.139   0.627   5.754
 5134TIP3    H115366   1.060   0.588   5.792
 5134TIP3    H215367   1.109   0.709   5.715
 5135TIP3   OH215368   5.675   1.623   3.874
 5135TIP3    H115369   5.738   1.562   3.912
 5135TIP3    H215370   5.589   1.584   3.894
 5136TIP3   OH215371   0.154   2.991   0.525
 5136TIP3    H115372   0.151   3.039   0.608
 5136TIP3    H215373   0.066   2.999   0.489
 5137TIP3   OH215374   2.959   4.819   2.965
 5137TIP3    H115375   2.900   4.810   2.890
 5137TIP3    H215376   2.932   4.750   3.025
 5138TIP3   OH215377   5.838   2.227   1.229
 5138TIP3    H115378   5.849   2.307   1.280
 5138TIP3    H215379   5.774   2.175   1.277
 5139TIP3   OH215380   4.524   6.214   4.003
 5139TIP3    H115381   4.535   6.201   3.909
 5139TIP3    H215382   4.445   6.165   4.024
 5140TIP3   OH215383   6.832   3.452   4.795
 5140TIP3    H115384   6.748   3.471   4.837
 5140TIP3    H215385   6.810   3.397   4.720
 5141TIP3   OH215386   6.790   5.031   2.085
 5141TIP3    H115387   6.845   5.028   2.007
 5141TIP3    H215388   6.702   5.045   2.051
 5142TIP3   OH215389   3.368   4.576   1.270
 5142TIP3    H115390   3.281   4.556   1.236
 5142TIP3    H215391   3.417   4.494   1.262
 5143TIP3   OH215392   1.060   2.378   3.761
 5143TIP3    H115393   0.975   2.413   3.734
 5143TIP3    H215394   1.049   2.283   3.758
 5144TIP3   OH215395   4.088   5.576   1.961
 5144TIP3    H115396   4.182   5.590   1.975
 5144TIP3    H215397   4.049   5.585   2.049
 5145TIP3   OH215398   2.447   2.080   2.821
 5145TIP3    H115399   2.470   1.995   2.784
 5145TIP3    H215400   2.482   2.144   2.759
 5146TIP3   OH215401   3.358   2.186   4.933
 5146TIP3    H115402   3.424   2.251   4.956
 5146TIP3    H215403   3.375   2.168   4.840
 5147TIP3   OH215404   4.190   0.587   4.223
 5147TIP3    H115405   4.108   0.538   4.229
 5147TIP3    H215406   4.166   0.677   4.245
 5148TIP3   OH215407   3.675   3.590   4.682
 5148TIP3    H115408   3.582   3.598   4.705
 5148TIP3    H215409   3.697   3.500   4.706
 5149TIP3   OH215410   0.518   2.728   5.813
 5149TIP3    H115411   0.549   2.757   5.727
 5149TIP3    H215412   0.478   2.643   5.797
 5150TIP3   OH215413   2.040   5.576   2.948
 5150TIP3    H115414   2.118   5.541   2.991
 5150TIP3    H215415   1.999   5.500   2.906
 5151TIP3   OH215416   6.309   2.697   1.478
 5151TIP3    H115417   6.306   2.739   1.564
 5151TIP3    H215418   6.402   2.691   1.457
 5152TIP3   OH215419   0.447   6.566   0.883
 5152TIP3    H115420   0.484   6.507   0.817
 5152TIP3    H215421   0.354   6.570   0.861
 5153TIP3   OH215422   1.226   0.510   2.834
 5153TIP3    H115423   1.276   0.513   2.916
 5153TIP3    H215424   1.210   0.602   2.812
 5154TIP3   OH215425   1.810   4.485   2.494
 5154TIP3    H115426   1.736   4.546   2.496
 5154TIP3    H215427   1.883   4.537   2.462
 5155TIP3   OH215428   0.985   0.934   2.660
 5155TIP3    H115429   0.902   0.956   2.702
 5155TIP3    H215430   1.018   1.017   2.626
 5156TIP3   OH215431   3.680   2.537   5.557
 5156TIP3    H115432   3.717   2.477   5.492
 5156TIP3    H215433   3.602   2.493   5.590
 5157TIP3   OH215434   6.525   3.970   2.745
 5157TIP3    H115435   6.443   4.011   2.774
 5157TIP3    H215436   6.565   4.034   2.686
 5158TIP3   OH215437   4.823   2.767   5.769
 5158TIP3    H115438   4.809   2.820   5.690
 5158TIP3    H215439   4.777   2.814   5.838
 5159TIP3   OH215440   4.201   4.392   4.255
 5159TIP3    H115441   4.227   4.425   4.169
 5159TIP3    H215442   4.257   4.315   4.268
 5160TIP3   OH215443   4.402   4.133   0.285
 5160TIP3    H115444   4.405   4.126   0.190
 5160TIP3    H215445   4.340   4.204   0.302
 5161TIP3   OH215446   6.944   4.213   4.250
 5161TIP3    H115447   6.918   4.300   4.219
 5161TIP3    H215448   6.872   4.185   4.306
 5162TIP3   OH215449   6.139   0.534   5.656
 5162TIP3    H115450   6.133   0.627   5.632
 5162TIP3    H215451   6.218   0.528   5.709
 5163TIP3   OH215452   2.005   1.968   4.918
 5163TIP3    H115453   1.936   1.991   4.982
 5163TIP3    H215454   2.060   1.905   4.965
 5164TIP3   OH215455   2.080   1.021   4.642
 5164TIP3    H115456   2.007   1.022   4.580
 5164TIP3    H215457   2.108   0.930   4.644
 5165TIP3   OH215458   0.849   3.725   3.352
 5165TIP3    H115459   0.829   3.710   3.259
 5165TIP3    H215460   0.776   3.778   3.383
 5166TIP3   OH215461   6.760   5.359   5.387
 5166TIP3    H115462   6.779   5.302   5.313
 5166TIP3    H215463   6.830   5.425   5.386
 5167TIP3   OH215464   3.633   1.373   3.601
 5167TIP3    H115465   3.631   1.436   3.529
 5167TIP3    H215466   3.557   1.395   3.654
 5168TIP3   OH215467   5.469   1.971   0.366
 5168TIP3    H115468   5.411   1.967   0.443
 5168TIP3    H215469   5.442   1.897   0.312
 5169TIP3   OH215470   6.279   5.516   4.990
 5169TIP3    H115471   6.234   5.473   5.063
 5169TIP3    H215472   6.304   5.445   4.931
 5170TIP3   OH215473   1.740   5.771   3.050
 5170TIP3    H115474   1.728   5.715   2.973
 5170TIP3    H215475   1.723   5.714   3.125
 5171TIP3   OH215476   1.525   4.691   3.411
 5171TIP3    H115477   1.530   4.661   3.501
 5171TIP3    H215478   1.529   4.611   3.359
 5172TIP3   OH215479   0.147   3.972   2.387
 5172TIP3    H115480   0.098   4.001   2.310
 5172TIP3    H215481   0.237   3.965   2.356
 5173TIP3   OH215482   3.274   4.341   1.172
 5173TIP3    H115483   3.265   4.250   1.144
 5173TIP3    H215484   3.328   4.336   1.251
 5174TIP3   OH215485   3.322   4.522   1.929
 5174TIP3    H115486   3.239   4.571   1.922
 5174TIP3    H215487   3.295   4.430   1.928
 5175TIP3   OH215488   6.794   3.708   4.145
 5175TIP3    H115489   6.827   3.760   4.219
 5175TIP3    H215490   6.700   3.724   4.145
 5176TIP3   OH215491   4.571   1.908   4.877
 5176TIP3    H115492   4.587   1.965   4.952
 5176TIP3    H215493   4.488   1.940   4.840
 5177TIP3   OH215494   0.347   6.537   2.054
 5177TIP3    H115495   0.387   6.517   2.139
 5177TIP3    H215496   0.302   6.456   2.029
 5178TIP3   OH215497   2.477   3.191   1.913
 5178TIP3    H115498   2.384   3.172   1.901
 5178TIP3    H215499   2.517   3.173   1.829
 5179TIP3   OH215500   6.690   2.075   1.769
 5179TIP3    H115501   6.722   2.039   1.851
 5179TIP3    H215502   6.612   2.023   1.748
 5180TIP3   OH215503   0.878   3.879   3.752
 5180TIP3    H115504   0.937   3.911   3.684
 5180TIP3    H215505   0.814   3.826   3.705
 5181TIP3   OH215506   0.220   3.707   0.693
 5181TIP3    H115507   0.199   3.794   0.660
 5181TIP3    H215508   0.165   3.648   0.641
 5182TIP3   OH215509   6.416   0.352   2.367
 5182TIP3    H115510   6.352   0.284   2.346
 5182TIP3    H215511   6.492   0.305   2.401
 5183TIP3   OH215512   5.594   0.719   1.458
 5183TIP3    H115513   5.563   0.748   1.372
 5183TIP3    H215514   5.555   0.782   1.519
 5184TIP3   OH215515   5.442   5.074   4.532
 5184TIP3    H115516   5.430   4.980   4.545
 5184TIP3    H215517   5.363   5.102   4.487
 5185TIP3   OH215518   3.995   2.152   5.554
 5185TIP3    H115519   3.997   2.222   5.619
 5185TIP3    H215520   4.036   2.077   5.598
 5186TIP3   OH215521   6.850   1.545   3.613
 5186TIP3    H115522   6.888   1.525   3.699
 5186TIP3    H215523   6.888   1.629   3.589
 5187TIP3   OH215524   0.438   3.033   4.821
 5187TIP3    H115525   0.344   3.037   4.837
 5187TIP3    H215526   0.471   3.118   4.850
 5188TIP3   OH215527   1.697   1.937   4.759
 5188TIP3    H115528   1.791   1.918   4.751
 5188TIP3    H215529   1.693   2.031   4.775
 5189TIP3   OH215530   5.484   5.485   4.204
 5189TIP3    H115531   5.450   5.401   4.173
 5189TIP3    H215532   5.420   5.514   4.270
 5190TIP3   OH215533   5.183   1.359   3.127
 5190TIP3    H115534   5.276   1.355   3.106
 5190TIP3    H215535   5.178   1.409   3.208
 5191TIP3   OH215536   7.153   2.873   0.750
 5191TIP3    H115537   7.211   2.910   0.816
 5191TIP3    H215538   7.109   2.801   0.795
 5192TIP3   OH215539   0.123   2.453   5.522
 5192TIP3    H115540   0.185   2.456   5.450
 5192TIP3    H215541   0.174   2.415   5.595
 5193TIP3   OH215542   1.404   0.385   3.927
 5193TIP3    H115543   1.398   0.408   3.835
 5193TIP3    H215544   1.407   0.469   3.973
 5194TIP3   OH215545   0.467   4.790   1.490
 5194TIP3    H115546   0.542   4.824   1.540
 5194TIP3    H215547   0.393   4.843   1.521
 5195TIP3   OH215548   6.312   5.495   2.634
 5195TIP3    H115549   6.222   5.497   2.603
 5195TIP3    H215550   6.307   5.516   2.727
 5196TIP3   OH215551   0.649   6.015   4.347
 5196TIP3    H115552   0.562   5.995   4.380
 5196TIP3    H215553   0.697   6.046   4.424
 5197TIP3   OH215554   2.701   4.225   0.484
 5197TIP3    H115555   2.728   4.138   0.515
 5197TIP3    H215556   2.738   4.286   0.547
 5198TIP3   OH215557   5.806   2.489   3.337
 5198TIP3    H115558   5.787   2.432   3.262
 5198TIP3    H215559   5.741   2.465   3.402
 5199TIP3   OH215560   6.435   2.954   5.744
 5199TIP3    H115561   6.470   3.015   5.810
 5199TIP3    H215562   6.361   3.001   5.706
 5200TIP3   OH215563   6.749   1.543   1.128
 5200TIP3    H115564   6.670   1.519   1.079
 5200TIP3    H215565   6.717   1.586   1.207
 5201TIP3   OH215566   4.339   1.806   2.154
 5201TIP3    H115567   4.362   1.733   2.212
 5201TIP3    H215568   4.259   1.841   2.192
 5202TIP3   OH215569   5.796   3.301   5.049
 5202TIP3    H115570   5.736   3.375   5.044
 5202TIP3    H215571   5.801   3.281   5.142
 5203TIP3   OH215572   4.651   3.776   3.203
 5203TIP3    H115573   4.624   3.772   3.295
 5203TIP3    H215574   4.579   3.735   3.155
 5204TIP3   OH215575   1.053   3.293   0.536
 5204TIP3    H115576   1.113   3.366   0.522
 5204TIP3    H215577   1.020   3.273   0.448
 5205TIP3   OH215578   3.330   4.698   0.984
 5205TIP3    H115579   3.281   4.671   1.062
 5205TIP3    H215580   3.266   4.745   0.930
 5206TIP3   OH215581   2.135   1.573   5.003
 5206TIP3    H115582   2.125   1.588   4.909
 5206TIP3    H215583   2.056   1.526   5.029
 5207TIP3   OH215584   4.718   0.266   1.057
 5207TIP3    H115585   4.626   0.250   1.077
 5207TIP3    H215586   4.719   0.287   0.964
 5208TIP3   OH215587   4.385   2.226   1.615
 5208TIP3    H115588   4.437   2.220   1.535
 5208TIP3    H215589   4.438   2.182   1.682
 5209TIP3   OH215590   3.536   0.345   5.717
 5209TIP3    H115591   3.632   0.350   5.720
 5209TIP3    H215592   3.508   0.437   5.722
 5210TIP3   OH215593   2.183   6.244   1.480
 5210TIP3    H115594   2.245   6.171   1.481
 5210TIP3    H215595   2.196   6.289   1.564
 5211TIP3   OH215596   4.139   6.022   3.089
 5211TIP3    H115597   4.051   6.007   3.053
 5211TIP3    H215598   4.178   6.089   3.033
 5212TIP3   OH215599   2.681   6.067   2.486
 5212TIP3    H115600   2.656   6.142   2.541
 5212TIP3    H215601   2.599   6.036   2.449
 5213TIP3   OH215602   3.456   6.457   1.213
 5213TIP3    H115603   3.448   6.530   1.274
 5213TIP3    H215604   3.374   6.460   1.163
 5214TIP3   OH215605   0.964   4.959   3.585
 5214TIP3    H115606   0.912   4.924   3.513
 5214TIP3    H215607   1.034   4.895   3.598
 5215TIP3   OH215608   0.609   5.053   5.833
 5215TIP3    H115609   0.695   5.075   5.868
 5215TIP3    H215610   0.623   5.036   5.740
 5216TIP3   OH215611   1.118   3.776   3.293
 5216TIP3    H115612   1.123   3.867   3.322
 5216TIP3    H215613   1.027   3.750   3.311
 5217TIP3   OH215614   0.185   3.016   1.327
 5217TIP3    H115615   0.217   3.018   1.417
 5217TIP3    H215616   0.128   3.092   1.320
 5218TIP3   OH215617   2.139   3.492   0.060
 5218TIP3    H115618   2.222   3.517   0.100
 5218TIP3    H215619   2.125   3.559  -0.008
 5219TIP3   OH215620   3.092   6.270   5.136
 5219TIP3    H115621   3.129   6.270   5.048
 5219TIP3    H215622   3.126   6.350   5.177
 5220TIP3   OH215623   4.492   4.382   1.125
 5220TIP3    H115624   4.561   4.350   1.184
 5220TIP3    H215625   4.432   4.308   1.116
 5221TIP3   OH215626   5.806   0.822   5.709
 5221TIP3    H115627   5.839   0.773   5.785
 5221TIP3    H215628   5.877   0.882   5.687
 5222TIP3   OH215629   6.566   5.910   1.964
 5222TIP3    H115630   6.527   5.932   1.879
 5222TIP3    H215631   6.607   5.825   1.951
 5223TIP3   OH215632   6.065   4.502   2.182
 5223TIP3    H115633   6.095   4.480   2.270
 5223TIP3    H215634   5.983   4.550   2.197
 5224TIP3   OH215635   2.357   1.718   4.491
 5224TIP3    H115636   2.287   1.712   4.426
 5224TIP3    H215637   2.424   1.773   4.449
 5225TIP3   OH215638   4.995   1.660   3.384
 5225TIP3    H115639   4.972   1.727   3.449
 5225TIP3    H215640   4.917   1.653   3.328
 5226TIP3   OH215641   3.922   0.379   1.479
 5226TIP3    H115642   4.005   0.334   1.462
 5226TIP3    H215643   3.909   0.434   1.402
 5227TIP3   OH215644   4.927   1.395   2.239
 5227TIP3    H115645   4.956   1.447   2.164
 5227TIP3    H215646   5.006   1.381   2.291
 5228TIP3   OH215647   6.288   3.709   5.073
 5228TIP3    H115648   6.383   3.710   5.088
 5228TIP3    H215649   6.266   3.617   5.067
 5229TIP3   OH215650   7.135   2.439   2.945
 5229TIP3    H115651   7.112   2.470   2.858
 5229TIP3    H215652   7.188   2.361   2.930
 5230TIP3   OH215653   4.703   0.045   2.998
 5230TIP3    H115654   4.647  -0.028   2.975
 5230TIP3    H215655   4.744   0.071   2.915
 5231TIP3   OH215656   0.843   4.652   1.522
 5231TIP3    H115657   0.875   4.672   1.610
 5231TIP3    H215658   0.760   4.606   1.537
 5232TIP3   OH215659   5.897   1.130   4.643
 5232TIP3    H115660   5.829   1.189   4.676
 5232TIP3    H215661   5.924   1.080   4.719
 5233TIP3   OH215662   3.874   1.766   1.298
 5233TIP3    H115663   3.964   1.764   1.331
 5233TIP3    H215664   3.884   1.776   1.204
 5234TIP3   OH215665   5.986   1.242   1.823
 5234TIP3    H115666   5.930   1.299   1.874
 5234TIP3    H215667   5.931   1.212   1.750
 5235TIP3   OH215668   4.752   5.475   4.370
 5235TIP3    H115669   4.705   5.498   4.451
 5235TIP3    H215670   4.683   5.465   4.305
 5236TIP3   OH215671   4.325   2.089   5.645
 5236TIP3    H115672   4.272   2.056   5.573
 5236TIP3    H215673   4.414   2.093   5.610
 5237TIP3   OH215674   1.554   0.605   1.963
 5237TIP3    H115675   1.522   0.687   1.925
 5237TIP3    H215676   1.650   0.615   1.964
 5238TIP3   OH215677   0.865   4.277   4.003
 5238TIP3    H115678   0.855   4.273   3.908
 5238TIP3    H215679   0.826   4.196   4.035
 5239TIP3   OH215680   4.886   5.812   4.926
 5239TIP3    H115681   4.931   5.734   4.894
 5239TIP3    H215682   4.861   5.860   4.846
 5240TIP3   OH215683   6.407   4.236   1.957
 5240TIP3    H115684   6.407   4.325   1.921
 5240TIP3    H215685   6.488   4.197   1.923
 5241TIP3   OH215686   5.600   1.101   1.236
 5241TIP3    H115687   5.559   1.015   1.231
 5241TIP3    H215688   5.675   1.095   1.176
 5242TIP3   OH215689   5.236   5.176   1.691
 5242TIP3    H115690   5.193   5.092   1.705
 5242TIP3    H215691   5.283   5.166   1.609
 5243TIP3   OH215692   5.934   6.672   5.660
 5243TIP3    H115693   5.935   6.722   5.742
 5243TIP3    H215694   5.954   6.738   5.593
 5244TIP3   OH215695   2.405   0.857   2.833
 5244TIP3    H115696   2.357   0.786   2.878
 5244TIP3    H215697   2.336   0.911   2.795
 5245TIP3   OH215698   5.296   5.834   4.733
 5245TIP3    H115699   5.344   5.766   4.781
 5245TIP3    H215700   5.365   5.891   4.697
 5246TIP3   OH215701   3.154   5.158   2.648
 5246TIP3    H115702   3.115   5.206   2.575
 5246TIP3    H215703   3.235   5.205   2.668
 5247TIP3   OH215704   4.064   0.241   4.722
 5247TIP3    H115705   4.107   0.163   4.687
 5247TIP3    H215706   4.072   0.307   4.653
 5248TIP3   OH215707   0.745   0.291   1.044
 5248TIP3    H115708   0.777   0.336   1.122
 5248TIP3    H215709   0.651   0.306   1.045
 5249TIP3   OH215710   1.240   4.821   0.843
 5249TIP3    H115711   1.185   4.896   0.862
 5249TIP3    H215712   1.320   4.835   0.894
 5250TIP3   OH215713   6.586   0.250   5.854
 5250TIP3    H115714   6.490   0.248   5.858
 5250TIP3    H215715   6.608   0.341   5.836
 5251TIP3   OH215716   6.371   2.439   0.107
 5251TIP3    H115717   6.387   2.442   0.013
 5251TIP3    H215718   6.384   2.347   0.131
 5252TIP3   OH215719   3.344   0.339   1.339
 5252TIP3    H115720   3.361   0.307   1.250
 5252TIP3    H215721   3.285   0.274   1.377
 5253TIP3   OH215722   6.649   1.677   4.438
 5253TIP3    H115723   6.645   1.712   4.350
 5253TIP3    H215724   6.622   1.585   4.429
 5254TIP3   OH215725   1.447   4.084   5.062
 5254TIP3    H115726   1.492   4.001   5.080
 5254TIP3    H215727   1.376   4.060   5.002
 5255TIP3   OH215728   0.544   1.023   3.731
 5255TIP3    H115729   0.489   1.100   3.742
 5255TIP3    H215730   0.632   1.053   3.756
 5256TIP3   OH215731   2.896   0.615   2.223
 5256TIP3    H115732   2.955   0.685   2.196
 5256TIP3    H215733   2.852   0.649   2.301
 5257TIP3   OH215734   3.298   5.171   1.374
 5257TIP3    H115735   3.347   5.096   1.407
 5257TIP3    H215736   3.226   5.133   1.324
 5258TIP3   OH215737   1.108   1.640   1.628
 5258TIP3    H115738   1.015   1.620   1.621
 5258TIP3    H215739   1.112   1.735   1.627
 5259TIP3   OH215740   4.356   5.561   4.026
 5259TIP3    H115741   4.309   5.552   4.109
 5259TIP3    H215742   4.336   5.650   3.997
 5260TIP3   OH215743   5.723   5.057   1.748
 5260TIP3    H115744   5.630   5.069   1.769
 5260TIP3    H215745   5.765   5.136   1.782
 5261TIP3   OH215746   1.484   0.326   4.710
 5261TIP3    H115747   1.453   0.354   4.796
 5261TIP3    H215748   1.418   0.359   4.649
 5262TIP3   OH215749   5.396   2.786   3.669
 5262TIP3    H115750   5.463   2.844   3.705
 5262TIP3    H215751   5.443   2.704   3.649
 5263TIP3   OH215752   6.972   2.942   2.418
 5263TIP3    H115753   6.996   2.875   2.353
 5263TIP3    H215754   7.005   2.907   2.501
 5264TIP3   OH215755   0.086   5.493   4.030
 5264TIP3    H115756   0.002   5.495   4.075
 5264TIP3    H215757   0.122   5.581   4.042
 5265TIP3   OH215758   6.644   1.064   4.869
 5265TIP3    H115759   6.552   1.077   4.844
 5265TIP3    H215760   6.651   0.970   4.887
 5266TIP3   OH215761   0.168   4.010   5.123
 5266TIP3    H115762   0.077   4.012   5.150
 5266TIP3    H215763   0.180   4.089   5.071
 5267TIP3   OH215764   4.160   0.795   4.716
 5267TIP3    H115765   4.090   0.808   4.780
 5267TIP3    H215766   4.117   0.807   4.631
 5268TIP3   OH215767   0.232   1.559   4.309
 5268TIP3    H115768   0.257   1.499   4.379
 5268TIP3    H215769   0.271   1.643   4.334
 5269TIP3   OH215770   5.742   2.418   0.127
 5269TIP3    H115771   5.693   2.364   0.190
 5269TIP3    H215772   5.834   2.400   0.146
 5270TIP3   OH215773   4.497   2.004   1.741
 5270TIP3    H115774   4.543   1.982   1.660
 5270TIP3    H215775   4.542   1.954   1.809
 5271TIP3   OH215776   5.390   1.948   1.841
 5271TIP3    H115777   5.410   1.855   1.839
 5271TIP3    H215778   5.301   1.953   1.875
 5272TIP3   OH215779   5.624   3.611   0.992
 5272TIP3    H115780   5.554   3.551   1.020
 5272TIP3    H215781   5.598   3.696   1.027
 5273TIP3   OH215782   1.588   5.597   5.777
 5273TIP3    H115783   1.677   5.596   5.740
 5273TIP3    H215784   1.601   5.576   5.869
 5274TIP3   OH215785   0.566   4.984   3.925
 5274TIP3    H115786   0.502   5.019   3.987
 5274TIP3    H215787   0.605   4.910   3.970
 5275TIP3   OH215788   1.366   1.625   2.001
 5275TIP3    H115789   1.425   1.698   2.016
 5275TIP3    H215790   1.415   1.548   2.032
 5276TIP3   OH215791   5.644   4.447   0.716
 5276TIP3    H115792   5.587   4.464   0.642
 5276TIP3    H215793   5.667   4.533   0.750
 5277TIP3   OH215794   2.502   1.071   0.546
 5277TIP3    H115795   2.594   1.049   0.549
 5277TIP3    H215796   2.456   0.987   0.538
 5278TIP3   OH215797   0.766   4.589   5.509
 5278TIP3    H115798   0.832   4.556   5.448
 5278TIP3    H215799   0.683   4.578   5.463
 5279TIP3   OH215800   5.631   1.739   3.328
 5279TIP3    H115801   5.639   1.696   3.413
 5279TIP3    H215802   5.537   1.754   3.316
 5280TIP3   OH215803   4.336   4.351   1.669
 5280TIP3    H115804   4.325   4.315   1.757
 5280TIP3    H215805   4.303   4.441   1.675
 5281TIP3   OH215806   1.393   4.602   5.716
 5281TIP3    H115807   1.357   4.525   5.672
 5281TIP3    H215808   1.471   4.624   5.665
 5282TIP3   OH215809   5.149   6.027   1.666
 5282TIP3    H115810   5.128   6.116   1.694
 5282TIP3    H215811   5.169   5.980   1.746
 5283TIP3   OH215812   4.205   6.742   0.997
 5283TIP3    H115813   4.240   6.677   1.058
 5283TIP3    H215814   4.126   6.774   1.040
 5284TIP3   OH215815   6.770   4.520   0.765
 5284TIP3    H115816   6.693   4.566   0.799
 5284TIP3    H215817   6.830   4.590   0.738
 5285TIP3   OH215818   1.356   3.689   4.733
 5285TIP3    H115819   1.301   3.766   4.728
 5285TIP3    H215820   1.396   3.681   4.646
 5286TIP3   OH215821   5.334   3.300   5.717
 5286TIP3    H115822   5.261   3.262   5.765
 5286TIP3    H215823   5.345   3.387   5.755
 5287TIP3   OH215824   6.044   2.717   1.218
 5287TIP3    H115825   6.043   2.671   1.134
 5287TIP3    H215826   5.956   2.705   1.253
 5288TIP3   OH215827   2.514   3.377   2.886
 5288TIP3    H115828   2.455   3.448   2.860
 5288TIP3    H215829   2.552   3.346   2.803
 5289TIP3   OH215830   0.982   4.120   2.502
 5289TIP3    H115831   1.014   4.099   2.415
 5289TIP3    H215832   1.060   4.120   2.558
 5290TIP3   OH215833   6.063   6.324   4.881
 5290TIP3    H115834   6.133   6.367   4.930
 5290TIP3    H215835   6.096   6.320   4.791
 5291TIP3   OH215836   1.323   0.979   0.426
 5291TIP3    H115837   1.260   1.046   0.400
 5291TIP3    H215838   1.366   1.015   0.503
 5292TIP3   OH215839   0.731   5.697   5.137
 5292TIP3    H115840   0.765   5.610   5.156
 5292TIP3    H215841   0.636   5.685   5.132
 5293TIP3   OH215842   6.404   2.233   4.320
 5293TIP3    H115843   6.494   2.262   4.332
 5293TIP3    H215844   6.405   2.140   4.343
 5294TIP3   OH215845   5.208   3.137   2.167
 5294TIP3    H115846   5.235   3.228   2.173
 5294TIP3    H215847   5.255   3.093   2.239
 5295TIP3   OH215848   5.646   4.012   0.173
 5295TIP3    H115849   5.668   4.017   0.080
 5295TIP3    H215850   5.606   4.097   0.192
 5296TIP3   OH215851   6.319   3.401   3.326
 5296TIP3    H115852   6.287   3.425   3.414
 5296TIP3    H215853   6.252   3.343   3.292
 5297TIP3   OH215854   2.424   1.630   5.044
 5297TIP3    H115855   2.445   1.593   4.958
 5297TIP3    H215856   2.330   1.617   5.053
 5298TIP3   OH215857   0.986   4.507   2.957
 5298TIP3    H115858   1.033   4.425   2.974
 5298TIP3    H215859   0.970   4.505   2.863
 5299TIP3   OH215860   1.276   2.948   4.938
 5299TIP3    H115861   1.287   2.882   5.006
 5299TIP3    H215862   1.358   2.948   4.890
 5300TIP3   OH215863   1.192   6.800   0.757
 5300TIP3    H115864   1.107   6.769   0.792
 5300TIP3    H215865   1.257   6.753   0.809
 5301TIP3   OH215866   5.262   5.747   4.099
 5301TIP3    H115867   5.212   5.675   4.061
 5301TIP3    H215868   5.294   5.713   4.182
 5302TIP3   OH215869   5.067   6.244   2.880
 5302TIP3    H115870   5.065   6.172   2.817
 5302TIP3    H215871   5.037   6.320   2.830
 5303TIP3   OH215872   1.191   4.116   1.710
 5303TIP3    H115873   1.226   4.041   1.662
 5303TIP3    H215874   1.260   4.183   1.704
 5304TIP3   OH215875   6.308   2.001   0.981
 5304TIP3    H115876   6.380   2.061   0.960
 5304TIP3    H215877   6.230   2.043   0.945
 5305TIP3   OH215878   0.573   5.849   3.309
 5305TIP3    H115879   0.611   5.789   3.245
 5305TIP3    H215880   0.640   5.855   3.378
 5306TIP3   OH215881   6.148   5.015   4.910
 5306TIP3    H115882   6.070   5.070   4.915
 5306TIP3    H215883   6.158   4.996   4.816
 5307TIP3   OH215884   4.199   4.709   4.957
 5307TIP3    H115885   4.270   4.715   5.020
 5307TIP3    H215886   4.119   4.720   5.009
 5308TIP3   OH215887   0.167   3.663   0.167
 5308TIP3    H115888   0.084   3.710   0.174
 5308TIP3    H215889   0.179   3.649   0.072
 5309TIP3   OH215890   5.713   4.957   0.634
 5309TIP3    H115891   5.705   5.037   0.582
 5309TIP3    H215892   5.749   4.892   0.573
 5310TIP3   OH215893   6.573   6.152   3.637
 5310TIP3    H115894   6.510   6.172   3.568
 5310TIP3    H215895   6.520   6.126   3.712
 5311TIP3   OH215896   5.886   6.051   5.265
 5311TIP3    H115897   5.885   6.136   5.220
 5311TIP3    H215898   5.816   6.001   5.223
 5312TIP3   OH215899   1.353   1.774   5.066
 5312TIP3    H115900   1.434   1.723   5.066
 5312TIP3    H215901   1.343   1.803   4.975
 5313TIP3   OH215902   1.422   1.227   0.968
 5313TIP3    H115903   1.370   1.257   1.042
 5313TIP3    H215904   1.480   1.301   0.948
 5314TIP3   OH215905   4.454   3.444   0.520
 5314TIP3    H115906   4.402   3.466   0.443
 5314TIP3    H215907   4.421   3.502   0.589
 5315TIP3   OH215908   3.703   5.508   2.734
 5315TIP3    H115909   3.662   5.533   2.817
 5315TIP3    H215910   3.676   5.417   2.720
 5316TIP3   OH215911   1.243   2.077   0.329
 5316TIP3    H115912   1.273   2.027   0.253
 5316TIP3    H215913   1.190   2.016   0.380
 5317TIP3   OH215914   1.711   4.263   5.078
 5317TIP3    H115915   1.650   4.289   5.009
 5317TIP3    H215916   1.715   4.168   5.072
 5318TIP3   OH215917   1.346   4.210   4.492
 5318TIP3    H115918   1.343   4.292   4.540
 5318TIP3    H215919   1.425   4.216   4.438
 5319TIP3   OH215920   2.957   0.474   2.935
 5319TIP3    H115921   2.936   0.416   3.008
 5319TIP3    H215922   2.915   0.557   2.958
 5320TIP3   OH215923   2.014   5.089   2.859
 5320TIP3    H115924   2.074   5.058   2.927
 5320TIP3    H215925   2.020   5.025   2.789
 5321TIP3   OH215926   0.640   2.604   1.458
 5321TIP3    H115927   0.600   2.517   1.452
 5321TIP3    H215928   0.583   2.654   1.515
 5322TIP3   OH215929   1.352   0.039   2.021
 5322TIP3    H115930   1.337   0.092   2.100
 5322TIP3    H215931   1.433  -0.008   2.040
 5323TIP3   OH215932   4.626   0.708   4.979
 5323TIP3    H115933   4.620   0.615   5.000
 5323TIP3    H215934   4.612   0.712   4.885
 5324TIP3   OH215935   0.117   3.464   0.577
 5324TIP3    H115936   0.048   3.482   0.640
 5324TIP3    H215937   0.117   3.369   0.568
 5325TIP3   OH215938   5.923   2.074   1.611
 5325TIP3    H115939   5.954   2.005   1.670
 5325TIP3    H215940   5.997   2.090   1.551
 5326TIP3   OH215941   3.180   5.097   1.684
 5326TIP3    H115942   3.216   5.034   1.745
 5326TIP3    H215943   3.227   5.081   1.602
 5327TIP3   OH215944   1.956   1.119   3.172
 5327TIP3    H115945   1.903   1.050   3.132
 5327TIP3    H215946   2.046   1.089   3.162
 5328TIP3   OH215947   6.292   4.251   5.905
 5328TIP3    H115948   6.211   4.276   5.861
 5328TIP3    H215949   6.344   4.331   5.909
 5329TIP3   OH215950   3.812   5.571   3.831
 5329TIP3    H115951   3.734   5.609   3.872
 5329TIP3    H215952   3.781   5.537   3.748
 5330TIP3   OH215953   2.087   2.237   0.087
 5330TIP3    H115954   2.043   2.206   0.166
 5330TIP3    H215955   2.165   2.282   0.120
 5331TIP3   OH215956   5.422   3.420   2.598
 5331TIP3    H115957   5.494   3.397   2.540
 5331TIP3    H215958   5.361   3.468   2.542
 5332TIP3   OH215959   2.760   4.722   2.510
 5332TIP3    H115960   2.697   4.651   2.504
 5332TIP3    H215961   2.813   4.700   2.587
 5333TIP3   OH215962   5.225   1.473   5.669
 5333TIP3    H115963   5.255   1.549   5.620
 5333TIP3    H215964   5.303   1.439   5.711
 5334TIP3   OH215965   1.326   4.924   4.747
 5334TIP3    H115966   1.289   4.983   4.814
 5334TIP3    H215967   1.291   4.838   4.769
 5335TIP3   OH215968   2.658   2.022   0.497
 5335TIP3    H115969   2.593   1.953   0.484
 5335TIP3    H215970   2.677   2.020   0.591
 5336TIP3   OH215971   3.089   4.216   3.017
 5336TIP3    H115972   3.056   4.130   2.988
 5336TIP3    H215973   3.170   4.228   2.968
 5337TIP3   OH215974   4.572   1.974   2.666
 5337TIP3    H115975   4.527   1.963   2.582
 5337TIP3    H215976   4.509   2.020   2.722
 5338TIP3   OH215977   0.856   3.757   4.692
 5338TIP3    H115978   0.882   3.665   4.686
 5338TIP3    H215979   0.781   3.756   4.751
 5339TIP3   OH215980   2.480   6.191   3.306
 5339TIP3    H115981   2.393   6.227   3.323
 5339TIP3    H215982   2.470   6.097   3.319
 5340TIP3   OH215983   2.938   3.983   5.302
 5340TIP3    H115984   3.028   3.955   5.321
 5340TIP3    H215985   2.936   4.075   5.326
 5341TIP3   OH215986   6.415   6.671   1.361
 5341TIP3    H115987   6.463   6.628   1.290
 5341TIP3    H215988   6.427   6.765   1.345
 5342TIP3   OH215989   6.567   6.598   5.711
 5342TIP3    H115990   6.502   6.616   5.779
 5342TIP3    H215991   6.639   6.556   5.757
 5343TIP3   OH215992   6.915   2.438   2.486
 5343TIP3    H115993   6.958   2.465   2.568
 5343TIP3    H215994   6.963   2.359   2.460
 5344TIP3   OH215995   4.350   3.502   2.968
 5344TIP3    H115996   4.311   3.468   3.049
 5344TIP3    H215997   4.275   3.537   2.919
 5345TIP3   OH215998   1.030   6.733   3.090
 5345TIP3    H115999   1.021   6.705   3.181
 5345TIP3    H216000   1.012   6.655   3.038
 5346TIP3   OH216001   2.408   5.390   4.752
 5346TIP3    H116002   2.325   5.419   4.789
 5346TIP3    H216003   2.437   5.320   4.810
 5347TIP3   OH216004   1.972   5.801   3.180
 5347TIP3    H116005   2.050   5.794   3.125
 5347TIP3    H216006   1.899   5.785   3.120
 5348TIP3   OH216007   6.791   6.256   1.266
 5348TIP3    H116008   6.756   6.251   1.355
 5348TIP3    H216009   6.784   6.167   1.233
 5349TIP3   OH216010   5.894   2.064   4.497
 5349TIP3    H116011   5.840   2.039   4.421
 5349TIP3    H216012   5.832   2.066   4.570
 5350TIP3   OH216013   0.050   4.295   1.404
 5350TIP3    H116014   0.000   4.341   1.336
 5350TIP3    H216015   0.027   4.203   1.392
 5351TIP3   OH216016   4.530   5.820   3.591
 5351TIP3    H116017   4.598   5.886   3.605
 5351TIP3    H216018   4.490   5.809   3.678
 5352TIP3   OH216019   4.224   6.617   4.778
 5352TIP3    H116020   4.149   6.668   4.809
 5352TIP3    H216021   4.201   6.592   4.688
 5353TIP3   OH216022   5.308   5.034   5.124
 5353TIP3    H116023   5.319   5.123   5.158
 5353TIP3    H216024   5.388   5.017   5.073
 5354TIP3   OH216025   0.736   6.173   0.781
 5354TIP3    H116026   0.642   6.156   0.792
 5354TIP3    H216027   0.777   6.130   0.857
 5355TIP3   OH216028   0.187   6.390   0.807
 5355TIP3    H116029   0.234   6.359   0.884
 5355TIP3    H216030   0.159   6.310   0.763
 5356TIP3   OH216031   5.064   0.066   2.375
 5356TIP3    H116032   5.120  -0.012   2.379
 5356TIP3    H216033   5.102   0.126   2.439
 5357TIP3   OH216034   3.698   5.430   1.288
 5357TIP3    H116035   3.731   5.341   1.304
 5357TIP3    H216036   3.720   5.447   1.197
 5358TIP3   OH216037   0.660   5.878   1.507
 5358TIP3    H116038   0.579   5.884   1.557
 5358TIP3    H216039   0.637   5.823   1.432
 5359TIP3   OH216040   0.710   0.170   4.658
 5359TIP3    H116041   0.669   0.248   4.696
 5359TIP3    H216042   0.741   0.198   4.572
 5360TIP3   OH216043   4.284   4.831   1.880
 5360TIP3    H116044   4.205   4.819   1.933
 5360TIP3    H216045   4.304   4.925   1.888
 5361TIP3   OH216046   5.288   0.159   4.693
 5361TIP3    H116047   5.351   0.162   4.621
 5361TIP3    H216048   5.341   0.139   4.770
 5362TIP3   OH216049   2.440   3.996   1.619
 5362TIP3    H116050   2.424   4.087   1.643
 5362TIP3    H216051   2.509   4.001   1.553
 5363TIP3   OH216052   4.514   6.705   3.421
 5363TIP3    H116053   4.583   6.669   3.366
 5363TIP3    H216054   4.434   6.662   3.392
 5364TIP3   OH216055   1.589   4.550   0.942
 5364TIP3    H116056   1.620   4.497   0.869
 5364TIP3    H216057   1.494   4.547   0.935
 5365TIP3   OH216058   3.305   4.679   3.824
 5365TIP3    H116059   3.311   4.739   3.898
 5365TIP3    H216060   3.232   4.711   3.772
 5366TIP3   OH216061   1.801   2.483   4.481
 5366TIP3    H116062   1.717   2.439   4.467
 5366TIP3    H216063   1.865   2.423   4.441
 5367TIP3   OH216064   1.779   1.276   1.901
 5367TIP3    H116065   1.812   1.198   1.945
 5367TIP3    H216066   1.819   1.274   1.814
 5368TIP3   OH216067   0.800   3.887   1.776
 5368TIP3    H116068   0.863   3.816   1.785
 5368TIP3    H216069   0.847   3.965   1.806
 5369TIP3   OH216070   4.496   5.092   2.110
 5369TIP3    H116071   4.522   5.159   2.046
 5369TIP3    H216072   4.413   5.058   2.076
 5370TIP3   OH216073   6.889   2.095   0.377
 5370TIP3    H116074   6.867   2.005   0.399
 5370TIP3    H216075   6.923   2.090   0.287
 5371TIP3   OH216076   4.244   0.400   3.988
 5371TIP3    H116077   4.280   0.469   3.933
 5371TIP3    H216078   4.236   0.439   4.075
 5372TIP3   OH216079   4.569   6.718   4.075
 5372TIP3    H116080   4.496   6.718   4.136
 5372TIP3    H216081   4.593   6.626   4.066
 5373TIP3   OH216082   4.329   2.466   1.716
 5373TIP3    H116083   4.346   2.378   1.681
 5373TIP3    H216084   4.299   2.516   1.640
 5374TIP3   OH216085   0.300   4.705   5.369
 5374TIP3    H116086   0.335   4.718   5.281
 5374TIP3    H216087   0.213   4.668   5.355
 5375TIP3   OH216088   4.459   4.152   2.091
 5375TIP3    H116089   4.552   4.174   2.101
 5375TIP3    H216090   4.415   4.201   2.159
 5376TIP3   OH216091   6.395   1.918   3.186
 5376TIP3    H116092   6.431   1.938   3.273
 5376TIP3    H216093   6.312   1.965   3.183
 5377TIP3   OH216094   0.469   5.546   2.823
 5377TIP3    H116095   0.408   5.479   2.854
 5377TIP3    H216096   0.556   5.508   2.838
 5378TIP3   OH216097   4.471   5.843   1.698
 5378TIP3    H116098   4.437   5.873   1.782
 5378TIP3    H216099   4.562   5.820   1.715
 5379TIP3   OH216100   5.719   2.671   4.188
 5379TIP3    H116101   5.809   2.702   4.177
 5379TIP3    H216102   5.675   2.743   4.234
 5380TIP3   OH216103   0.292   2.171   1.285
 5380TIP3    H116104   0.375   2.124   1.298
 5380TIP3    H216105   0.277   2.216   1.369
 5381TIP3   OH216106   2.500   4.487   1.559
 5381TIP3    H116107   2.407   4.508   1.560
 5381TIP3    H216108   2.544   4.570   1.578
 5382TIP3   OH216109   6.649   1.083   3.582
 5382TIP3    H116110   6.663   1.066   3.675
 5382TIP3    H216111   6.722   1.139   3.556
 5383TIP3   OH216112   2.845   2.701   4.630
 5383TIP3    H116113   2.829   2.621   4.680
 5383TIP3    H216114   2.759   2.730   4.603
 5384TIP3   OH216115   4.644   1.148   0.048
 5384TIP3    H116116   4.551   1.136   0.029
 5384TIP3    H216117   4.688   1.075   0.005
 5385TIP3   OH216118   2.151   3.789   2.002
 5385TIP3    H116119   2.203   3.861   2.039
 5385TIP3    H216120   2.215   3.723   1.977
 5386TIP3   OH216121   5.108   2.767   2.206
 5386TIP3    H116122   5.015   2.783   2.192
 5386TIP3    H216123   5.144   2.756   2.118
 5387TIP3   OH216124   5.683   2.092   4.028
 5387TIP3    H116125   5.731   2.159   3.978
 5387TIP3    H216126   5.605   2.137   4.060
 5388TIP3   OH216127   6.717   3.129   1.686
 5388TIP3    H116128   6.750   3.216   1.711
 5388TIP3    H216129   6.630   3.146   1.651
 5389TIP3   OH216130   5.155   0.510   4.974
 5389TIP3    H116131   5.087   0.570   5.003
 5389TIP3    H216132   5.143   0.503   4.880
 5390TIP3   OH216133   1.379   2.774   5.127
 5390TIP3    H116134   1.346   2.812   5.209
 5390TIP3    H216135   1.447   2.713   5.154
 5391TIP3   OH216136   1.608   3.189   2.275
 5391TIP3    H116137   1.513   3.194   2.287
 5391TIP3    H216138   1.640   3.151   2.358
 5392TIP3   OH216139   4.773   3.116   3.990
 5392TIP3    H116140   4.811   3.029   4.007
 5392TIP3    H216141   4.834   3.177   4.032
 5393TIP3   OH216142   2.008   6.056   4.051
 5393TIP3    H116143   1.990   6.024   4.139
 5393TIP3    H216144   1.925   6.049   4.005
 5394TIP3   OH216145   1.275   2.684   3.999
 5394TIP3    H116146   1.239   2.751   4.058
 5394TIP3    H216147   1.324   2.734   3.933
 5395TIP3   OH216148   2.893   1.405   1.184
 5395TIP3    H116149   2.972   1.451   1.211
 5395TIP3    H216150   2.906   1.315   1.212
 5396TIP3   OH216151   1.196   0.721   2.023
 5396TIP3    H116152   1.122   0.781   2.019
 5396TIP3    H216153   1.273   0.778   2.022
 5397TIP3   OH216154   6.645   3.566   0.216
 5397TIP3    H116155   6.701   3.591   0.290
 5397TIP3    H216156   6.690   3.602   0.140
 5398TIP3   OH216157   4.919   1.539   0.143
 5398TIP3    H116158   4.874   1.571   0.065
 5398TIP3    H216159   5.012   1.543   0.121
 5399TIP3   OH216160   3.384   5.750   1.948
 5399TIP3    H116161   3.310   5.726   1.892
 5399TIP3    H216162   3.389   5.846   1.940
 5400TIP3   OH216163   5.328   1.890   3.499
 5400TIP3    H116164   5.275   1.967   3.520
 5400TIP3    H216165   5.305   1.868   3.409
 5401TIP3   OH216166   6.950   2.757   5.259
 5401TIP3    H116167   6.879   2.698   5.285
 5401TIP3    H216168   6.960   2.817   5.332
 5402TIP3   OH216169   2.080   5.905   4.907
 5402TIP3    H116170   2.075   5.823   4.957
 5402TIP3    H216171   2.147   5.956   4.952
 5403TIP3   OH216172   5.966   5.376   4.871
 5403TIP3    H116173   6.018   5.332   4.938
 5403TIP3    H216174   5.936   5.306   4.813
 5404TIP3   OH216175   0.564   1.642   0.897
 5404TIP3    H116176   0.487   1.641   0.953
 5404TIP3    H216177   0.597   1.553   0.899
 5405TIP3   OH216178   6.433   3.729   4.802
 5405TIP3    H116179   6.498   3.789   4.766
 5405TIP3    H216180   6.363   3.787   4.833
 5406TIP3   OH216181   4.084   5.797   1.757
 5406TIP3    H116182   4.087   5.726   1.821
 5406TIP3    H216183   3.992   5.808   1.736
 5407TIP3   OH216184   1.676   2.559   5.186
 5407TIP3    H116185   1.733   2.617   5.135
 5407TIP3    H216186   1.674   2.598   5.273
 5408TIP3   OH216187   3.159   1.013   1.087
 5408TIP3    H116188   3.179   0.953   1.159
 5408TIP3    H216189   3.220   0.989   1.018
 5409TIP3   OH216190   4.440   4.854   2.921
 5409TIP3    H116191   4.487   4.856   3.005
 5409TIP3    H216192   4.439   4.946   2.893
 5410TIP3   OH216193   2.884   3.829   1.253
 5410TIP3    H116194   2.939   3.893   1.299
 5410TIP3    H216195   2.811   3.880   1.220
 5411TIP3   OH216196   6.132   6.795   3.479
 5411TIP3    H116197   6.125   6.871   3.422
 5411TIP3    H216198   6.182   6.731   3.428
 5412TIP3   OH216199   2.371   3.157   3.984
 5412TIP3    H116200   2.312   3.232   3.993
 5412TIP3    H216201   2.335   3.106   3.912
 5413TIP3   OH216202   3.866   1.495   0.228
 5413TIP3    H116203   3.789   1.472   0.281
 5413TIP3    H216204   3.837   1.484   0.137
 5414TIP3   OH216205   3.694   1.992   4.253
 5414TIP3    H116206   3.780   2.026   4.277
 5414TIP3    H216207   3.710   1.901   4.228
 5415TIP3   OH216208   2.829   6.727   4.991
 5415TIP3    H116209   2.775   6.667   4.939
 5415TIP3    H216210   2.869   6.671   5.058
 5416TIP3   OH216211   1.468   3.366   0.652
 5416TIP3    H116212   1.525   3.343   0.579
 5416TIP3    H216213   1.400   3.298   0.651
 5417TIP3   OH216214   5.395   5.440   2.762
 5417TIP3    H116215   5.396   5.455   2.856
 5417TIP3    H216216   5.308   5.404   2.745
 5418TIP3   OH216217   2.517   4.222   2.346
 5418TIP3    H116218   2.454   4.244   2.277
 5418TIP3    H216219   2.596   4.195   2.300
 5419TIP3   OH216220   4.304   0.471   2.069
 5419TIP3    H116221   4.396   0.452   2.053
 5419TIP3    H216222   4.279   0.532   1.999
 5420TIP3   OH216223   6.031   3.896   4.020
 5420TIP3    H116224   6.069   3.819   3.978
 5420TIP3    H216225   5.939   3.895   3.993
 5421TIP3   OH216226   5.278   6.234   1.391
 5421TIP3    H116227   5.330   6.277   1.460
 5421TIP3    H216228   5.327   6.250   1.311
 5422TIP3   OH216229   7.023   1.656   5.213
 5422TIP3    H116230   7.084   1.703   5.270
 5422TIP3    H216231   7.046   1.684   5.124
 5423TIP3   OH216232   0.453   0.240   3.625
 5423TIP3    H116233   0.498   0.170   3.577
 5423TIP3    H216234   0.415   0.295   3.556
 5424TIP3   OH216235   3.323   0.906   0.905
 5424TIP3    H116236   3.403   0.885   0.954
 5424TIP3    H216237   3.302   0.825   0.858
 5425TIP3   OH216238   2.927   2.518   3.943
 5425TIP3    H116239   2.864   2.459   3.986
 5425TIP3    H216240   2.979   2.553   4.015
 5426TIP3   OH216241   3.919   3.589   5.416
 5426TIP3    H116242   3.945   3.515   5.471
 5426TIP3    H216243   3.934   3.558   5.327
 5427TIP3   OH216244   3.761   1.789   0.088
 5427TIP3    H116245   3.695   1.722   0.107
 5427TIP3    H216246   3.723   1.841   0.018
 5428TIP3   OH216247   2.056   0.527   2.797
 5428TIP3    H116248   2.109   0.522   2.717
 5428TIP3    H216249   2.099   0.467   2.858
 5429TIP3   OH216250   5.773   1.647   1.906
 5429TIP3    H116251   5.798   1.737   1.884
 5429TIP3    H216252   5.727   1.615   1.828
 5430TIP3   OH216253   6.312   5.232   3.710
 5430TIP3    H116254   6.354   5.257   3.628
 5430TIP3    H216255   6.381   5.244   3.776
 5431TIP3   OH216256   1.356   4.381   1.658
 5431TIP3    H116257   1.437   4.388   1.608
 5431TIP3    H216258   1.289   4.413   1.598
 5432TIP3   OH216259   1.637   2.521   3.870
 5432TIP3    H116260   1.716   2.509   3.817
 5432TIP3    H216261   1.582   2.580   3.818
 5433TIP3   OH216262   4.026   4.644   0.991
 5433TIP3    H116263   4.029   4.738   1.009
 5433TIP3    H216264   4.020   4.603   1.077
 5434TIP3   OH216265   3.510   5.259   3.791
 5434TIP3    H116266   3.448   5.193   3.820
 5434TIP3    H216267   3.463   5.309   3.725
 5435TIP3   OH216268   5.905   5.673   4.884
 5435TIP3    H116269   5.832   5.681   4.823
 5435TIP3    H216270   5.937   5.584   4.872
 5436TIP3   OH216271   6.811   1.787   0.944
 5436TIP3    H116272   6.837   1.791   1.036
 5436TIP3    H216273   6.722   1.751   0.946
 5437TIP3   OH216274   4.683   0.437   3.216
 5437TIP3    H116275   4.654   0.508   3.160
 5437TIP3    H216276   4.602   0.398   3.250
 5438TIP3   OH216277   4.734   4.428   0.508
 5438TIP3    H116278   4.822   4.459   0.486
 5438TIP3    H216279   4.706   4.378   0.432
 5439TIP3   OH216280   3.831   3.224   3.398
 5439TIP3    H116281   3.849   3.271   3.480
 5439TIP3    H216282   3.736   3.231   3.386
 5440TIP3   OH216283   6.378   1.443   1.292
 5440TIP3    H116284   6.324   1.521   1.281
 5440TIP3    H216285   6.457   1.461   1.242
 5441TIP3   OH216286   2.761   2.665   5.045
 5441TIP3    H116287   2.721   2.582   5.070
 5441TIP3    H216288   2.854   2.654   5.067
 5442TIP3   OH216289   1.491   3.705   3.084
 5442TIP3    H116290   1.547   3.729   3.158
 5442TIP3    H216291   1.418   3.658   3.123
 5443TIP3   OH216292   5.297   3.019   0.172
 5443TIP3    H116293   5.214   3.029   0.220
 5443TIP3    H216294   5.286   3.073   0.094
 5444TIP3   OH216295   5.606   3.186   1.787
 5444TIP3    H116296   5.552   3.153   1.715
 5444TIP3    H216297   5.685   3.132   1.784
 5445TIP3   OH216298   5.165   0.228   1.614
 5445TIP3    H116299   5.096   0.178   1.657
 5445TIP3    H216300   5.171   0.191   1.526
 5446TIP3   OH216301   5.942   1.915   3.046
 5446TIP3    H116302   5.944   1.981   3.115
 5446TIP3    H216303   5.861   1.933   2.998
 5447TIP3   OH216304   2.935   5.690   3.513
 5447TIP3    H116305   2.933   5.771   3.461
 5447TIP3    H216306   2.921   5.620   3.450
 5448TIP3   OH216307   0.547   1.583   4.443
 5448TIP3    H116308   0.521   1.522   4.375
 5448TIP3    H216309   0.500   1.554   4.521
 5449TIP3   OH216310   2.741   0.585   0.372
 5449TIP3    H116311   2.736   0.505   0.321
 5449TIP3    H216312   2.758   0.556   0.461
 5450TIP3   OH216313   1.272   1.933   3.995
 5450TIP3    H116314   1.308   2.000   4.054
 5450TIP3    H216315   1.246   1.861   4.053
 5451TIP3   OH216316   3.203   3.174   0.045
 5451TIP3    H116317   3.206   3.183  -0.051
 5451TIP3    H216318   3.261   3.100   0.063
 5452TIP3   OH216319   0.259   1.241   4.058
 5452TIP3    H116320   0.258   1.165   4.000
 5452TIP3    H216321   0.192   1.300   4.023
 5453TIP3   OH216322   2.813   1.756   3.722
 5453TIP3    H116323   2.755   1.754   3.797
 5453TIP3    H216324   2.852   1.669   3.719
 5454TIP3   OH216325   3.448   5.991   1.420
 5454TIP3    H116326   3.395   6.065   1.451
 5454TIP3    H216327   3.387   5.919   1.410
 5455TIP3   OH216328   5.728   5.339   5.047
 5455TIP3    H116329   5.767   5.388   4.975
 5455TIP3    H216330   5.769   5.377   5.126
 5456TIP3   OH216331   3.460   0.334   4.108
 5456TIP3    H116332   3.386   0.330   4.047
 5456TIP3    H216333   3.524   0.272   4.071
 5457TIP3   OH216334   4.895   4.322   1.900
 5457TIP3    H116335   4.909   4.239   1.944
 5457TIP3    H216336   4.802   4.341   1.913
 5458TIP3   OH216337   0.691   3.525   5.429
 5458TIP3    H116338   0.644   3.564   5.502
 5458TIP3    H216339   0.660   3.573   5.352
 5459TIP3   OH216340   6.352   0.852   4.954
 5459TIP3    H116341   6.321   0.906   4.881
 5459TIP3    H216342   6.439   0.823   4.928
 5460TIP3   OH216343   4.064   5.511   4.592
 5460TIP3    H116344   4.096   5.602   4.591
 5460TIP3    H216345   3.980   5.517   4.639
 5461TIP3   OH216346   3.289   1.128   4.580
 5461TIP3    H116347   3.273   1.219   4.606
 5461TIP3    H216348   3.227   1.113   4.508
 5462TIP3   OH216349   3.279   5.809   1.303
 5462TIP3    H116350   3.196   5.852   1.283
 5462TIP3    H216351   3.269   5.720   1.269
 5463TIP3   OH216352   2.074   0.855   0.224
 5463TIP3    H116353   2.101   0.798   0.152
 5463TIP3    H216354   2.121   0.937   0.208
 5464TIP3   OH216355   0.612   6.095   0.474
 5464TIP3    H116356   0.632   6.067   0.563
 5464TIP3    H216357   0.651   6.183   0.467
 5465TIP3   OH216358   2.396   0.025   4.926
 5465TIP3    H116359   2.365   0.115   4.929
 5465TIP3    H216360   2.469   0.025   4.865
 5466TIP3   OH216361   0.547   1.299   4.037
 5466TIP3    H116362   0.468   1.281   3.986
 5466TIP3    H216363   0.520   1.369   4.097
 5467TIP3   OH216364   2.024   4.994   1.808
 5467TIP3    H116365   2.037   5.075   1.857
 5467TIP3    H216366   2.026   5.020   1.716
 5468TIP3   OH216367   5.187   6.460   1.619
 5468TIP3    H116368   5.091   6.455   1.622
 5468TIP3    H216369   5.212   6.482   1.709
 5469TIP3   OH216370   2.519   2.014   0.252
 5469TIP3    H116371   2.589   2.079   0.241
 5469TIP3    H216372   2.477   2.038   0.335
 5470TIP3   OH216373   3.870   2.259   3.301
 5470TIP3    H116374   3.942   2.254   3.365
 5470TIP3    H216375   3.891   2.335   3.248
 5471TIP3   OH216376   3.610   6.519   3.524
 5471TIP3    H116377   3.608   6.559   3.611
 5471TIP3    H216378   3.551   6.444   3.530
 5472TIP3   OH216379   3.060   6.219   4.087
 5472TIP3    H116380   3.120   6.240   4.016
 5472TIP3    H216381   3.013   6.301   4.104
 5473TIP3   OH216382   6.639   4.831   3.157
 5473TIP3    H116383   6.574   4.820   3.087
 5473TIP3    H216384   6.718   4.860   3.113
 5474TIP3   OH216385   1.135   6.040   1.455
 5474TIP3    H116386   1.070   5.990   1.406
 5474TIP3    H216387   1.101   6.043   1.544
 5475TIP3   OH216388   2.833   0.849   1.425
 5475TIP3    H116389   2.854   0.758   1.445
 5475TIP3    H216390   2.852   0.858   1.331
 5476TIP3   OH216391   2.504   0.003   0.469
 5476TIP3    H116392   2.588  -0.019   0.510
 5476TIP3    H216393   2.441   0.003   0.541
 5477TIP3   OH216394   4.763   6.378   1.122
 5477TIP3    H116395   4.826   6.326   1.073
 5477TIP3    H216396   4.816   6.437   1.175
 5478TIP3   OH216397   6.065   0.774   2.887
 5478TIP3    H116398   6.031   0.744   2.803
 5478TIP3    H216399   6.134   0.837   2.864
 5479TIP3   OH216400   1.794   0.705   1.904
 5479TIP3    H116401   1.888   0.711   1.920
 5479TIP3    H216402   1.769   0.794   1.877
 5480TIP3   OH216403   4.658   4.123   3.075
 5480TIP3    H116404   4.593   4.070   3.029
 5480TIP3    H216405   4.607   4.179   3.133
 5481TIP3   OH216406   6.812   4.495   0.381
 5481TIP3    H116407   6.722   4.468   0.361
 5481TIP3    H216408   6.808   4.590   0.387
 5482TIP3   OH216409   6.749   1.289   0.444
 5482TIP3    H116410   6.655   1.307   0.435
 5482TIP3    H216411   6.754   1.230   0.519
 5483TIP3   OH216412   4.145   5.132   3.314
 5483TIP3    H116413   4.154   5.074   3.239
 5483TIP3    H216414   4.228   5.177   3.321
 5484TIP3   OH216415   6.566   3.360   3.439
 5484TIP3    H116416   6.605   3.448   3.437
 5484TIP3    H216417   6.480   3.372   3.399
 5485TIP3   OH216418   0.694   5.833   1.952
 5485TIP3    H116419   0.605   5.851   1.922
 5485TIP3    H216420   0.726   5.765   1.893
 5486TIP3   OH216421   5.502   4.676   5.011
 5486TIP3    H116422   5.491   4.760   4.966
 5486TIP3    H216423   5.556   4.624   4.952
 5487TIP3   OH216424   6.397   2.596   3.003
 5487TIP3    H116425   6.423   2.676   3.047
 5487TIP3    H216426   6.479   2.558   2.970
 5488TIP3   OH216427   4.012   1.116   0.032
 5488TIP3    H116428   3.989   1.158  -0.051
 5488TIP3    H216429   3.957   1.159   0.097
 5489TIP3   OH216430   4.845   4.257   3.336
 5489TIP3    H116431   4.779   4.220   3.396
 5489TIP3    H216432   4.825   4.350   3.334
 5490TIP3   OH216433   3.684   3.435   3.915
 5490TIP3    H116434   3.642   3.361   3.959
 5490TIP3    H216435   3.611   3.484   3.876
 5491TIP3   OH216436   2.000   6.084   3.288
 5491TIP3    H116437   1.992   6.092   3.383
 5491TIP3    H216438   2.015   5.991   3.273
 5492TIP3   OH216439   6.558   5.109   1.963
 5492TIP3    H116440   6.494   5.109   2.034
 5492TIP3    H216441   6.590   5.200   1.960
 5493TIP3   OH216442   4.296   3.949   2.260
 5493TIP3    H116443   4.270   4.040   2.276
 5493TIP3    H216444   4.264   3.902   2.336
 5494TIP3   OH216445   6.385   1.751   0.216
 5494TIP3    H116446   6.365   1.771   0.124
 5494TIP3    H216447   6.299   1.742   0.257
 5495TIP3   OH216448   1.250   4.011   0.743
 5495TIP3    H116449   1.292   4.097   0.751
 5495TIP3    H216450   1.320   3.948   0.763
 5496TIP3   OH216451   6.227   5.686   5.219
 5496TIP3    H116452   6.159   5.752   5.207
 5496TIP3    H216453   6.226   5.635   5.137
 5497TIP3   OH216454   4.364   3.562   5.086
 5497TIP3    H116455   4.426   3.632   5.067
 5497TIP3    H216456   4.314   3.594   5.161
 5498TIP3   OH216457   3.238   1.312   3.815
 5498TIP3    H116458   3.248   1.343   3.725
 5498TIP3    H216459   3.189   1.230   3.807
 5499TIP3   OH216460   3.245   3.301   4.962
 5499TIP3    H116461   3.256   3.208   4.942
 5499TIP3    H216462   3.160   3.324   4.926
 5500TIP3   OH216463   1.815   1.380   5.464
 5500TIP3    H116464   1.898   1.332   5.469
 5500TIP3    H216465   1.772   1.346   5.386
 5501TIP3   OH216466   4.185   3.079   5.532
 5501TIP3    H116467   4.164   2.995   5.573
 5501TIP3    H216468   4.274   3.099   5.561
 5502TIP3   OH216469   4.210   6.746   5.153
 5502TIP3    H116470   4.193   6.660   5.193
 5502TIP3    H216471   4.304   6.758   5.163
 5503TIP3   OH216472   3.183   0.583   2.835
 5503TIP3    H116473   3.117   0.532   2.883
 5503TIP3    H216474   3.148   0.672   2.834
 5504TIP3   OH216475   5.348   5.604   0.768
 5504TIP3    H116476   5.295   5.525   0.763
 5504TIP3    H216477   5.308   5.665   0.706
 5505TIP3   OH216478   0.915   4.049   2.869
 5505TIP3    H116479   0.829   4.066   2.830
 5505TIP3    H216480   0.976   4.098   2.814
 5506TIP3   OH216481   1.881   3.862   3.631
 5506TIP3    H116482   1.890   3.873   3.726
 5506TIP3    H216483   1.800   3.811   3.621
 5507TIP3   OH216484   0.185   3.714   3.947
 5507TIP3    H116485   0.106   3.660   3.956
 5507TIP3    H216486   0.257   3.654   3.969
 5508TIP3   OH216487   4.400   0.786   2.916
 5508TIP3    H116488   4.465   0.730   2.958
 5508TIP3    H216489   4.374   0.847   2.985
 5509TIP3   OH216490   6.331   6.257   3.012
 5509TIP3    H116491   6.292   6.186   3.064
 5509TIP3    H216492   6.306   6.237   2.922
 5510TIP3   OH216493   0.441   2.782   1.547
 5510TIP3    H116494   0.400   2.715   1.493
 5510TIP3    H216495   0.370   2.820   1.598
 5511TIP3   OH216496   7.039   5.053   1.900
 5511TIP3    H116497   7.097   5.008   1.961
 5511TIP3    H216498   7.037   5.144   1.930
 5512TIP3   OH216499   3.379   6.710   0.578
 5512TIP3    H116500   3.434   6.639   0.610
 5512TIP3    H216501   3.307   6.715   0.641
 5513TIP3   OH216502   2.979   3.340   0.016
 5513TIP3    H116503   3.037   3.286   0.070
 5513TIP3    H216504   2.891   3.317   0.045
 5514TIP3   OH216505   5.876   2.826   3.767
 5514TIP3    H116506   5.962   2.826   3.809
 5514TIP3    H216507   5.836   2.743   3.794
 5515TIP3   OH216508   4.694   3.073   2.245
 5515TIP3    H116509   4.737   3.154   2.273
 5515TIP3    H216510   4.619   3.103   2.193
 5516TIP3   OH216511   2.996   6.088   4.668
 5516TIP3    H116512   3.066   6.127   4.720
 5516TIP3    H216513   2.996   5.996   4.694
 5517TIP3   OH216514   0.558   3.252   1.815
 5517TIP3    H116515   0.463   3.249   1.824
 5517TIP3    H216516   0.580   3.177   1.760
 5518TIP3   OH216517   4.134   1.020   0.963
 5518TIP3    H116518   4.102   0.972   0.886
 5518TIP3    H216519   4.193   0.958   1.006
 5519TIP3   OH216520   2.108   5.644   1.238
 5519TIP3    H116521   2.178   5.673   1.179
 5519TIP3    H216522   2.149   5.641   1.324
 5520TIP3   OH216523   6.853   6.618   1.756
 5520TIP3    H116524   6.819   6.632   1.667
 5520TIP3    H216525   6.822   6.693   1.806
 5521TIP3   OH216526   1.882   5.883   1.016
 5521TIP3    H116527   1.976   5.902   1.019
 5521TIP3    H216528   1.845   5.933   1.088
 5522TIP3   OH216529   1.874   0.993   4.455
 5522TIP3    H116530   1.832   1.003   4.370
 5522TIP3    H216531   1.802   0.988   4.517
 5523TIP3   OH216532   6.186   6.107   3.488
 5523TIP3    H116533   6.199   6.012   3.490
 5523TIP3    H216534   6.091   6.119   3.486
 5524TIP3   OH216535   3.460   5.585  -0.006
 5524TIP3    H116536   3.498   5.648  -0.068
 5524TIP3    H216537   3.471   5.500  -0.048
 5525TIP3   OH216538   2.141   5.980   1.038
 5525TIP3    H116539   2.169   6.003   1.127
 5525TIP3    H216540   2.107   6.062   1.001
 5526TIP3   OH216541   2.188   2.219   3.651
 5526TIP3    H116542   2.268   2.175   3.622
 5526TIP3    H216543   2.165   2.277   3.579
 5527TIP3   OH216544   2.815   3.471   4.411
 5527TIP3    H116545   2.784   3.393   4.365
 5527TIP3    H216546   2.909   3.455   4.423
 5528TIP3   OH216547   2.430   3.326   0.500
 5528TIP3    H116548   2.345   3.294   0.530
 5528TIP3    H216549   2.422   3.327   0.405
 5529TIP3   OH216550   4.580   4.495   5.709
 5529TIP3    H116551   4.529   4.451   5.641
 5529TIP3    H216552   4.670   4.466   5.694
 5530TIP3   OH216553   3.277   3.111   5.469
 5530TIP3    H116554   3.304   3.055   5.543
 5530TIP3    H216555   3.262   3.197   5.509
 5531TIP3   OH216556   1.368   5.404   5.222
 5531TIP3    H116557   1.433   5.336   5.204
 5531TIP3    H216558   1.359   5.404   5.317
 5532TIP3   OH216559   1.804   5.272   5.585
 5532TIP3    H116560   1.796   5.323   5.505
 5532TIP3    H216561   1.873   5.316   5.635
 5533TIP3   OH216562   5.595   5.213   1.352
 5533TIP3    H116563   5.645   5.132   1.363
 5533TIP3    H216564   5.505   5.188   1.375
 5534TIP3   OH216565   1.394   4.080   1.440
 5534TIP3    H116566   1.325   4.143   1.421
 5534TIP3    H216567   1.363   3.998   1.401
 5535TIP3   OH216568   5.835   2.041   2.016
 5535TIP3    H116569   5.864   1.998   2.097
 5535TIP3    H216570   5.881   1.994   1.946
 5536TIP3   OH216571   0.844   0.573   5.720
 5536TIP3    H116572   0.835   0.533   5.634
 5536TIP3    H216573   0.787   0.650   5.717
 5537TIP3   OH216574   3.444   0.376   2.976
 5537TIP3    H116575   3.460   0.424   3.057
 5537TIP3    H216576   3.375   0.313   2.999
 5538TIP3   OH216577   1.423   5.104   3.568
 5538TIP3    H116578   1.433   5.192   3.531
 5538TIP3    H216579   1.361   5.061   3.509
 5539TIP3   OH216580   4.652   0.275   2.760
 5539TIP3    H116581   4.640   0.180   2.764
 5539TIP3    H216582   4.589   0.304   2.694
 5540TIP3   OH216583   3.410   0.912   3.125
 5540TIP3    H116584   3.383   0.963   3.048
 5540TIP3    H216585   3.330   0.866   3.152
 5541TIP3   OH216586   6.731   3.489   3.132
 5541TIP3    H116587   6.794   3.553   3.099
 5541TIP3    H216588   6.649   3.510   3.086
 5542TIP3   OH216589   0.513   4.347   0.832
 5542TIP3    H116590   0.579   4.370   0.898
 5542TIP3    H216591   0.461   4.278   0.872
 5543TIP3   OH216592   6.165   2.327   0.404
 5543TIP3    H116593   6.241   2.275   0.377
 5543TIP3    H216594   6.091   2.268   0.393
 5544TIP3   OH216595   2.295   0.634   1.836
 5544TIP3    H116596   2.231   0.673   1.776
 5544TIP3    H216597   2.259   0.651   1.923
 5545TIP3   OH216598   5.889   5.416   5.292
 5545TIP3    H116599   5.833   5.491   5.275
 5545TIP3    H216600   5.910   5.423   5.385
 5546TIP3   OH216601   0.126   4.510   1.572
 5546TIP3    H116602   0.102   4.443   1.508
 5546TIP3    H216603   0.137   4.590   1.519
 5547TIP3   OH216604   3.762   2.068   0.881
 5547TIP3    H116605   3.683   2.027   0.845
 5547TIP3    H216606   3.751   2.060   0.976
 5548TIP3   OH216607   5.518   5.610   2.006
 5548TIP3    H116608   5.549   5.668   1.937
 5548TIP3    H216609   5.423   5.611   1.998
 5549TIP3   OH216610   3.645   3.640   0.151
 5549TIP3    H116611   3.615   3.660   0.240
 5549TIP3    H216612   3.665   3.726   0.114
 5550TIP3   OH216613   6.290   6.387   1.719
 5550TIP3    H116614   6.256   6.368   1.806
 5550TIP3    H216615   6.256   6.474   1.698
 5551TIP3   OH216616   4.044   2.387   5.700
 5551TIP3    H116617   4.137   2.390   5.722
 5551TIP3    H216618   4.002   2.345   5.775
 5552TIP3   OH216619   3.638   6.488   3.268
 5552TIP3    H116620   3.614   6.490   3.361
 5552TIP3    H216621   3.698   6.562   3.258
 5553TIP3   OH216622   6.134   2.982   2.354
 5553TIP3    H116623   6.095   3.055   2.401
 5553TIP3    H216624   6.060   2.929   2.326
 5554TIP3   OH216625   1.440   2.167   4.594
 5554TIP3    H116626   1.453   2.096   4.531
 5554TIP3    H216627   1.523   2.171   4.642
 5555TIP3   OH216628   0.284   1.019   5.417
 5555TIP3    H116629   0.366   1.067   5.409
 5555TIP3    H216630   0.290   0.975   5.502
 5556TIP3   OH216631   3.144   2.185   0.364
 5556TIP3    H116632   3.209   2.229   0.419
 5556TIP3    H216633   3.096   2.257   0.322
 5557TIP3   OH216634   6.420   3.102   1.005
 5557TIP3    H116635   6.471   3.173   0.966
 5557TIP3    H216636   6.427   3.116   1.099
 5558TIP3   OH216637   0.438   0.577   3.826
 5558TIP3    H116638   0.433   0.493   3.870
 5558TIP3    H216639   0.436   0.642   3.896
 5559TIP3   OH216640   3.024   2.286   5.745
 5559TIP3    H116641   2.928   2.295   5.745
 5559TIP3    H216642   3.051   2.324   5.661
 5560TIP3   OH216643   5.569   2.030   3.020
 5560TIP3    H116644   5.477   2.027   3.046
 5560TIP3    H216645   5.569   2.017   2.926
 5561TIP3   OH216646   4.477   4.052   5.634
 5561TIP3    H116647   4.429   3.969   5.632
 5561TIP3    H216648   4.559   4.033   5.588
 5562TIP3   OH216649   5.299   2.661   1.225
 5562TIP3    H116650   5.298   2.750   1.191
 5562TIP3    H216651   5.258   2.668   1.312
 5563TIP3   OH216652   6.683   0.026   3.831
 5563TIP3    H116653   6.686  -0.043   3.897
 5563TIP3    H216654   6.761   0.010   3.777
 5564TIP3   OH216655   3.569   4.903   1.785
 5564TIP3    H116656   3.543   4.995   1.773
 5564TIP3    H216657   3.622   4.904   1.866
 5565TIP3   OH216658   3.773   6.738   3.363
 5565TIP3    H116659   3.832   6.805   3.398
 5565TIP3    H216660   3.820   6.656   3.379
 5566TIP3   OH216661   5.778   2.014   5.283
 5566TIP3    H116662   5.806   1.932   5.242
 5566TIP3    H216663   5.720   1.986   5.355
 5567TIP3   OH216664   6.898   5.857   2.782
 5567TIP3    H116665   6.917   5.812   2.864
 5567TIP3    H216666   6.804   5.873   2.784
 5568TIP3   OH216667   1.823   6.019   4.403
 5568TIP3    H116668   1.896   5.984   4.351
 5568TIP3    H216669   1.774   5.941   4.430
 5569TIP3   OH216670   2.333   2.092   3.427
 5569TIP3    H116671   2.258   2.122   3.376
 5569TIP3    H216672   2.408   2.136   3.387
 5570TIP3   OH216673   7.114   5.912   5.567
 5570TIP3    H116674   7.184   5.919   5.632
 5570TIP3    H216675   7.127   5.825   5.528
 5571TIP3   OH216676   5.627   5.562   5.378
 5571TIP3    H116677   5.585   5.482   5.410
 5571TIP3    H216678   5.669   5.599   5.456
 5572TIP3   OH216679   1.257   4.723   1.286
 5572TIP3    H116680   1.273   4.630   1.270
 5572TIP3    H216681   1.162   4.730   1.296
 5573TIP3   OH216682   1.962   6.212   0.294
 5573TIP3    H116683   1.994   6.214   0.384
 5573TIP3    H216684   2.034   6.173   0.244
 5574TIP3   OH216685   2.848   3.205   4.686
 5574TIP3    H116686   2.813   3.284   4.727
 5574TIP3    H216687   2.942   3.218   4.686
 5575TIP3   OH216688   6.402   6.277   3.476
 5575TIP3    H116689   6.373   6.334   3.547
 5575TIP3    H216690   6.330   6.213   3.467
 5576TIP3   OH216691   7.106   5.685   2.244
 5576TIP3    H116692   7.076   5.711   2.331
 5576TIP3    H216693   7.138   5.596   2.254
 5577TIP3   OH216694   1.602   0.889   2.530
 5577TIP3    H116695   1.547   0.934   2.594
 5577TIP3    H216696   1.661   0.957   2.497
 5578TIP3   OH216697   2.423   3.572   0.626
 5578TIP3    H116698   2.477   3.577   0.705
 5578TIP3    H216699   2.476   3.522   0.563
 5579TIP3   OH216700   2.722   2.612   1.247
 5579TIP3    H116701   2.726   2.516   1.256
 5579TIP3    H216702   2.783   2.644   1.313
 5580TIP3   OH216703   5.403   0.803   0.598
 5580TIP3    H116704   5.410   0.896   0.580
 5580TIP3    H216705   5.491   0.778   0.628
 5581TIP3   OH216706   5.763   3.566   3.390
 5581TIP3    H116707   5.785   3.474   3.406
 5581TIP3    H216708   5.668   3.567   3.379
 5582TIP3   OH216709   0.875   1.930   1.861
 5582TIP3    H116710   0.801   1.978   1.899
 5582TIP3    H216711   0.937   1.919   1.933
 5583TIP3   OH216712   1.846   4.964   4.041
 5583TIP3    H116713   1.833   4.967   4.136
 5583TIP3    H216714   1.913   5.030   4.024
 5584TIP3   OH216715   6.044   5.671   4.313
 5584TIP3    H116716   6.077   5.661   4.402
 5584TIP3    H216717   5.951   5.647   4.320
 5585TIP3   OH216718   6.096   2.055   3.323
 5585TIP3    H116719   6.035   1.995   3.366
 5585TIP3    H216720   6.096   2.133   3.377
 5586TIP3   OH216721   2.300   3.566   2.854
 5586TIP3    H116722   2.304   3.660   2.870
 5586TIP3    H216723   2.253   3.558   2.771
 5587TIP3   OH216724   3.937   2.889   2.283
 5587TIP3    H116725   3.954   2.927   2.369
 5587TIP3    H216726   4.007   2.824   2.272
 5588TIP3   OH216727   3.719   2.086   2.106
 5588TIP3    H116728   3.753   2.162   2.153
 5588TIP3    H216729   3.783   2.070   2.037
 5589TIP3   OH216730   2.791   4.835   2.251
 5589TIP3    H116731   2.772   4.807   2.341
 5589TIP3    H216732   2.867   4.893   2.260
 5590TIP3   OH216733   6.334   1.090   0.639
 5590TIP3    H116734   6.300   1.001   0.629
 5590TIP3    H216735   6.256   1.144   0.648
 5591TIP3   OH216736   7.187   0.394   0.915
 5591TIP3    H116737   7.147   0.319   0.959
 5591TIP3    H216738   7.113   0.451   0.894
 5592TIP3   OH216739   2.891   0.738   2.957
 5592TIP3    H116740   2.961   0.801   2.940
 5592TIP3    H216741   2.830   0.784   3.015
 5593TIP3   OH216742   1.441   2.766   3.451
 5593TIP3    H116743   1.505   2.798   3.388
 5593TIP3    H216744   1.372   2.832   3.451
 5594TIP3   OH216745   5.890   6.236   5.692
 5594TIP3    H116746   5.809   6.189   5.676
 5594TIP3    H216747   5.955   6.192   5.637
 5595TIP3   OH216748   2.042   6.216   1.976
 5595TIP3    H116749   2.094   6.256   2.046
 5595TIP3    H216750   2.029   6.126   2.005
 5596TIP3   OH216751   4.638   5.844   5.481
 5596TIP3    H116752   4.586   5.766   5.461
 5596TIP3    H216753   4.709   5.812   5.536
 5597TIP3   OH216754   2.199   3.203   1.139
 5597TIP3    H116755   2.185   3.174   1.049
 5597TIP3    H216756   2.286   3.169   1.162
 5598TIP3   OH216757   0.423   3.772   5.468
 5598TIP3    H116758   0.338   3.815   5.459
 5598TIP3    H216759   0.481   3.820   5.410
 5599TIP3   OH216760   4.167   3.354   1.648
 5599TIP3    H116761   4.205   3.361   1.561
 5599TIP3    H216762   4.230   3.302   1.698
 5600TIP3   OH216763   4.839   5.571   2.622
 5600TIP3    H116764   4.848   5.630   2.696
 5600TIP3    H216765   4.811   5.627   2.550
 5601TIP3   OH216766   4.089   4.433   5.730
 5601TIP3    H116767   4.059   4.432   5.821
 5601TIP3    H216768   4.170   4.381   5.731
 5602TIP3   OH216769   4.593   0.227   3.755
 5602TIP3    H116770   4.675   0.244   3.709
 5602TIP3    H216771   4.619   0.215   3.846
 5603TIP3   OH216772   1.648   3.296   3.791
 5603TIP3    H116773   1.579   3.362   3.782
 5603TIP3    H216774   1.708   3.333   3.855
 5604TIP3   OH216775   3.740   3.782   5.309
 5604TIP3    H116776   3.811   3.729   5.346
 5604TIP3    H216777   3.690   3.720   5.255
 5605TIP3   OH216778   0.076   2.234   3.701
 5605TIP3    H116779   0.004   2.205   3.645
 5605TIP3    H216780   0.153   2.231   3.643
 5606TIP3   OH216781   1.158   2.713   0.386
 5606TIP3    H116782   1.090   2.698   0.452
 5606TIP3    H216783   1.153   2.806   0.366
 5607TIP3   OH216784   2.035   0.853   2.482
 5607TIP3    H116785   2.086   0.916   2.533
 5607TIP3    H216786   1.962   0.903   2.446
 5608TIP3   OH216787   6.832   6.572   0.407
 5608TIP3    H116788   6.884   6.492   0.409
 5608TIP3    H216789   6.781   6.565   0.326
 5609TIP3   OH216790   6.674   1.276   5.358
 5609TIP3    H116791   6.656   1.252   5.267
 5609TIP3    H216792   6.629   1.360   5.370
 5610TIP3   OH216793   1.168   4.738   4.056
 5610TIP3    H116794   1.111   4.682   4.108
 5610TIP3    H216795   1.220   4.787   4.120
 5611TIP3   OH216796   0.527   2.577   2.136
 5611TIP3    H116797   0.564   2.531   2.061
 5611TIP3    H216798   0.460   2.518   2.170
 5612TIP3   OH216799   5.009   6.221   0.763
 5612TIP3    H116800   4.958   6.290   0.722
 5612TIP3    H216801   5.101   6.246   0.748
 5613TIP3   OH216802   1.616   0.488   0.103
 5613TIP3    H116803   1.578   0.543   0.171
 5613TIP3    H216804   1.654   0.414   0.151
 5614TIP3   OH216805   5.131   4.385   1.080
 5614TIP3    H116806   5.035   4.383   1.079
 5614TIP3    H216807   5.152   4.475   1.105
 5615TIP3   OH216808   5.458   0.888   1.595
 5615TIP3    H116809   5.468   0.968   1.647
 5615TIP3    H216810   5.406   0.830   1.650
 5616TIP3   OH216811   0.200   2.815   4.672
 5616TIP3    H116812   0.219   2.859   4.589
 5616TIP3    H216813   0.168   2.728   4.646
 5617TIP3   OH216814   5.517   6.417   2.022
 5617TIP3    H116815   5.567   6.464   2.089
 5617TIP3    H216816   5.502   6.330   2.060
 5618TIP3   OH216817   4.308   4.737   0.275
 5618TIP3    H116818   4.396   4.747   0.311
 5618TIP3    H216819   4.285   4.824   0.243
 5619TIP3   OH216820   4.914   2.006   5.013
 5619TIP3    H116821   4.888   2.090   5.052
 5619TIP3    H216822   4.872   1.940   5.068
 5620TIP3   OH216823   1.668   2.279   5.262
 5620TIP3    H116824   1.597   2.261   5.324
 5620TIP3    H216825   1.662   2.373   5.246
 5621TIP3   OH216826   1.118   4.272   3.481
 5621TIP3    H116827   1.043   4.324   3.509
 5621TIP3    H216828   1.171   4.332   3.428
 5622TIP3   OH216829   4.616   6.094   4.570
 5622TIP3    H116830   4.532   6.126   4.538
 5622TIP3    H216831   4.677   6.167   4.556
 5623TIP3   OH216832   2.716   2.670   4.179
 5623TIP3    H116833   2.753   2.584   4.199
 5623TIP3    H216834   2.632   2.651   4.137
 5624TIP3   OH216835   5.583   5.663   1.245
 5624TIP3    H116836   5.502   5.624   1.279
 5624TIP3    H216837   5.555   5.718   1.172
 5625TIP3   OH216838   1.888   4.951   2.405
 5625TIP3    H116839   1.930   5.035   2.388
 5625TIP3    H216840   1.807   4.973   2.452
 5626TIP3   OH216841   3.919   4.223   4.816
 5626TIP3    H116842   3.971   4.235   4.736
 5626TIP3    H216843   3.894   4.311   4.842
 5627TIP3   OH216844   6.092   2.125   0.878
 5627TIP3    H116845   6.057   2.213   0.893
 5627TIP3    H216846   6.100   2.118   0.783
 5628TIP3   OH216847   0.658   1.465   5.307
 5628TIP3    H116848   0.564   1.447   5.297
 5628TIP3    H216849   0.665   1.560   5.301
 5629TIP3   OH216850   2.671   2.703   2.774
 5629TIP3    H116851   2.734   2.690   2.846
 5629TIP3    H216852   2.586   2.704   2.817
 5630TIP3   OH216853   7.040   3.224   0.862
 5630TIP3    H116854   6.969   3.181   0.912
 5630TIP3    H216855   7.118   3.208   0.915
 5631TIP3   OH216856   3.498   1.420   5.485
 5631TIP3    H116857   3.581   1.467   5.494
 5631TIP3    H216858   3.448   1.444   5.563
 5632TIP3   OH216859   6.479   5.239   5.664
 5632TIP3    H116860   6.419   5.312   5.647
 5632TIP3    H216861   6.424   5.171   5.703
 5633TIP3   OH216862   3.642   3.304   5.352
 5633TIP3    H116863   3.627   3.314   5.446
 5633TIP3    H216864   3.667   3.213   5.341
 5634TIP3   OH216865   6.903   6.655   0.110
 5634TIP3    H116866   6.993   6.630   0.131
 5634TIP3    H216867   6.889   6.736   0.158
 5635TIP3   OH216868   3.106   3.151   2.071
 5635TIP3    H116869   3.156   3.206   2.131
 5635TIP3    H216870   3.077   3.078   2.125
 5636TIP3   OH216871   6.287   3.417   5.091
 5636TIP3    H116872   6.376   3.401   5.125
 5636TIP3    H216873   6.235   3.346   5.129
 5637TIP3   OH216874   4.012   1.216   3.210
 5637TIP3    H116875   4.010   1.126   3.179
 5637TIP3    H216876   4.088   1.220   3.269
 5638TIP3   OH216877   0.639   1.669   2.587
 5638TIP3    H116878   0.597   1.748   2.619
 5638TIP3    H216879   0.731   1.679   2.611
 5639TIP3   OH216880   3.182   1.653   0.880
 5639TIP3    H116881   3.118   1.694   0.822
 5639TIP3    H216882   3.154   1.562   0.887
 5640TIP3   OH216883   6.935   4.022   0.780
 5640TIP3    H116884   6.940   4.057   0.691
 5640TIP3    H216885   6.841   4.014   0.798
 5641TIP3   OH216886   0.687   4.749   3.424
 5641TIP3    H116887   0.768   4.766   3.376
 5641TIP3    H216888   0.645   4.834   3.432
 5642TIP3   OH216889   5.318   3.320   4.381
 5642TIP3    H116890   5.262   3.389   4.346
 5642TIP3    H216891   5.325   3.339   4.475
 5643TIP3   OH216892   1.543   4.829   1.002
 5643TIP3    H116893   1.560   4.747   0.956
 5643TIP3    H216894   1.596   4.894   0.956
 5644TIP3   OH216895   1.955   4.486   3.653
 5644TIP3    H116896   1.893   4.440   3.710
 5644TIP3    H216897   1.924   4.468   3.564
 5645TIP3   OH216898   1.151   4.668   5.520
 5645TIP3    H116899   1.230   4.715   5.544
 5645TIP3    H216900   1.146   4.595   5.581
 5646TIP3   OH216901   4.502   0.289   4.294
 5646TIP3    H116902   4.502   0.238   4.375
 5646TIP3    H216903   4.450   0.236   4.233
 5647TIP3   OH216904   0.981   4.709   0.732
 5647TIP3    H116905   1.060   4.739   0.777
 5647TIP3    H216906   0.909   4.738   0.788
 5648TIP3   OH216907   3.530   6.759   3.100
 5648TIP3    H116908   3.614   6.798   3.074
 5648TIP3    H216909   3.532   6.760   3.196
 5649TIP3   OH216910   7.050   5.456   0.111
 5649TIP3    H116911   7.021   5.499   0.192
 5649TIP3    H216912   7.087   5.527   0.059
 5650TIP3   OH216913   5.459   5.279   0.946
 5650TIP3    H116914   5.397   5.321   0.886
 5650TIP3    H216915   5.533   5.338   0.950
 5651TIP3   OH216916   0.501   5.695   5.400
 5651TIP3    H116917   0.468   5.671   5.314
 5651TIP3    H216918   0.427   5.679   5.459
 5652TIP3   OH216919   3.374   2.053   4.680
 5652TIP3    H116920   3.403   1.995   4.609
 5652TIP3    H216921   3.355   2.136   4.637
 5653TIP3   OH216922   5.297   1.302   3.993
 5653TIP3    H116923   5.282   1.268   3.905
 5653TIP3    H216924   5.262   1.234   4.051
 5654TIP3   OH216925   2.839   3.461   2.579
 5654TIP3    H116926   2.808   3.379   2.615
 5654TIP3    H216927   2.807   3.528   2.639
 5655TIP3   OH216928   3.489   0.782   2.836
 5655TIP3    H116929   3.450   0.836   2.767
 5655TIP3    H216930   3.497   0.695   2.796
 5656TIP3   OH216931   6.788   1.161   5.582
 5656TIP3    H116932   6.871   1.156   5.534
 5656TIP3    H216933   6.724   1.186   5.516
 5657TIP3   OH216934   1.577   0.264   5.019
 5657TIP3    H116935   1.587   0.197   4.951
 5657TIP3    H216936   1.492   0.304   5.002
 5658TIP3   OH216937   4.722   5.105   2.482
 5658TIP3    H116938   4.793   5.157   2.445
 5658TIP3    H216939   4.702   5.040   2.415
 5659TIP3   OH216940   0.672   0.612   0.908
 5659TIP3    H116941   0.753   0.658   0.932
 5659TIP3    H216942   0.700   0.545   0.846
 5660TIP3   OH216943   3.224   2.900   5.196
 5660TIP3    H116944   3.317   2.881   5.182
 5660TIP3    H216945   3.219   2.995   5.197
 5661TIP3   OH216946   6.377   1.211   2.641
 5661TIP3    H116947   6.392   1.305   2.651
 5661TIP3    H216948   6.466   1.174   2.634
 5662TIP3   OH216949   6.332   1.326   2.391
 5662TIP3    H116950   6.248   1.371   2.385
 5662TIP3    H216951   6.324   1.269   2.468
 5663TIP3   OH216952   4.734   6.027   0.727
 5663TIP3    H116953   4.690   6.026   0.812
 5663TIP3    H216954   4.748   6.120   0.708
 5664TIP3   OH216955   1.766   1.551   2.115
 5664TIP3    H116956   1.825   1.498   2.062
 5664TIP3    H216957   1.739   1.493   2.186
 5665TIP3   OH216958   2.326   1.617   5.458
 5665TIP3    H116959   2.258   1.569   5.410
 5665TIP3    H216960   2.344   1.694   5.403
 5666TIP3   OH216961   7.098   4.475   5.471
 5666TIP3    H116962   7.036   4.441   5.536
 5666TIP3    H216963   7.162   4.524   5.523
 5667TIP3   OH216964   1.279   6.192   3.825
 5667TIP3    H116965   1.272   6.286   3.805
 5667TIP3    H216966   1.369   6.169   3.800
 5668TIP3   OH216967   6.799   5.758   1.883
 5668TIP3    H116968   6.839   5.745   1.969
 5668TIP3    H216969   6.779   5.670   1.851
 5669TIP3   OH216970   3.288   5.660   4.717
 5669TIP3    H116971   3.277   5.570   4.748
 5669TIP3    H216972   3.237   5.713   4.778
 5670TIP3   OH216973   6.575   5.317   0.798
 5670TIP3    H116974   6.510   5.381   0.767
 5670TIP3    H216975   6.537   5.232   0.776
 5671TIP3   OH216976   0.601   2.917   4.538
 5671TIP3    H116977   0.602   2.949   4.448
 5671TIP3    H216978   0.585   2.823   4.530
 5672TIP3   OH216979   2.797   3.861   0.301
 5672TIP3    H116980   2.726   3.922   0.280
 5672TIP3    H216981   2.805   3.865   0.396
 5673TIP3   OH216982   4.111   4.608   1.670
 5673TIP3    H116983   4.042   4.673   1.685
 5673TIP3    H216984   4.146   4.589   1.757
 5674TIP3   OH216985   3.123   0.179   2.482
 5674TIP3    H116986   3.126   0.249   2.417
 5674TIP3    H216987   3.184   0.207   2.550
 5675TIP3   OH216988   3.115   3.642   5.039
 5675TIP3    H116989   3.205   3.646   5.072
 5675TIP3    H216990   3.124   3.613   4.948
 5676TIP3   OH216991   2.338   5.031   2.111
 5676TIP3    H116992   2.415   5.055   2.163
 5676TIP3    H216993   2.369   5.035   2.020
 5677TIP3   OH216994   6.177   3.148   3.655
 5677TIP3    H116995   6.199   3.055   3.657
 5677TIP3    H216996   6.145   3.166   3.744
 5678TIP3   OH216997   6.195   1.170   0.976
 5678TIP3    H116998   6.258   1.118   1.026
 5678TIP3    H216999   6.144   1.106   0.926
 5679TIP3   OH217000   2.616   4.417   5.032
 5679TIP3    H117001   2.707   4.437   5.007
 5679TIP3    H217002   2.609   4.450   5.122
 5680TIP3   OH217003   5.750   5.133   3.614
 5680TIP3    H117004   5.664   5.091   3.613
 5680TIP3    H217005   5.776   5.136   3.706
 5681TIP3   OH217006   1.609   4.443   1.577
 5681TIP3    H117007   1.648   4.391   1.647
 5681TIP3    H217008   1.685   4.477   1.528
 5682TIP3   OH217009   1.157   2.376   5.720
 5682TIP3    H117010   1.182   2.466   5.741
 5682TIP3    H217011   1.139   2.378   5.626
 5683TIP3   OH217012   0.670   4.896   1.663
 5683TIP3    H117013   0.752   4.887   1.615
 5683TIP3    H217014   0.695   4.938   1.745
 5684TIP3   OH217015   2.930   3.771   3.569
 5684TIP3    H117016   2.934   3.678   3.547
 5684TIP3    H217017   2.963   3.776   3.658
 5685TIP3   OH217018   0.382   0.912   1.074
 5685TIP3    H117019   0.414   0.984   1.019
 5685TIP3    H217020   0.440   0.839   1.054
 5686TIP3   OH217021   1.697   0.583   5.166
 5686TIP3    H117022   1.673   0.625   5.248
 5686TIP3    H217023   1.687   0.490   5.183
 5687TIP3   OH217024   5.608   6.533   1.783
 5687TIP3    H117025   5.687   6.577   1.816
 5687TIP3    H217026   5.549   6.532   1.858
 5688TIP3   OH217027   6.325   4.541   0.346
 5688TIP3    H117028   6.326   4.633   0.371
 5688TIP3    H217029   6.316   4.541   0.251
 5689TIP3   OH217030   4.308   3.263   1.947
 5689TIP3    H117031   4.384   3.271   2.004
 5689TIP3    H217032   4.283   3.171   1.951
 5690TIP3   OH217033   3.151   1.632   5.565
 5690TIP3    H117034   3.117   1.590   5.644
 5690TIP3    H217035   3.213   1.568   5.528
 5691TIP3   OH217036   4.891   6.294   0.441
 5691TIP3    H117037   4.805   6.264   0.413
 5691TIP3    H217038   4.874   6.345   0.520
 5692TIP3   OH217039   7.147   3.243   4.947
 5692TIP3    H117040   7.140   3.231   4.852
 5692TIP3    H217041   7.064   3.210   4.981
 5693TIP3   OH217042   6.992   0.732   2.730
 5693TIP3    H117043   6.985   0.796   2.801
 5693TIP3    H217044   7.082   0.700   2.736
 5694TIP3   OH217045   3.671   4.632   3.417
 5694TIP3    H117046   3.576   4.618   3.420
 5694TIP3    H217047   3.695   4.654   3.507
 5695TIP3   OH217048   0.139   2.116   0.779
 5695TIP3    H117049   0.164   2.025   0.763
 5695TIP3    H217050   0.197   2.144   0.850
 5696TIP3   OH217051   0.131   4.892   5.516
 5696TIP3    H117052   0.046   4.886   5.474
 5696TIP3    H217053   0.144   4.806   5.556
 5697TIP3   OH217054   4.881   5.906   4.675
 5697TIP3    H117055   4.802   5.858   4.649
 5697TIP3    H217056   4.898   5.966   4.603
 5698TIP3   OH217057   4.115   4.990   2.656
 5698TIP3    H117058   4.170   5.026   2.585
 5698TIP3    H217059   4.037   5.045   2.655
 5699TIP3   OH217060   1.808   2.771   0.066
 5699TIP3    H117061   1.734   2.807   0.115
 5699TIP3    H217062   1.851   2.712   0.128
 5700TIP3   OH217063   3.269   2.922   2.898
 5700TIP3    H117064   3.334   2.970   2.847
 5700TIP3    H217065   3.310   2.908   2.983
 5701TIP3   OH217066   3.353   2.966   1.058
 5701TIP3    H117067   3.373   3.055   1.030
 5701TIP3    H217068   3.281   2.938   1.002
 5702TIP3   OH217069   5.248   0.208   0.843
 5702TIP3    H117070   5.217   0.251   0.922
 5702TIP3    H217071   5.172   0.207   0.785
 5703TIP3   OH217072   4.075   1.526   3.393
 5703TIP3    H117073   3.993   1.554   3.353
 5703TIP3    H217074   4.052   1.508   3.485
 5704TIP3   OH217075   3.700   2.236   5.517
 5704TIP3    H117076   3.621   2.213   5.565
 5704TIP3    H217077   3.763   2.169   5.541
 5705TIP3   OH217078   0.784   3.490   2.105
 5705TIP3    H117079   0.786   3.481   2.010
 5705TIP3    H217080   0.875   3.476   2.132
 5706TIP3   OH217081   3.643   1.227   3.953
 5706TIP3    H117082   3.664   1.181   4.035
 5706TIP3    H217083   3.547   1.229   3.951
 5707TIP3   OH217084   0.598   1.884   3.498
 5707TIP3    H117085   0.608   1.793   3.527
 5707TIP3    H217086   0.684   1.907   3.463
 5708TIP3   OH217087   4.679   1.239   1.156
 5708TIP3    H117088   4.738   1.314   1.162
 5708TIP3    H217089   4.631   1.252   1.075
 5709TIP3   OH217090   4.419   3.357   4.916
 5709TIP3    H117091   4.377   3.400   4.990
 5709TIP3    H217092   4.410   3.263   4.935
 5710TIP3   OH217093   6.503   0.799   5.713
 5710TIP3    H117094   6.582   0.778   5.764
 5710TIP3    H217095   6.432   0.754   5.758
 5711TIP3   OH217096   6.869   0.713   5.555
 5711TIP3    H117097   6.927   0.649   5.513
 5711TIP3    H217098   6.929   0.775   5.597
 5712TIP3   OH217099   2.375   2.656   1.105
 5712TIP3    H117100   2.376   2.566   1.073
 5712TIP3    H217101   2.463   2.689   1.085
 5713TIP3   OH217102   4.146   6.213   2.256
 5713TIP3    H117103   4.130   6.292   2.204
 5713TIP3    H217104   4.073   6.155   2.236
 5714TIP3   OH217105   6.176   2.603   0.485
 5714TIP3    H117106   6.133   2.559   0.412
 5714TIP3    H217107   6.263   2.624   0.452
 5715TIP3   OH217108   6.250   0.421   5.371
 5715TIP3    H117109   6.314   0.491   5.366
 5715TIP3    H217110   6.172   0.462   5.409
 5716TIP3   OH217111   1.010   5.618   5.247
 5716TIP3    H117112   0.949   5.546   5.264
 5716TIP3    H217113   1.013   5.625   5.151
 5717TIP3   OH217114   3.100   3.418   0.749
 5717TIP3    H117115   3.103   3.387   0.839
 5717TIP3    H217116   3.140   3.505   0.752
 5718TIP3   OH217117   6.796   5.272   5.677
 5718TIP3    H117118   6.795   5.186   5.719
 5718TIP3    H217119   6.761   5.257   5.589
 5719TIP3   OH217120   2.247   3.814   3.958
 5719TIP3    H117121   2.254   3.882   4.025
 5719TIP3    H217122   2.316   3.835   3.896
 5720TIP3   OH217123   4.615   2.841   2.406
 5720TIP3    H117124   4.662   2.875   2.482
 5720TIP3    H217125   4.619   2.912   2.342
 5721TIP3   OH217126   2.845   4.193   1.008
 5721TIP3    H117127   2.926   4.194   0.957
 5721TIP3    H217128   2.860   4.257   1.078
 5722TIP3   OH217129   3.943   5.095   5.745
 5722TIP3    H117130   3.954   5.037   5.821
 5722TIP3    H217131   4.016   5.075   5.688
 5723TIP3   OH217132   4.947   4.874   0.792
 5723TIP3    H117133   4.906   4.940   0.848
 5723TIP3    H217134   4.879   4.850   0.729
 5724TIP3   OH217135   5.477   4.057   3.416
 5724TIP3    H117136   5.384   4.037   3.420
 5724TIP3    H217137   5.510   4.005   3.342
 5725TIP3   OH217138   1.900   1.126   0.329
 5725TIP3    H117139   1.850   1.073   0.267
 5725TIP3    H217140   1.988   1.131   0.292
 5726TIP3   OH217141   3.071   3.941   0.713
 5726TIP3    H117142   3.078   3.903   0.801
 5726TIP3    H217143   3.140   4.008   0.711
 5727TIP3   OH217144   2.758   3.258   5.227
 5727TIP3    H117145   2.721   3.230   5.144
 5727TIP3    H217146   2.843   3.214   5.232
 5728TIP3   OH217147   6.737   2.517   0.838
 5728TIP3    H117148   6.666   2.575   0.864
 5728TIP3    H217149   6.803   2.576   0.800
 5729TIP3   OH217150   6.413   1.210   4.407
 5729TIP3    H117151   6.480   1.162   4.455
 5729TIP3    H217152   6.337   1.152   4.404
 5730TIP3   OH217153   4.574   6.280   5.697
 5730TIP3    H117154   4.543   6.204   5.649
 5730TIP3    H217155   4.626   6.244   5.769
 5731TIP3   OH217156   2.909   0.402   5.048
 5731TIP3    H117157   2.859   0.451   4.984
 5731TIP3    H217158   2.915   0.460   5.124
 5732TIP3   OH217159   5.903   4.890   3.535
 5732TIP3    H117160   5.955   4.903   3.455
 5732TIP3    H217161   5.906   4.975   3.579
 5733TIP3   OH217162   5.699   6.625   2.530
 5733TIP3    H117163   5.708   6.572   2.609
 5733TIP3    H217164   5.750   6.579   2.463
 5734TIP3   OH217165   3.689   1.930   1.747
 5734TIP3    H117166   3.740   1.989   1.691
 5734TIP3    H217167   3.598   1.959   1.736
 5735TIP3   OH217168   6.885   6.325   2.802
 5735TIP3    H117169   6.808   6.312   2.746
 5735TIP3    H217170   6.873   6.263   2.874
 5736TIP3   OH217171   6.025   1.564   0.986
 5736TIP3    H117172   6.024   1.640   0.929
 5736TIP3    H217173   6.098   1.511   0.955
 5737TIP3   OH217174   1.120   3.089   5.231
 5737TIP3    H117175   1.197   3.044   5.266
 5737TIP3    H217176   1.046   3.039   5.265
 5738TIP3   OH217177   6.799   1.573   3.008
 5738TIP3    H117178   6.762   1.580   2.920
 5738TIP3    H217179   6.795   1.662   3.043
 5739TIP3   OH217180   3.590   3.871   5.056
 5739TIP3    H117181   3.516   3.893   4.999
 5739TIP3    H217182   3.644   3.813   5.003
 5740TIP3   OH217183   1.968   1.563   2.577
 5740TIP3    H117184   2.002   1.621   2.509
 5740TIP3    H217185   1.873   1.572   2.571
 5741TIP3   OH217186   0.761   4.414   0.352
 5741TIP3    H117187   0.769   4.505   0.381
 5741TIP3    H217188   0.827   4.367   0.403
 5742TIP3   OH217189   6.744   1.351   3.981
 5742TIP3    H117190   6.713   1.299   3.907
 5742TIP3    H217191   6.729   1.296   4.058
 5743TIP3   OH217192   4.420   5.808   5.205
 5743TIP3    H117193   4.472   5.779   5.130
 5743TIP3    H217194   4.384   5.727   5.241
 5744TIP3   OH217195   6.007   5.688   0.637
 5744TIP3    H117196   5.967   5.616   0.685
 5744TIP3    H217197   6.031   5.752   0.703
 5745TIP3   OH217198   0.344   2.350   3.322
 5745TIP3    H117199   0.308   2.319   3.239
 5745TIP3    H217200   0.434   2.373   3.302
 5746TIP3   OH217201   5.690   2.331   5.569
 5746TIP3    H117202   5.666   2.357   5.480
 5746TIP3    H217203   5.785   2.329   5.569
 5747TIP3   OH217204   4.923   4.502   4.557
 5747TIP3    H117205   4.956   4.535   4.641
 5747TIP3    H217206   4.912   4.408   4.572
 5748TIP3   OH217207   3.904   3.747   5.691
 5748TIP3    H117208   3.910   3.839   5.667
 5748TIP3    H217209   3.923   3.699   5.610
 5749TIP3   OH217210   6.936   6.117   0.916
 5749TIP3    H117211   6.905   6.202   0.948
 5749TIP3    H217212   7.032   6.126   0.915
 5750TIP3   OH217213   2.374   6.641   3.873
 5750TIP3    H117214   2.404   6.576   3.936
 5750TIP3    H217215   2.413   6.723   3.903
 5751TIP3   OH217216   5.156   2.729   3.806
 5751TIP3    H117217   5.242   2.719   3.766
 5751TIP3    H217218   5.167   2.698   3.896
 5752TIP3   OH217219   0.586   5.007   3.426
 5752TIP3    H117220   0.603   5.063   3.350
 5752TIP3    H217221   0.494   4.983   3.418
 5753TIP3   OH217222   5.786   1.156   0.996
 5753TIP3    H117223   5.843   1.185   1.068
 5753TIP3    H217224   5.792   1.225   0.931
 5754TIP3   OH217225   6.554   5.835   3.528
 5754TIP3    H117226   6.613   5.906   3.552
 5754TIP3    H217227   6.489   5.875   3.471
 5755TIP3   OH217228   2.612   1.721   5.906
 5755TIP3    H117229   2.676   1.791   5.892
 5755TIP3    H217230   2.557   1.724   5.828
 5756TIP3   OH217231   1.927   1.280   4.861
 5756TIP3    H117232   1.949   1.211   4.924
 5756TIP3    H217233   1.854   1.244   4.811
 5757TIP3   OH217234   6.285   1.036   5.142
 5757TIP3    H117235   6.314   0.976   5.073
 5757TIP3    H217236   6.305   1.123   5.108
 5758TIP3   OH217237   4.763   5.269   4.140
 5758TIP3    H117238   4.711   5.334   4.093
 5758TIP3    H217239   4.708   5.191   4.141
 5759TIP3   OH217240   1.328   0.960   2.312
 5759TIP3    H117241   1.358   0.876   2.276
 5759TIP3    H217242   1.378   1.025   2.263
 5760TIP3   OH217243   4.954   4.623   5.737
 5760TIP3    H117244   4.941   4.662   5.823
 5760TIP3    H217245   4.886   4.556   5.730
 5761TIP3   OH217246   7.201  -0.020   1.685
 5761TIP3    H117247   7.268   0.021   1.740
 5761TIP3    H217248   7.120   0.025   1.709
 5762TIP3   OH217249   1.113   1.256   1.360
 5762TIP3    H117250   1.058   1.323   1.321
 5762TIP3    H217251   1.174   1.304   1.416
 5763TIP3   OH217252   1.904   0.537   4.305
 5763TIP3    H117253   1.851   0.462   4.334
 5763TIP3    H217254   1.894   0.600   4.376
 5764TIP3   OH217255   6.285   5.464   1.317
 5764TIP3    H117256   6.230   5.541   1.328
 5764TIP3    H217257   6.225   5.390   1.330
 5765TIP3   OH217258   4.327   2.850   0.872
 5765TIP3    H117259   4.256   2.870   0.810
 5765TIP3    H217260   4.284   2.849   0.958
 5766TIP3   OH217261   2.513   2.327   1.739
 5766TIP3    H117262   2.587   2.325   1.678
 5766TIP3    H217263   2.442   2.367   1.689
 5767TIP3   OH217264   5.627   6.388   5.168
 5767TIP3    H117265   5.689   6.317   5.154
 5767TIP3    H217266   5.671   6.445   5.231
 5768TIP3   OH217267   6.987   2.466   1.524
 5768TIP3    H117268   6.991   2.372   1.506
 5768TIP3    H217269   6.905   2.495   1.485
 5769TIP3   OH217270   4.130   0.305   2.171
 5769TIP3    H117271   4.061   0.272   2.113
 5769TIP3    H217272   4.187   0.355   2.113
 5770TIP3   OH217273   0.808   3.483   3.125
 5770TIP3    H117274   0.757   3.538   3.066
 5770TIP3    H217275   0.759   3.483   3.207
 5771TIP3   OH217276   7.102   5.814   5.319
 5771TIP3    H117277   7.115   5.896   5.367
 5771TIP3    H217278   7.008   5.812   5.300
 5772TIP3   OH217279   2.547   3.320   5.395
 5772TIP3    H117280   2.623   3.281   5.352
 5772TIP3    H217281   2.584   3.393   5.445
 5773TIP3   OH217282   4.775   5.775   5.184
 5773TIP3    H117283   4.823   5.775   5.102
 5773TIP3    H217284   4.832   5.822   5.245
 5774TIP3   OH217285   2.671   4.489   1.900
 5774TIP3    H117286   2.736   4.499   1.830
 5774TIP3    H217287   2.724   4.478   1.979
 5775TIP3   OH217288   6.532   6.594   2.234
 5775TIP3    H117289   6.504   6.584   2.143
 5775TIP3    H217290   6.475   6.662   2.270
 5776TIP3   OH217291   0.368   3.381   2.460
 5776TIP3    H117292   0.282   3.404   2.424
 5776TIP3    H217293   0.430   3.428   2.405
 5777TIP3   OH217294   3.988   3.558   5.132
 5777TIP3    H117295   3.897   3.579   5.110
 5777TIP3    H217296   4.040   3.606   5.068
 5778TIP3   OH217297   2.954   4.827   3.363
 5778TIP3    H117298   3.015   4.885   3.317
 5778TIP3    H217299   2.996   4.812   3.448
 5779TIP3   OH217300   6.660   3.040   3.512
 5779TIP3    H117301   6.754   3.045   3.493
 5779TIP3    H217302   6.644   3.115   3.569
 5780TIP3   OH217303   6.660   2.866   5.183
 5780TIP3    H117304   6.735   2.814   5.211
 5780TIP3    H217305   6.591   2.802   5.167
 5781TIP3   OH217306   5.757   6.795   2.858
 5781TIP3    H117307   5.822   6.754   2.802
 5781TIP3    H217308   5.737   6.729   2.924
 5782TIP3   OH217309   0.144   2.456   3.451
 5782TIP3    H117310   0.105   2.496   3.373
 5782TIP3    H217311   0.225   2.415   3.418
 5783TIP3   OH217312   1.797   0.258   1.756
 5783TIP3    H117313   1.870   0.294   1.806
 5783TIP3    H217314   1.833   0.181   1.713
 5784TIP3   OH217315   3.853   4.241   0.665
 5784TIP3    H117316   3.872   4.320   0.716
 5784TIP3    H217317   3.758   4.230   0.671
 5785TIP3   OH217318   0.333   1.942   3.482
 5785TIP3    H117319   0.427   1.929   3.468
 5785TIP3    H217320   0.292   1.909   3.402
 5786TIP3   OH217321   2.161   4.537   2.084
 5786TIP3    H117322   2.185   4.572   2.170
 5786TIP3    H217323   2.075   4.574   2.066
 5787TIP3   OH217324   2.460   0.400   4.348
 5787TIP3    H117325   2.462   0.320   4.401
 5787TIP3    H217326   2.545   0.401   4.303
 5788TIP3   OH217327   0.484   2.273   0.104
 5788TIP3    H117328   0.438   2.350   0.070
 5788TIP3    H217329   0.416   2.222   0.149
 5789TIP3   OH217330   4.434   1.585   2.313
 5789TIP3    H117331   4.526   1.557   2.316
 5789TIP3    H217332   4.384   1.507   2.336
 5790TIP3   OH217333   2.034   2.529   1.633
 5790TIP3    H117334   2.016   2.587   1.559
 5790TIP3    H217335   1.987   2.448   1.612
 5791TIP3   OH217336   6.269   2.377   3.778
 5791TIP3    H117337   6.319   2.300   3.749
 5791TIP3    H217338   6.297   2.447   3.719
 5792TIP3   OH217339   5.337   4.204   3.124
 5792TIP3    H117340   5.246   4.211   3.096
 5792TIP3    H217341   5.371   4.128   3.077
 5793TIP3   OH217342   0.296   3.859   4.639
 5793TIP3    H117343   0.351   3.911   4.697
 5793TIP3    H217344   0.314   3.769   4.663
 5794TIP3   OH217345   3.933   5.998   5.204
 5794TIP3    H117346   3.867   5.953   5.256
 5794TIP3    H217347   3.986   5.927   5.167
 5795TIP3   OH217348   4.416   3.911   0.084
 5795TIP3    H117349   4.388   3.955   0.004
 5795TIP3    H217350   4.392   3.819   0.071
 5796TIP3   OH217351   5.719   5.959   5.697
 5796TIP3    H117352   5.776   5.944   5.773
 5796TIP3    H217353   5.774   5.938   5.622
 5797TIP3   OH217354   0.365   4.598   4.519
 5797TIP3    H117355   0.430   4.548   4.568
 5797TIP3    H217356   0.378   4.689   4.547
 5798TIP3   OH217357   6.626   4.639   5.573
 5798TIP3    H117358   6.648   4.547   5.559
 5798TIP3    H217359   6.557   4.637   5.639
 5799TIP3   OH217360   3.087   3.195   5.693
 5799TIP3    H117361   3.035   3.115   5.689
 5799TIP3    H217362   3.069   3.240   5.611
 5800TIP3   OH217363   1.337   1.913   2.121
 5800TIP3    H117364   1.297   1.957   2.196
 5800TIP3    H217365   1.399   1.851   2.160
 5801TIP3   OH217366   2.483   3.698   4.764
 5801TIP3    H117367   2.564   3.719   4.812
 5801TIP3    H217368   2.446   3.784   4.742
 5802TIP3   OH217369   0.445   4.333   3.180
 5802TIP3    H117370   0.533   4.347   3.144
 5802TIP3    H217371   0.452   4.253   3.232
 5803TIP3   OH217372   3.275   4.448   4.506
 5803TIP3    H117373   3.257   4.354   4.513
 5803TIP3    H217374   3.248   4.471   4.416
 5804TIP3   OH217375   0.192   3.435   2.129
 5804TIP3    H117376   0.280   3.399   2.114
 5804TIP3    H217377   0.133   3.365   2.101
 5805TIP3   OH217378   3.382   0.378   2.254
 5805TIP3    H117379   3.344   0.442   2.193
 5805TIP3    H217380   3.377   0.295   2.207
 5806TIP3   OH217381   4.901   4.631   3.115
 5806TIP3    H117382   4.846   4.557   3.090
 5806TIP3    H217383   4.921   4.675   3.032
 5807TIP3   OH217384   1.945   2.982   2.864
 5807TIP3    H117385   1.997   2.922   2.811
 5807TIP3    H217386   1.969   3.069   2.834
 5808TIP3   OH217387   3.438   5.139   0.840
 5808TIP3    H117388   3.357   5.105   0.801
 5808TIP3    H217389   3.502   5.069   0.827
 5809TIP3   OH217390   6.066   5.260   0.394
 5809TIP3    H117391   6.157   5.255   0.423
 5809TIP3    H217392   6.052   5.180   0.343
 5810TIP3   OH217393   1.254   0.493   4.643
 5810TIP3    H117394   1.296   0.579   4.642
 5810TIP3    H217395   1.181   0.503   4.705
 5811TIP3   OH217396   1.829   4.552   1.472
 5811TIP3    H117397   1.897   4.517   1.415
 5811TIP3    H217398   1.867   4.633   1.508
 5812TIP3   OH217399   0.198   0.074   0.226
 5812TIP3    H117400   0.285   0.074   0.186
 5812TIP3    H217401   0.186   0.163   0.257
 5813TIP3   OH217402   4.606   6.423   3.591
 5813TIP3    H117403   4.612   6.465   3.505
 5813TIP3    H217404   4.677   6.463   3.642
 5814TIP3   OH217405   3.475   3.950   1.208
 5814TIP3    H117406   3.476   3.862   1.245
 5814TIP3    H217407   3.547   3.996   1.251
 5815TIP3   OH217408   0.809   3.149   3.934
 5815TIP3    H117409   0.762   3.149   3.850
 5815TIP3    H217410   0.898   3.177   3.912
 5816TIP3   OH217411   5.960   0.407   2.388
 5816TIP3    H117412   6.017   0.404   2.465
 5816TIP3    H217413   5.916   0.492   2.393
 5817TIP3   OH217414   2.838   2.063   5.460
 5817TIP3    H117415   2.778   1.989   5.453
 5817TIP3    H217416   2.922   2.024   5.485
 5818TIP3   OH217417   2.187   4.477   2.826
 5818TIP3    H117418   2.165   4.392   2.864
 5818TIP3    H217419   2.260   4.459   2.766
 5819TIP3   OH217420   1.158   6.552   4.040
 5819TIP3    H117421   1.222   6.545   3.969
 5819TIP3    H217422   1.149   6.463   4.073
 5820TIP3   OH217423   5.056   0.206   0.601
 5820TIP3    H117424   5.094   0.294   0.595
 5820TIP3    H217425   5.039   0.181   0.510
 5821TIP3   OH217426   6.986   3.115   4.001
 5821TIP3    H117427   6.980   3.146   3.910
 5821TIP3    H217428   7.054   3.047   3.999
 5822TIP3   OH217429   2.296   0.600   4.231
 5822TIP3    H117430   2.271   0.673   4.287
 5822TIP3    H217431   2.361   0.552   4.282
 5823TIP3   OH217432   0.341   2.646   5.286
 5823TIP3    H117433   0.350   2.738   5.313
 5823TIP3    H217434   0.280   2.648   5.213
 5824TIP3   OH217435   4.740   0.336   0.052
 5824TIP3    H117436   4.764   0.372  -0.033
 5824TIP3    H217437   4.822   0.305   0.090
 5825TIP3   OH217438   1.076   0.899   2.306
 5825TIP3    H117439   1.168   0.918   2.287
 5825TIP3    H217440   1.049   0.968   2.366
 5826TIP3   OH217441   6.894   0.596   1.491
 5826TIP3    H117442   6.913   0.660   1.423
 5826TIP3    H217443   6.800   0.580   1.482
 5827TIP3   OH217444   5.377   0.383   3.670
 5827TIP3    H117445   5.431   0.375   3.749
 5827TIP3    H217446   5.422   0.329   3.604
 5828TIP3   OH217447   3.858   6.200   5.825
 5828TIP3    H117448   3.810   6.133   5.873
 5828TIP3    H217449   3.901   6.252   5.893
 5829TIP3   OH217450   1.035   5.310   0.077
 5829TIP3    H117451   1.114   5.362   0.093
 5829TIP3    H217452   0.989   5.358   0.008
 5830TIP3   OH217453   4.564   5.409   1.605
 5830TIP3    H117454   4.633   5.465   1.570
 5830TIP3    H217455   4.561   5.334   1.546
 5831TIP3   OH217456   5.977   1.597   5.249
 5831TIP3    H117457   6.058   1.625   5.207
 5831TIP3    H217458   5.996   1.508   5.280
 5832TIP3   OH217459   5.253   6.275   0.658
 5832TIP3    H117460   5.243   6.305   0.568
 5832TIP3    H217461   5.347   6.282   0.676
 5833TIP3   OH217462   3.926   3.990   0.717
 5833TIP3    H117463   3.838   3.952   0.719
 5833TIP3    H217464   3.910   4.084   0.705
 5834TIP3   OH217465   0.144   4.608   2.798
 5834TIP3    H117466   0.229   4.597   2.839
 5834TIP3    H217467   0.088   4.542   2.841
 5835TIP3   OH217468   5.497   1.902   5.049
 5835TIP3    H117469   5.406   1.929   5.063
 5835TIP3    H217470   5.539   1.979   5.010
 5836TIP3   OH217471   6.806   6.363   3.866
 5836TIP3    H117472   6.817   6.293   3.801
 5836TIP3    H217473   6.786   6.318   3.947
 5837TIP3   OH217474   5.365   5.449   0.346
 5837TIP3    H117475   5.440   5.508   0.353
 5837TIP3    H217476   5.330   5.465   0.258
 5838TIP3   OH217477   7.104   6.126   1.713
 5838TIP3    H117478   7.082   6.179   1.636
 5838TIP3    H217479   7.027   6.070   1.725
 5839TIP3   OH217480   3.061   5.397   4.441
 5839TIP3    H117481   3.031   5.361   4.358
 5839TIP3    H217482   3.155   5.411   4.429
 5840TIP3   OH217483   4.516   2.701   5.533
 5840TIP3    H117484   4.441   2.718   5.477
 5840TIP3    H217485   4.591   2.697   5.474
 5841TIP3   OH217486   3.582   0.978   3.739
 5841TIP3    H117487   3.662   0.928   3.757
 5841TIP3    H217488   3.542   0.933   3.665
 5842TIP3   OH217489   2.302   1.236   5.578
 5842TIP3    H117490   2.338   1.150   5.598
 5842TIP3    H217491   2.336   1.293   5.647
 5843TIP3   OH217492   4.023   3.383   0.729
 5843TIP3    H117493   4.011   3.374   0.635
 5843TIP3    H217494   3.949   3.436   0.758
 5844TIP3   OH217495   7.021   1.733   1.299
 5844TIP3    H117496   7.000   1.683   1.377
 5844TIP3    H217497   7.076   1.675   1.247
 5845TIP3   OH217498   5.122   2.117   4.315
 5845TIP3    H117499   5.051   2.121   4.250
 5845TIP3    H217500   5.177   2.044   4.286
 5846TIP3   OH217501   7.004   1.327   2.821
 5846TIP3    H117502   7.039   1.347   2.908
 5846TIP3    H217503   6.939   1.258   2.836
 5847TIP3   OH217504   1.076   3.137   4.846
 5847TIP3    H117505   1.159   3.090   4.848
 5847TIP3    H217506   1.009   3.068   4.848
 5848TIP3   OH217507   2.037   3.636   4.076
 5848TIP3    H117508   2.059   3.651   4.168
 5848TIP3    H217509   2.113   3.667   4.028
 5849TIP3   OH217510   4.019   0.436   1.111
 5849TIP3    H117511   3.961   0.465   1.181
 5849TIP3    H217512   4.038   0.516   1.061
 5850TIP3   OH217513   2.891   3.953   5.722
 5850TIP3    H117514   2.891   3.857   5.721
 5850TIP3    H217515   2.981   3.976   5.748
 5851TIP3   OH217516   5.613   3.860   1.109
 5851TIP3    H117517   5.575   3.938   1.068
 5851TIP3    H217518   5.603   3.875   1.203
 5852TIP3   OH217519   1.121   1.304   3.475
 5852TIP3    H117520   1.047   1.266   3.522
 5852TIP3    H217521   1.198   1.273   3.525
 5853TIP3   OH217522   1.449   3.240   1.106
 5853TIP3    H117523   1.533   3.241   1.060
 5853TIP3    H217524   1.404   3.162   1.073
 5854TIP3   OH217525   0.262   6.341   4.805
 5854TIP3    H117526   0.286   6.252   4.781
 5854TIP3    H217527   0.174   6.333   4.843
 5855TIP3   OH217528   3.255   3.177   4.053
 5855TIP3    H117529   3.187   3.112   4.065
 5855TIP3    H217530   3.318   3.159   4.123
 5856TIP3   OH217531   1.423   0.941   1.404
 5856TIP3    H117532   1.451   1.030   1.423
 5856TIP3    H217533   1.485   0.886   1.452
 5857TIP3   OH217534   5.479   1.516   4.615
 5857TIP3    H117535   5.559   1.465   4.622
 5857TIP3    H217536   5.416   1.457   4.574
 5858TIP3   OH217537   6.835   1.536   5.392
 5858TIP3    H117538   6.852   1.442   5.382
 5858TIP3    H217539   6.908   1.578   5.346
 5859TIP3   OH217540   0.245   1.467   0.591
 5859TIP3    H117541   0.193   1.546   0.603
 5859TIP3    H217542   0.189   1.409   0.539
 5860TIP3   OH217543   0.513   2.356   1.418
 5860TIP3    H117544   0.569   2.308   1.479
 5860TIP3    H217545   0.430   2.366   1.464
 5861TIP3   OH217546   6.988   6.123   3.236
 5861TIP3    H117547   7.033   6.096   3.316
 5861TIP3    H217548   7.001   6.051   3.175
 5862TIP3   OH217549   3.043   1.981   1.776
 5862TIP3    H117550   3.117   1.922   1.762
 5862TIP3    H217551   2.980   1.930   1.827
 5863TIP3   OH217552   0.239   0.354   0.040
 5863TIP3    H117553   0.250   0.449   0.033
 5863TIP3    H217554   0.153   0.343   0.082
 5864TIP3   OH217555   7.079   6.541   1.879
 5864TIP3    H117556   7.132   6.493   1.817
 5864TIP3    H217557   7.009   6.580   1.826
 5865TIP3   OH217558   3.554   2.725   2.806
 5865TIP3    H117559   3.501   2.717   2.886
 5865TIP3    H217560   3.577   2.635   2.783
 5866TIP3   OH217561   0.387   3.025   5.737
 5866TIP3    H117562   0.475   3.059   5.757
 5866TIP3    H217563   0.395   2.930   5.750
 5867TIP3   OH217564   5.997   1.346   2.666
 5867TIP3    H117565   5.999   1.394   2.583
 5867TIP3    H217566   5.905   1.346   2.692
 5868TIP3   OH217567   6.703   3.888   5.244
 5868TIP3    H117568   6.730   3.826   5.177
 5868TIP3    H217569   6.623   3.928   5.210
 5869TIP3   OH217570   5.846   5.189   3.364
 5869TIP3    H117571   5.923   5.133   3.354
 5869TIP3    H217572   5.842   5.208   3.458
 5870TIP3   OH217573   4.560   1.234   1.388
 5870TIP3    H117574   4.612   1.224   1.309
 5870TIP3    H217575   4.623   1.232   1.460
 5871TIP3   OH217576   5.954   0.767   2.639
 5871TIP3    H117577   6.003   0.849   2.632
 5871TIP3    H217578   5.919   0.752   2.551
 5872TIP3   OH217579   3.728   5.770   0.156
 5872TIP3    H117580   3.775   5.709   0.099
 5872TIP3    H217581   3.791   5.840   0.172
 5873TIP3   OH217582   0.727   2.930   1.237
 5873TIP3    H117583   0.700   2.838   1.241
 5873TIP3    H217584   0.672   2.973   1.303
 5874TIP3   OH217585   0.661   2.053   5.695
 5874TIP3    H117586   0.756   2.037   5.695
 5874TIP3    H217587   0.653   2.147   5.676
 5875TIP3   OH217588   4.877   1.424   1.378
 5875TIP3    H117589   4.934   1.492   1.415
 5875TIP3    H217590   4.845   1.462   1.296
 5876TIP3   OH217591   5.654   2.249   1.615
 5876TIP3    H117592   5.720   2.181   1.620
 5876TIP3    H217593   5.696   2.320   1.567
 5877TIP3   OH217594   3.828   1.375   2.642
 5877TIP3    H117595   3.918   1.383   2.674
 5877TIP3    H217596   3.836   1.321   2.563
 5878TIP3   OH217597   5.674   5.779   0.979
 5878TIP3    H117598   5.596   5.834   0.986
 5878TIP3    H217599   5.707   5.793   0.891
 5879TIP3   OH217600   4.736   2.523   3.635
 5879TIP3    H117601   4.807   2.506   3.573
 5879TIP3    H217602   4.778   2.569   3.708
 5880TIP3   OH217603   5.521   4.403   5.516
 5880TIP3    H117604   5.477   4.431   5.436
 5880TIP3    H217605   5.499   4.471   5.580
 5881TIP3   OH217606   0.526   2.660   4.466
 5881TIP3    H117607   0.613   2.664   4.426
 5881TIP3    H217608   0.536   2.598   4.539
 5882TIP3   OH217609   5.678   0.435   0.459
 5882TIP3    H117610   5.761   0.387   0.450
 5882TIP3    H217611   5.657   0.463   0.370
 5883TIP3   OH217612   3.659   3.529   5.186
 5883TIP3    H117613   3.700   3.479   5.116
 5883TIP3    H217614   3.662   3.471   5.262
 5884TIP3   OH217615   3.000   0.352   5.446
 5884TIP3    H117616   2.979   0.441   5.416
 5884TIP3    H217617   2.999   0.299   5.367
 5885TIP3   OH217618   4.365   6.071   3.526
 5885TIP3    H117619   4.299   6.054   3.594
 5885TIP3    H217620   4.409   5.988   3.514
 5886TIP3   OH217621   6.820   0.125   0.957
 5886TIP3    H117622   6.745   0.066   0.961
 5886TIP3    H217623   6.871   0.104   1.036
 5887TIP3   OH217624   3.135   0.834   4.739
 5887TIP3    H117625   3.106   0.915   4.782
 5887TIP3    H217626   3.221   0.817   4.777
 5888TIP3   OH217627   2.343   2.401   0.062
 5888TIP3    H117628   2.385   2.407   0.148
 5888TIP3    H217629   2.386   2.327   0.019
 5889TIP3   OH217630   4.488   1.656   5.589
 5889TIP3    H117631   4.577   1.689   5.599
 5889TIP3    H217632   4.500   1.566   5.560
 5890TIP3   OH217633   0.713   0.796   3.913
 5890TIP3    H117634   0.622   0.818   3.932
 5890TIP3    H217635   0.744   0.867   3.857
 5891TIP3   OH217636   0.422   5.237   1.004
 5891TIP3    H117637   0.370   5.239   1.085
 5891TIP3    H217638   0.356   5.239   0.934
 5892TIP3   OH217639   6.515   1.333   3.715
 5892TIP3    H117640   6.550   1.245   3.700
 5892TIP3    H217641   6.445   1.320   3.779
 5893TIP3   OH217642   2.097   3.128   5.643
 5893TIP3    H117643   2.164   3.196   5.650
 5893TIP3    H217644   2.125   3.061   5.705
 5894TIP3   OH217645   1.102   4.716   3.633
 5894TIP3    H117646   1.143   4.643   3.587
 5894TIP3    H217647   1.019   4.681   3.664
 5895TIP3   OH217648   0.999   4.359   1.888
 5895TIP3    H117649   1.071   4.297   1.880
 5895TIP3    H217650   0.978   4.385   1.798
 5896TIP3   OH217651   4.748   3.697   0.704
 5896TIP3    H117652   4.677   3.634   0.710
 5896TIP3    H217653   4.786   3.682   0.617
 5897TIP3   OH217654   0.208   4.688   4.066
 5897TIP3    H117655   0.249   4.773   4.078
 5897TIP3    H217656   0.273   4.625   4.097
 5898TIP3   OH217657   1.235   6.088   3.372
 5898TIP3    H117658   1.311   6.034   3.395
 5898TIP3    H217659   1.174   6.026   3.332
 5899TIP3   OH217660   3.099   4.537   1.193
 5899TIP3    H117661   3.159   4.462   1.184
 5899TIP3    H217662   3.067   4.553   1.104
 5900TIP3   OH217663   1.417   2.512   4.209
 5900TIP3    H117664   1.407   2.588   4.152
 5900TIP3    H217665   1.327   2.488   4.232
 5901TIP3   OH217666   5.992   5.115   2.259
 5901TIP3    H117667   6.083   5.132   2.234
 5901TIP3    H217668   5.974   5.180   2.326
 5902TIP3   OH217669   5.218   2.427   0.372
 5902TIP3    H117670   5.261   2.341   0.378
 5902TIP3    H217671   5.289   2.490   0.380
 5903TIP3   OH217672   1.530   5.586   4.549
 5903TIP3    H117673   1.583   5.507   4.543
 5903TIP3    H217674   1.450   5.558   4.594
 5904TIP3   OH217675   4.813   6.136   4.003
 5904TIP3    H117676   4.849   6.107   4.087
 5904TIP3    H217677   4.719   6.123   4.012
 5905TIP3   OH217678   3.978   0.842   4.927
 5905TIP3    H117679   3.957   0.797   5.009
 5905TIP3    H217680   3.919   0.917   4.924
 5906TIP3   OH217681   3.164   1.439   2.199
 5906TIP3    H117682   3.227   1.372   2.173
 5906TIP3    H217683   3.157   1.430   2.294
 5907TIP3   OH217684   2.182   2.639   5.684
 5907TIP3    H117685   2.276   2.639   5.667
 5907TIP3    H217686   2.171   2.583   5.760
 5908TIP3   OH217687   3.823   4.678   2.249
 5908TIP3    H117688   3.820   4.722   2.164
 5908TIP3    H217689   3.745   4.711   2.295
 5909TIP3   OH217690   5.736   1.955   0.448
 5909TIP3    H117691   5.658   1.996   0.409
 5909TIP3    H217692   5.752   1.878   0.394
 5910TIP3   OH217693   6.630   2.519   2.897
 5910TIP3    H117694   6.711   2.496   2.942
 5910TIP3    H217695   6.650   2.602   2.853
 5911TIP3   OH217696   1.233   4.375   0.290
 5911TIP3    H117697   1.323   4.343   0.290
 5911TIP3    H217698   1.227   4.430   0.368
 5912TIP3   OH217699   1.513   0.966   0.938
 5912TIP3    H117700   1.478   1.054   0.954
 5912TIP3    H217701   1.507   0.923   1.023
 5913TIP3   OH217702   1.909   4.794   3.503
 5913TIP3    H117703   1.893   4.701   3.486
 5913TIP3    H217704   1.872   4.840   3.428
 5914TIP3   OH217705   4.404   4.985   4.878
 5914TIP3    H117706   4.417   5.071   4.838
 5914TIP3    H217707   4.456   4.987   4.958
 5915TIP3   OH217708   0.934   3.614   5.609
 5915TIP3    H117709   0.945   3.594   5.516
 5915TIP3    H217710   0.840   3.625   5.620
 5916TIP3   OH217711   1.435   5.799   5.701
 5916TIP3    H117712   1.350   5.759   5.686
 5916TIP3    H217713   1.495   5.726   5.715
 5917TIP3   OH217714   6.752   2.120   1.051
 5917TIP3    H117715   6.827   2.176   1.066
 5917TIP3    H217716   6.779   2.033   1.081
 5918TIP3   OH217717   2.298   2.215   5.864
 5918TIP3    H117718   2.247   2.197   5.943
 5918TIP3    H217719   2.374   2.158   5.871
 5919TIP3   OH217720   5.142   4.907   1.860
 5919TIP3    H117721   5.132   4.814   1.880
 5919TIP3    H217722   5.120   4.914   1.767
 5920TIP3   OH217723   4.727   1.470   5.642
 5920TIP3    H117724   4.823   1.474   5.646
 5920TIP3    H217725   4.707   1.450   5.551
 5921TIP3   OH217726   3.711   5.355   3.130
 5921TIP3    H117727   3.768   5.431   3.118
 5921TIP3    H217728   3.768   5.289   3.169
 5922TIP3   OH217729   5.904   2.688   0.278
 5922TIP3    H117730   5.992   2.712   0.248
 5922TIP3    H217731   5.849   2.697   0.199
 5923TIP3   OH217732   2.180   3.486   3.107
 5923TIP3    H117733   2.245   3.489   3.037
 5923TIP3    H217734   2.123   3.412   3.084
 5924TIP3   OH217735   4.521   0.256   3.363
 5924TIP3    H117736   4.603   0.209   3.375
 5924TIP3    H217737   4.464   0.195   3.316
 5925TIP3   OH217738   4.865   5.322   0.829
 5925TIP3    H117739   4.924   5.396   0.841
 5925TIP3    H217740   4.895   5.257   0.893
 5926TIP3   OH217741   2.424   1.853   4.892
 5926TIP3    H117742   2.422   1.786   4.960
 5926TIP3    H217743   2.371   1.817   4.821
 5927TIP3   OH217744   1.844   3.459   5.266
 5927TIP3    H117745   1.779   3.404   5.221
 5927TIP3    H217746   1.900   3.397   5.313
 5928TIP3   OH217747   2.650   3.375   1.054
 5928TIP3    H117748   2.594   3.383   1.131
 5928TIP3    H217749   2.652   3.282   1.034
 5929TIP3   OH217750   1.846   1.362   1.101
 5929TIP3    H117751   1.839   1.270   1.075
 5929TIP3    H217752   1.914   1.398   1.044
 5930TIP3   OH217753   3.013   4.479   3.337
 5930TIP3    H117754   3.072   4.497   3.410
 5930TIP3    H217755   3.011   4.384   3.329
 5931TIP3   OH217756   1.605   1.871   1.240
 5931TIP3    H117757   1.526   1.900   1.285
 5931TIP3    H217758   1.660   1.834   1.309
 5932TIP3   OH217759   5.581   4.700   4.527
 5932TIP3    H117760   5.638   4.677   4.453
 5932TIP3    H217761   5.503   4.737   4.487
 5933TIP3   OH217762   0.790   1.874   4.515
 5933TIP3    H117763   0.710   1.870   4.567
 5933TIP3    H217764   0.812   1.783   4.497
 5934TIP3   OH217765   0.565   1.110   1.634
 5934TIP3    H117766   0.518   1.125   1.552
 5934TIP3    H217767   0.496   1.110   1.701
 5935TIP3   OH217768   1.252   3.801   4.026
 5935TIP3    H117769   1.170   3.851   4.024
 5935TIP3    H217770   1.228   3.718   4.067
 5936TIP3   OH217771   2.692   0.670   2.748
 5936TIP3    H117772   2.685   0.729   2.673
 5936TIP3    H217773   2.756   0.711   2.806
 5937TIP3   OH217774   0.864   1.398   4.613
 5937TIP3    H117775   0.837   1.480   4.571
 5937TIP3    H217776   0.788   1.373   4.666
 5938TIP3   OH217777   0.167   1.760   1.216
 5938TIP3    H117778   0.098   1.705   1.253
 5938TIP3    H217779   0.120   1.829   1.169
 5939TIP3   OH217780   4.079   0.630   0.951
 5939TIP3    H117781   4.137   0.652   0.878
 5939TIP3    H217782   4.023   0.706   0.962
 5940TIP3   OH217783   4.896   3.513   2.267
 5940TIP3    H117784   4.902   3.477   2.179
 5940TIP3    H217785   4.921   3.441   2.325
 5941TIP3   OH217786   4.844   0.377   3.450
 5941TIP3    H117787   4.840   0.283   3.471
 5941TIP3    H217788   4.774   0.391   3.386
 5942TIP3   OH217789   6.812   0.622   0.320
 5942TIP3    H117790   6.858   0.559   0.375
 5942TIP3    H217791   6.723   0.589   0.314
 5943TIP3   OH217792   6.978   5.037   4.331
 5943TIP3    H117793   6.918   4.972   4.367
 5943TIP3    H217794   7.035   4.987   4.273
 5944TIP3   OH217795   0.204   3.970   5.538
 5944TIP3    H117796   0.257   4.024   5.596
 5944TIP3    H217797   0.157   4.034   5.483
 5945TIP3   OH217798   5.992   5.685   3.204
 5945TIP3    H117799   5.947   5.600   3.196
 5945TIP3    H217800   5.921   5.748   3.220
 5946TIP3   OH217801   2.136   5.176   4.763
 5946TIP3    H117802   2.193   5.100   4.775
 5946TIP3    H217803   2.175   5.245   4.816
 5947TIP3   OH217804   1.338   1.063   0.702
 5947TIP3    H117805   1.402   1.038   0.768
 5947TIP3    H217806   1.299   1.144   0.736
 5948TIP3   OH217807   5.504   2.013   2.115
 5948TIP3    H117808   5.558   2.076   2.067
 5948TIP3    H217809   5.531   1.927   2.083
 5949TIP3   OH217810   0.714   3.062   1.682
 5949TIP3    H117811   0.733   2.979   1.638
 5949TIP3    H217812   0.798   3.108   1.685
 5950TIP3   OH217813   5.700   5.553   2.212
 5950TIP3    H117814   5.643   5.583   2.141
 5950TIP3    H217815   5.787   5.550   2.173
 5951TIP3   OH217816   0.740   6.440   0.834
 5951TIP3    H117817   0.833   6.461   0.831
 5951TIP3    H217818   0.735   6.348   0.810
 5952TIP3   OH217819   3.838   0.368   1.875
 5952TIP3    H117820   3.756   0.387   1.922
 5952TIP3    H217821   3.883   0.304   1.931
 5953TIP3   OH217822   4.235   6.217   2.520
 5953TIP3    H117823   4.159   6.208   2.578
 5953TIP3    H217824   4.199   6.213   2.432
 5954TIP3   OH217825   3.306   6.338   2.471
 5954TIP3    H117826   3.283   6.262   2.524
 5954TIP3    H217827   3.310   6.304   2.381
 5955TIP3   OH217828   6.582   2.529   1.427
 5955TIP3    H117829   6.515   2.464   1.448
 5955TIP3    H217830   6.624   2.496   1.348
 5956TIP3   OH217831   3.634   0.132   2.108
 5956TIP3    H117832   3.618   0.143   2.202
 5956TIP3    H217833   3.647   0.222   2.076
 5957TIP3   OH217834   6.314   5.461   0.423
 5957TIP3    H117835   6.323   5.366   0.433
 5957TIP3    H217836   6.347   5.497   0.505
 5958TIP3   OH217837   1.474   5.027   3.829
 5958TIP3    H117838   1.424   4.945   3.830
 5958TIP3    H217839   1.450   5.069   3.747
 5959TIP3   OH217840   1.707   0.143   2.844
 5959TIP3    H117841   1.717   0.131   2.939
 5959TIP3    H217842   1.677   0.234   2.834
 5960TIP3   OH217843   6.966   2.192   4.063
 5960TIP3    H117844   6.874   2.168   4.072
 5960TIP3    H217845   6.965   2.276   4.018
 5961TIP3   OH217846   5.835   4.001   2.354
 5961TIP3    H117847   5.757   3.976   2.304
 5961TIP3    H217848   5.804   4.009   2.444
 5962TIP3   OH217849   6.358   0.418   0.730
 5962TIP3    H117850   6.318   0.335   0.704
 5962TIP3    H217851   6.291   0.462   0.782
 5963TIP3   OH217852   5.664   3.487   3.064
 5963TIP3    H117853   5.734   3.519   3.007
 5963TIP3    H217854   5.657   3.394   3.044
 5964TIP3   OH217855   6.888   5.085   1.666
 5964TIP3    H117856   6.943   5.109   1.740
 5964TIP3    H217857   6.944   5.095   1.590
 5965TIP3   OH217858   1.604   0.189   2.592
 5965TIP3    H117859   1.641   0.177   2.679
 5965TIP3    H217860   1.519   0.229   2.607
 5966TIP3   OH217861   5.917   6.279   4.193
 5966TIP3    H117862   5.851   6.313   4.132
 5966TIP3    H217863   5.931   6.189   4.164
 5967TIP3   OH217864   3.964   6.791   2.599
 5967TIP3    H117865   4.009   6.852   2.658
 5967TIP3    H217866   3.982   6.705   2.637
 5968TIP3   OH217867   1.847   3.061   3.258
 5968TIP3    H117868   1.928   3.076   3.306
 5968TIP3    H217869   1.873   3.005   3.185
 5969TIP3   OH217870   4.210   6.784   0.713
 5969TIP3    H117871   4.172   6.817   0.794
 5969TIP3    H217872   4.215   6.861   0.655
 5970TIP3   OH217873   1.699   5.532   1.892
 5970TIP3    H117874   1.605   5.527   1.909
 5970TIP3    H217875   1.706   5.523   1.797
 5971TIP3   OH217876   5.375   0.969   5.198
 5971TIP3    H117877   5.357   1.026   5.272
 5971TIP3    H217878   5.293   0.920   5.186
 5972TIP3   OH217879   7.033   6.330   1.536
 5972TIP3    H117880   6.972   6.343   1.609
 5972TIP3    H217881   7.013   6.401   1.475
 5973TIP3   OH217882   5.357   6.079   3.166
 5973TIP3    H117883   5.284   6.140   3.159
 5973TIP3    H217884   5.405   6.108   3.244
 5974TIP3   OH217885   3.424   5.743   4.014
 5974TIP3    H117886   3.459   5.732   3.925
 5974TIP3    H217887   3.457   5.667   4.062
 5975TIP3   OH217888   2.620   4.873   0.011
 5975TIP3    H117889   2.553   4.942   0.008
 5975TIP3    H217890   2.577   4.797  -0.029
 5976TIP3   OH217891   5.307   3.905   5.639
 5976TIP3    H117892   5.287   3.846   5.711
 5976TIP3    H217893   5.323   3.989   5.681
 5977TIP3   OH217894   6.836   0.919   4.088
 5977TIP3    H117895   6.773   0.898   4.156
 5977TIP3    H217896   6.870   1.005   4.113
 5978TIP3   OH217897   3.864   3.310   0.481
 5978TIP3    H117898   3.933   3.257   0.441
 5978TIP3    H217899   3.786   3.256   0.473
 5979TIP3   OH217900   1.489   2.464   4.944
 5979TIP3    H117901   1.576   2.425   4.937
 5979TIP3    H217902   1.493   2.518   5.023
 5980TIP3   OH217903   6.180   1.202   0.306
 5980TIP3    H117904   6.159   1.216   0.214
 5980TIP3    H217905   6.129   1.267   0.353
 5981TIP3   OH217906   1.756   1.208   2.543
 5981TIP3    H117907   1.814   1.167   2.607
 5981TIP3    H217908   1.676   1.227   2.592
 5982TIP3   OH217909   7.153   3.971   3.821
 5982TIP3    H117910   7.149   4.044   3.883
 5982TIP3    H217911   7.112   3.898   3.867
 5983TIP3   OH217912   6.948   3.109   4.730
 5983TIP3    H117913   6.963   3.193   4.686
 5983TIP3    H217914   6.864   3.079   4.696
 5984TIP3   OH217915   4.799   6.297   4.754
 5984TIP3    H117916   4.714   6.326   4.788
 5984TIP3    H217917   4.845   6.379   4.735
 5985TIP3   OH217918   5.348   3.477   3.852
 5985TIP3    H117919   5.294   3.457   3.928
 5985TIP3    H217920   5.326   3.568   3.830
 5986TIP3   OH217921   3.600   0.400   2.030
 5986TIP3    H117922   3.537   0.435   1.966
 5986TIP3    H217923   3.596   0.461   2.104
 5987TIP3   OH217924   4.734   1.141   5.769
 5987TIP3    H117925   4.679   1.139   5.690
 5987TIP3    H217926   4.821   1.167   5.736
 5988TIP3   OH217927   7.112   3.184   5.407
 5988TIP3    H117928   7.167   3.106   5.395
 5988TIP3    H217929   7.167   3.243   5.460
 5989TIP3   OH217930   3.424   4.206   0.215
 5989TIP3    H117931   3.417   4.111   0.207
 5989TIP3    H217932   3.419   4.238   0.125
 5990TIP3   OH217933   7.172   3.803   4.379
 5990TIP3    H117934   7.233   3.874   4.395
 5990TIP3    H217935   7.114   3.803   4.455
 5991TIP3   OH217936   2.792   1.290   1.618
 5991TIP3    H117937   2.828   1.245   1.695
 5991TIP3    H217938   2.835   1.249   1.544
 5992TIP3   OH217939   2.721   1.974   3.125
 5992TIP3    H117940   2.671   1.914   3.180
 5992TIP3    H217941   2.733   1.927   3.043
 5993TIP3   OH217942   0.167   1.848   0.707
 5993TIP3    H117943   0.259   1.828   0.686
 5993TIP3    H217944   0.125   1.762   0.713
 5994TIP3   OH217945   6.337   0.219   1.683
 5994TIP3    H117946   6.258   0.164   1.678
 5994TIP3    H217947   6.394   0.186   1.614
 5995TIP3   OH217948   3.000   3.435   3.222
 5995TIP3    H117949   3.073   3.390   3.180
 5995TIP3    H217950   2.924   3.414   3.168
 5996TIP3   OH217951   2.884   1.664   5.510
 5996TIP3    H117952   2.828   1.645   5.584
 5996TIP3    H217953   2.970   1.683   5.549
 5997TIP3   OH217954   0.458   4.256   1.814
 5997TIP3    H117955   0.425   4.196   1.747
 5997TIP3    H217956   0.418   4.340   1.793
 5998TIP3   OH217957   3.555   5.010   3.253
 5998TIP3    H117958   3.631   4.982   3.204
 5998TIP3    H217959   3.578   4.994   3.345
 5999TIP3   OH217960   1.544   3.657   2.795
 5999TIP3    H117961   1.597   3.725   2.835
 5999TIP3    H217962   1.464   3.655   2.848
 6000TIP3   OH217963   4.201   0.289   4.460
 6000TIP3    H117964   4.146   0.275   4.383
 6000TIP3    H217965   4.205   0.384   4.470
 6001TIP3   OH217966   0.721   4.606   2.301
 6001TIP3    H117967   0.688   4.542   2.238
 6001TIP3    H217968   0.782   4.660   2.251
 6002TIP3   OH217969   4.457   4.648   4.086
 6002TIP3    H117970   4.426   4.696   4.163
 6002TIP3    H217971   4.390   4.582   4.069
 6003TIP3   OH217972   1.835   1.707   0.899
 6003TIP3    H117973   1.914   1.688   0.950
 6003TIP3    H217974   1.806   1.792   0.931
 6004TIP3   OH217975   1.038   0.626   2.329
 6004TIP3    H117976   1.065   0.716   2.312
 6004TIP3    H217977   1.118   0.575   2.320
 6005TIP3   OH217978   2.424   4.794   4.832
 6005TIP3    H117979   2.357   4.831   4.775
 6005TIP3    H217980   2.410   4.699   4.826
 6006TIP3   OH217981   4.948   2.426   4.007
 6006TIP3    H117982   5.020   2.423   4.070
 6006TIP3    H217983   4.960   2.350   3.952
 6007TIP3   OH217984   5.395   1.683   1.750
 6007TIP3    H117985   5.421   1.616   1.686
 6007TIP3    H217986   5.359   1.634   1.823
 6008TIP3   OH217987   1.398   0.132   3.713
 6008TIP3    H117988   1.377   0.104   3.624
 6008TIP3    H217989   1.316   0.171   3.746
 6009TIP3   OH217990   5.754   0.378   4.654
 6009TIP3    H117991   5.792   0.341   4.734
 6009TIP3    H217992   5.829   0.398   4.598
 6010TIP3   OH217993   5.867   6.109   4.810
 6010TIP3    H117994   5.798   6.093   4.875
 6010TIP3    H217995   5.909   6.190   4.838
 6011TIP3   OH217996   3.054   0.014   5.152
 6011TIP3    H117997   3.034   0.003   5.245
 6011TIP3    H217998   3.148   0.030   5.149
 6012TIP3   OH217999   5.613   3.613   2.062
 6012TIP3    H118000   5.682   3.550   2.078
 6012TIP3    H218001   5.579   3.591   1.975
 6013TIP3   OH218002   6.491   3.764   5.384
 6013TIP3    H118003   6.546   3.728   5.315
 6013TIP3    H218004   6.531   3.734   5.466
 6014TIP3   OH218005   1.728   4.811   3.242
 6014TIP3    H118006   1.715   4.905   3.257
 6014TIP3    H218007   1.669   4.769   3.305
 6015TIP3   OH218008   0.429   5.125   0.648
 6015TIP3    H118009   0.522   5.121   0.625
 6015TIP3    H218010   0.386   5.067   0.585
 6016TIP3   OH218011   3.452   3.896   4.029
 6016TIP3    H118012   3.534   3.940   4.055
 6016TIP3    H218013   3.461   3.807   4.061
 6017TIP3   OH218014   4.774   4.515   3.367
 6017TIP3    H118015   4.747   4.601   3.336
 6017TIP3    H218016   4.857   4.532   3.413
 6018TIP3   OH218017   5.541   0.907   5.754
 6018TIP3    H118018   5.506   0.995   5.739
 6018TIP3    H218019   5.635   0.920   5.763
 6019TIP3   OH218020   6.231   1.917   1.910
 6019TIP3    H118021   6.195   1.869   1.984
 6019TIP3    H218022   6.319   1.880   1.898
 6020TIP3   OH218023   5.330   2.851   3.014
 6020TIP3    H118024   5.291   2.908   3.080
 6020TIP3    H218025   5.411   2.896   2.988
 6021TIP3   OH218026   4.410   1.387   5.550
 6021TIP3    H118027   4.445   1.317   5.496
 6021TIP3    H218028   4.376   1.451   5.488
 6022TIP3   OH218029   0.000   3.987  -0.008
 6022TIP3    H118030  -0.025   4.071  -0.046
 6022TIP3    H218031   0.089   4.001   0.024
 6023TIP3   OH218032   5.068   5.727   1.795
 6023TIP3    H118033   5.032   5.645   1.828
 6023TIP3    H218034   5.080   5.712   1.702
 6024TIP3   OH218035   3.080   6.459   2.572
 6024TIP3    H118036   3.058   6.537   2.522
 6024TIP3    H218037   3.175   6.450   2.562
 6025TIP3   OH218038   1.114   4.512   5.038
 6025TIP3    H118039   1.056   4.475   5.105
 6025TIP3    H218040   1.171   4.572   5.087
 6026TIP3   OH218041   0.786   1.051   4.098
 6026TIP3    H118042   0.801   1.127   4.043
 6026TIP3    H218043   0.692   1.052   4.114
 6027TIP3   OH218044   0.266   2.681   4.369
 6027TIP3    H118045   0.286   2.748   4.304
 6027TIP3    H218046   0.346   2.673   4.421
 6028TIP3   OH218047   6.098   5.975   4.783
 6028TIP3    H118048   6.006   6.001   4.790
 6028TIP3    H218049   6.146   6.057   4.769
 6029TIP3   OH218050   6.796   1.720   1.846
 6029TIP3    H118051   6.781   1.706   1.753
 6029TIP3    H218052   6.824   1.634   1.879
 6030TIP3   OH218053   7.102   3.929   5.434
 6030TIP3    H118054   7.017   3.885   5.443
 6030TIP3    H218055   7.158   3.864   5.392
 6031TIP3   OH218056   3.297   3.040   4.896
 6031TIP3    H118057   3.218   3.024   4.844
 6031TIP3    H218058   3.301   2.966   4.957
 6032TIP3   OH218059   2.431   1.476   4.584
 6032TIP3    H118060   2.366   1.407   4.594
 6032TIP3    H218061   2.381   1.553   4.558
 6033TIP3   OH218062   0.373   0.370   3.393
 6033TIP3    H118063   0.410   0.456   3.373
 6033TIP3    H218064   0.440   0.308   3.365
 6034TIP3   OH218065   6.332   0.192   3.190
 6034TIP3    H118066   6.332   0.167   3.282
 6034TIP3    H218067   6.416   0.236   3.177
 6035TIP3   OH218068   2.598   4.499   3.438
 6035TIP3    H118069   2.581   4.577   3.491
 6035TIP3    H218070   2.678   4.462   3.476
 6036TIP3   OH218071   2.222   2.296   5.391
 6036TIP3    H118072   2.167   2.262   5.461
 6036TIP3    H218073   2.236   2.221   5.332
 6037TIP3   OH218074   5.715   4.605   4.237
 6037TIP3    H118075   5.633   4.568   4.270
 6037TIP3    H218076   5.756   4.534   4.189
 6038TIP3   OH218077   4.949   5.413   1.407
 6038TIP3    H118078   4.914   5.404   1.318
 6038TIP3    H218079   4.899   5.485   1.445
 6039TIP3   OH218080   5.637   5.790   0.658
 6039TIP3    H118081   5.645   5.695   0.658
 6039TIP3    H218082   5.562   5.808   0.600
 6040TIP3   OH218083   6.680   5.521   2.977
 6040TIP3    H118084   6.648   5.434   3.003
 6040TIP3    H218085   6.659   5.578   3.051
 6041TIP3   OH218086   1.859   6.726   4.013
 6041TIP3    H118087   1.767   6.712   4.034
 6041TIP3    H218088   1.880   6.811   4.052
 6042TIP3   OH218089   4.880   2.866   4.040
 6042TIP3    H118090   4.872   2.816   3.959
 6042TIP3    H218091   4.949   2.820   4.089
 6043TIP3   OH218092   2.347   5.126   0.325
 6043TIP3    H118093   2.283   5.081   0.269
 6043TIP3    H218094   2.418   5.062   0.337
 6044TIP3   OH218095   5.875   4.564   3.988
 6044TIP3    H118096   5.881   4.658   4.003
 6044TIP3    H218097   5.964   4.532   4.004
 6045TIP3   OH218098   3.914   1.530   2.096
 6045TIP3    H118099   3.886   1.578   2.018
 6045TIP3    H218100   3.835   1.524   2.150
 6046TIP3   OH218101   0.409   6.010   1.665
 6046TIP3    H118102   0.435   6.020   1.756
 6046TIP3    H218103   0.331   6.065   1.656
 6047TIP3   OH218104   5.475   3.809   0.160
 6047TIP3    H118105   5.513   3.895   0.142
 6047TIP3    H218106   5.548   3.759   0.198
 6048TIP3   OH218107   2.464   1.026   5.640
 6048TIP3    H118108   2.490   0.934   5.649
 6048TIP3    H218109   2.502   1.053   5.556
 6049TIP3   OH218110   4.206   3.689   1.578
 6049TIP3    H118111   4.290   3.659   1.544
 6049TIP3    H218112   4.221   3.780   1.604
 6050TIP3   OH218113   0.918   2.204   4.011
 6050TIP3    H118114   0.969   2.178   3.934
 6050TIP3    H218115   0.840   2.247   3.975
 6051TIP3   OH218116   6.487   6.535   2.534
 6051TIP3    H118117   6.490   6.617   2.584
 6051TIP3    H218118   6.508   6.561   2.444
 6052TIP3   OH218119   5.879   4.532   0.302
 6052TIP3    H118120   5.924   4.451   0.278
 6052TIP3    H218121   5.840   4.562   0.220
 6053TIP3   OH218122   5.854   4.988   2.669
 6053TIP3    H118123   5.875   4.898   2.641
 6053TIP3    H218124   5.813   5.028   2.592
 6054TIP3   OH218125   3.252   2.710   1.981
 6054TIP3    H118126   3.175   2.677   1.935
 6054TIP3    H218127   3.254   2.660   2.063
 6055TIP3   OH218128   2.303   1.538   0.459
 6055TIP3    H118129   2.211   1.543   0.435
 6055TIP3    H218130   2.303   1.526   0.554
 6056TIP3   OH218131   0.509   4.205   5.364
 6056TIP3    H118132   0.557   4.143   5.310
 6056TIP3    H218133   0.441   4.240   5.307
 6057TIP3   OH218134   4.143   0.606   3.016
 6057TIP3    H118135   4.215   0.666   3.035
 6057TIP3    H218136   4.067   0.664   3.003
 6058TIP3   OH218137   3.936   1.467   1.726
 6058TIP3    H118138   3.983   1.550   1.736
 6058TIP3    H218139   3.911   1.443   1.815
 6059TIP3   OH218140   5.402   3.057   4.317
 6059TIP3    H118141   5.346   3.041   4.242
 6059TIP3    H218142   5.394   3.151   4.334
 6060TIP3   OH218143   4.813   2.056   2.566
 6060TIP3    H118144   4.725   2.039   2.599
 6060TIP3    H218145   4.799   2.101   2.483
 6061TIP3   OH218146   5.144   0.097   3.314
 6061TIP3    H118147   5.156   0.136   3.401
 6061TIP3    H218148   5.062   0.134   3.283
 6062TIP3   OH218149   2.629   1.500   2.179
 6062TIP3    H118150   2.599   1.482   2.268
 6062TIP3    H218151   2.573   1.445   2.124
 6063TIP3   OH218152   2.838   0.118   0.387
 6063TIP3    H118153   2.819   0.027   0.411
 6063TIP3    H218154   2.933   0.121   0.379
 6064TIP3   OH218155   7.009   3.534   0.128
 6064TIP3    H118156   6.928   3.571   0.093
 6064TIP3    H218157   7.062   3.610   0.153
 6065TIP3   OH218158   6.493   4.990   4.791
 6065TIP3    H118159   6.546   5.057   4.747
 6065TIP3    H218160   6.420   4.974   4.731
 6066TIP3   OH218161   1.874   0.597   3.257
 6066TIP3    H118162   1.802   0.589   3.320
 6066TIP3    H218163   1.851   0.536   3.187
 6067TIP3   OH218164   5.546   0.984   4.833
 6067TIP3    H118165   5.574   0.992   4.924
 6067TIP3    H218166   5.494   1.063   4.817
 6068TIP3   OH218167   1.124   1.352   5.164
 6068TIP3    H118168   1.145   1.410   5.092
 6068TIP3    H218169   1.207   1.341   5.211
 6069TIP3   OH218170   4.862   3.749   5.307
 6069TIP3    H118171   4.907   3.776   5.388
 6069TIP3    H218172   4.826   3.830   5.272
 6070TIP3   OH218173   0.073   3.007   2.510
 6070TIP3    H118174   0.065   2.989   2.416
 6070TIP3    H218175   0.157   3.052   2.518
 6071TIP3   OH218176   4.934   6.556   4.700
 6071TIP3    H118177   4.917   6.602   4.618
 6071TIP3    H218178   4.972   6.623   4.758
 6072TIP3   OH218179   5.694   3.373   5.747
 6072TIP3    H118180   5.753   3.370   5.823
 6072TIP3    H218181   5.741   3.425   5.682
 6073TIP3   OH218182   0.409   4.898   2.684
 6073TIP3    H118183   0.319   4.874   2.661
 6073TIP3    H218184   0.451   4.915   2.600
 6074TIP3   OH218185   4.069   2.739   0.754
 6074TIP3    H118186   4.063   2.645   0.739
 6074TIP3    H218187   3.986   2.775   0.721
 6075TIP3   OH218188   0.945   1.230   0.552
 6075TIP3    H118189   0.886   1.201   0.622
 6075TIP3    H218190   1.015   1.277   0.598
 6076TIP3   OH218191   1.964   6.560   1.732
 6076TIP3    H118192   1.935   6.516   1.652
 6076TIP3    H218193   1.902   6.632   1.743
 6077TIP3   OH218194   5.545   0.482   2.953
 6077TIP3    H118195   5.495   0.402   2.968
 6077TIP3    H218196   5.478   0.548   2.935
 6078TIP3   OH218197   6.926   1.167   2.062
 6078TIP3    H118198   6.889   1.239   2.012
 6078TIP3    H218199   6.972   1.114   1.997
 6079TIP3   OH218200   3.845   4.573   3.218
 6079TIP3    H118201   3.880   4.499   3.269
 6079TIP3    H218202   3.798   4.626   3.282
 6080TIP3   OH218203   2.929   0.559   0.868
 6080TIP3    H118204   2.908   0.467   0.883
 6080TIP3    H218205   3.014   0.571   0.910
 6081TIP3   OH218206   4.294   6.531   4.008
 6081TIP3    H118207   4.238   6.486   3.946
 6081TIP3    H218208   4.242   6.605   4.039
 6082TIP3   OH218209   1.461   2.421   4.492
 6082TIP3    H118210   1.384   2.446   4.441
 6082TIP3    H218211   1.434   2.341   4.538
 6083TIP3   OH218212   2.195   6.498   0.472
 6083TIP3    H118213   2.258   6.470   0.406
 6083TIP3    H218214   2.193   6.593   0.465
 6084TIP3   OH218215   3.935   5.978   4.296
 6084TIP3    H118216   3.985   6.057   4.274
 6084TIP3    H218217   3.867   6.008   4.356
 6085TIP3   OH218218   6.455   2.182   5.603
 6085TIP3    H118219   6.445   2.089   5.621
 6085TIP3    H218220   6.518   2.213   5.668
 6086TIP3   OH218221   1.224   4.420   3.273
 6086TIP3    H118222   1.318   4.414   3.290
 6086TIP3    H218223   1.201   4.509   3.296
 6087TIP3   OH218224   5.542   1.786   5.681
 6087TIP3    H118225   5.632   1.803   5.656
 6087TIP3    H218226   5.507   1.872   5.704
 6088TIP3   OH218227   3.458   5.254   3.069
 6088TIP3    H118228   3.548   5.267   3.099
 6088TIP3    H218229   3.429   5.175   3.115
 6089TIP3   OH218230   2.882   3.867   2.753
 6089TIP3    H118231   2.973   3.837   2.757
 6089TIP3    H218232   2.879   3.926   2.677
 6090TIP3   OH218233   0.889   2.171   0.592
 6090TIP3    H118234   0.969   2.222   0.576
 6090TIP3    H218235   0.818   2.231   0.568
 6091TIP3   OH218236   1.699   1.676   4.184
 6091TIP3    H118237   1.620   1.623   4.177
 6091TIP3    H218238   1.713   1.687   4.278
 6092TIP3   OH218239   3.032   5.283   4.901
 6092TIP3    H118240   2.995   5.230   4.971
 6092TIP3    H218241   3.069   5.359   4.945
 6093TIP3   OH218242   6.652   3.690   3.848
 6093TIP3    H118243   6.606   3.606   3.841
 6093TIP3    H218244   6.718   3.686   3.779
 6094TIP3   OH218245   6.751   3.904   1.316
 6094TIP3    H118246   6.708   3.822   1.339
 6094TIP3    H218247   6.811   3.881   1.245
 6095TIP3   OH218248   5.201   0.922   3.549
 6095TIP3    H118249   5.292   0.916   3.577
 6095TIP3    H218250   5.199   0.881   3.462
 6096TIP3   OH218251   5.798   2.872   1.268
 6096TIP3    H118252   5.861   2.903   1.202
 6096TIP3    H218253   5.716   2.915   1.246
 6097TIP3   OH218254   0.444   5.607   5.118
 6097TIP3    H118255   0.378   5.556   5.165
 6097TIP3    H218256   0.506   5.541   5.085
 6098TIP3   OH218257   0.023   4.556   3.627
 6098TIP3    H118258   0.071   4.520   3.702
 6098TIP3    H218259  -0.048   4.606   3.666
 6099TIP3   OH218260   4.424   3.433   3.463
 6099TIP3    H118261   4.383   3.467   3.542
 6099TIP3    H218262   4.501   3.489   3.450
 6100TIP3   OH218263   1.866   1.902   0.577
 6100TIP3    H118264   1.811   1.935   0.648
 6100TIP3    H218265   1.913   1.828   0.617
 6101TIP3   OH218266   5.137   4.484   2.542
 6101TIP3    H118267   5.172   4.404   2.582
 6101TIP3    H218268   5.048   4.460   2.516
 6102TIP3   OH218269   5.825   2.434   1.059
 6102TIP3    H118270   5.889   2.423   0.988
 6102TIP3    H218271   5.835   2.355   1.113
 6103TIP3   OH218272   2.173   4.040   5.776
 6103TIP3    H118273   2.196   3.978   5.708
 6103TIP3    H218274   2.165   4.124   5.730
 6104TIP3   OH218275   2.083   3.743   1.141
 6104TIP3    H118276   2.092   3.830   1.102
 6104TIP3    H218277   2.170   3.704   1.133
 6105TIP3   OH218278   7.067   6.478   4.468
 6105TIP3    H118279   7.088   6.556   4.520
 6105TIP3    H218280   7.104   6.405   4.519
 6106TIP3   OH218281   5.388   5.713   2.373
 6106TIP3    H118282   5.326   5.685   2.440
 6106TIP3    H218283   5.428   5.793   2.409
 6107TIP3   OH218284   4.966   1.843   2.265
 6107TIP3    H118285   4.994   1.866   2.354
 6107TIP3    H218286   5.042   1.863   2.210
 6108TIP3   OH218287   3.030   1.889   3.307
 6108TIP3    H118288   3.000   1.970   3.349
 6108TIP3    H218289   2.950   1.839   3.291
 6109TIP3   OH218290   5.367   4.682   5.707
 6109TIP3    H118291   5.303   4.722   5.766
 6109TIP3    H218292   5.438   4.652   5.765
 6110TIP3   OH218293   0.999   3.324   5.484
 6110TIP3    H118294   0.963   3.379   5.414
 6110TIP3    H218295   1.094   3.340   5.480
 6111TIP3   OH218296   0.431   6.546   2.329
 6111TIP3    H118297   0.469   6.629   2.358
 6111TIP3    H218298   0.495   6.480   2.355
 6112TIP3   OH218299   5.330   0.051   1.848
 6112TIP3    H118300   5.245   0.080   1.816
 6112TIP3    H218301   5.314   0.024   1.938
 6113TIP3   OH218302   4.006   3.461   4.721
 6113TIP3    H118303   4.073   3.484   4.657
 6113TIP3    H218304   3.978   3.372   4.696
 6114TIP3   OH218305   1.093   5.797   2.014
 6114TIP3    H118306   1.043   5.728   1.969
 6114TIP3    H218307   1.163   5.820   1.953
 6115TIP3   OH218308   2.189   4.081   3.807
 6115TIP3    H118309   2.175   4.176   3.810
 6115TIP3    H218310   2.162   4.056   3.719
 6116TIP3   OH218311   1.457   1.465   4.242
 6116TIP3    H118312   1.390   1.533   4.249
 6116TIP3    H218313   1.407   1.384   4.233
 6117TIP3   OH218314   7.013   2.596   2.716
 6117TIP3    H118315   7.102   2.630   2.706
 6117TIP3    H218316   6.958   2.674   2.724
 6118TIP3   OH218317   2.606   5.231   0.615
 6118TIP3    H118318   2.658   5.311   0.623
 6118TIP3    H218319   2.550   5.246   0.539
 6119TIP3   OH218320   5.509   3.018   5.535
 6119TIP3    H118321   5.510   2.998   5.441
 6119TIP3    H218322   5.600   3.009   5.563
 6120TIP3   OH218323   6.616   1.860   5.462
 6120TIP3    H118324   6.545   1.796   5.451
 6120TIP3    H218325   6.640   1.855   5.554
 6121TIP3   OH218326   1.387   4.831   1.727
 6121TIP3    H118327   1.342   4.761   1.774
 6121TIP3    H218328   1.465   4.790   1.691
 6122TIP3   OH218329   1.356   0.701   5.628
 6122TIP3    H118330   1.270   0.669   5.656
 6122TIP3    H218331   1.360   0.791   5.659
 6123TIP3   OH218332   1.329   3.717   0.613
 6123TIP3    H118333   1.308   3.800   0.570
 6123TIP3    H218334   1.425   3.717   0.619
 6124TIP3   OH218335   5.179   6.130   5.103
 6124TIP3    H118336   5.130   6.068   5.157
 6124TIP3    H218337   5.158   6.106   5.013
 6125TIP3   OH218338   4.401   5.762   5.727
 6125TIP3    H118339   4.360   5.846   5.749
 6125TIP3    H218340   4.423   5.723   5.811
 6126TIP3   OH218341   5.283   1.058   1.076
 6126TIP3    H118342   5.216   1.095   1.133
 6126TIP3    H218343   5.317   1.132   1.027
 6127TIP3   OH218344   6.449   6.253   1.161
 6127TIP3    H118345   6.374   6.204   1.194
 6127TIP3    H218346   6.454   6.229   1.069
 6128TIP3   OH218347   2.548   3.452   5.110
 6128TIP3    H118348   2.614   3.402   5.158
 6128TIP3    H218349   2.562   3.428   5.018
 6129TIP3   OH218350   1.194   6.446   1.193
 6129TIP3    H118351   1.233   6.532   1.176
 6129TIP3    H218352   1.227   6.422   1.280
 6130TIP3   OH218353   4.747   1.477   2.783
 6130TIP3    H118354   4.690   1.468   2.859
 6130TIP3    H218355   4.812   1.541   2.809
 6131TIP3   OH218356   3.732   2.613   3.584
 6131TIP3    H118357   3.703   2.527   3.555
 6131TIP3    H218358   3.819   2.597   3.621
 6132TIP3   OH218359   4.175   5.556   4.259
 6132TIP3    H118360   4.139   5.468   4.273
 6132TIP3    H218361   4.138   5.608   4.330
 6133TIP3   OH218362   1.868   0.881   1.431
 6133TIP3    H118363   1.828   0.907   1.348
 6133TIP3    H218364   1.887   0.787   1.421
 6134TIP3   OH218365   5.246   3.009   3.237
 6134TIP3    H118366   5.255   2.960   3.319
 6134TIP3    H218367   5.184   3.079   3.259
 6135TIP3   OH218368   4.640   3.872   1.160
 6135TIP3    H118369   4.662   3.782   1.182
 6135TIP3    H218370   4.683   3.887   1.076
 6136TIP3   OH218371   5.160   5.113   3.655
 6136TIP3    H118372   5.127   5.201   3.674
 6136TIP3    H218373   5.155   5.067   3.738
 6137TIP3   OH218374   0.926   4.998   3.930
 6137TIP3    H118375   0.865   4.936   3.971
 6137TIP3    H218376   0.900   4.999   3.838
 6138TIP3   OH218377   1.989   3.481   0.409
 6138TIP3    H118378   1.982   3.436   0.493
 6138TIP3    H218379   2.065   3.538   0.419
 6139TIP3   OH218380   4.675   6.061   3.448
 6139TIP3    H118381   4.750   6.072   3.506
 6139TIP3    H218382   4.713   6.049   3.361
 6140TIP3   OH218383   0.682   3.615   5.712
 6140TIP3    H118384   0.637   3.697   5.734
 6140TIP3    H218385   0.684   3.566   5.795
 6141TIP3   OH218386   3.227   0.342   5.621
 6141TIP3    H118387   3.147   0.357   5.571
 6141TIP3    H218388   3.234   0.246   5.627
 6142TIP3   OH218389   0.897   3.875   1.421
 6142TIP3    H118390   0.914   3.932   1.496
 6142TIP3    H218391   0.909   3.932   1.345
 6143TIP3   OH218392   3.407   5.461   0.353
 6143TIP3    H118393   3.407   5.445   0.447
 6143TIP3    H218394   3.328   5.418   0.322
 6144TIP3   OH218395   5.344   0.217   2.412
 6144TIP3    H118396   5.426   0.218   2.460
 6144TIP3    H218397   5.313   0.307   2.413
 6145TIP3   OH218398   6.302   4.988   3.186
 6145TIP3    H118399   6.378   5.022   3.138
 6145TIP3    H218400   6.326   4.898   3.209
 6146TIP3   OH218401   4.884   3.724   4.771
 6146TIP3    H118402   4.792   3.734   4.749
 6146TIP3    H218403   4.885   3.699   4.863
 6147TIP3   OH218404   3.680   6.752   5.802
 6147TIP3    H118405   3.712   6.758   5.712
 6147TIP3    H218406   3.758   6.730   5.854
 6148TIP3   OH218407   5.393   6.788   2.753
 6148TIP3    H118408   5.389   6.705   2.801
 6148TIP3    H218409   5.486   6.809   2.749
 6149TIP3   OH218410   0.629   3.534   4.278
 6149TIP3    H118411   0.568   3.599   4.315
 6149TIP3    H218412   0.648   3.474   4.350
 6150TIP3   OH218413   2.932   3.672   5.785
 6150TIP3    H118414   2.948   3.640   5.696
 6150TIP3    H218415   2.837   3.667   5.796
 6151TIP3   OH218416   0.674   0.799   5.698
 6151TIP3    H118417   0.667   0.861   5.625
 6151TIP3    H218418   0.651   0.851   5.775
 6152TIP3   OH218419   6.647   2.236   3.750
 6152TIP3    H118420   6.585   2.198   3.812
 6152TIP3    H218421   6.660   2.326   3.781
 6153TIP3   OH218422   2.694   1.064   4.371
 6153TIP3    H118423   2.609   1.103   4.351
 6153TIP3    H218424   2.732   1.120   4.439
 6154TIP3   OH218425   0.838   3.051   2.816
 6154TIP3    H118426   0.886   2.984   2.865
 6154TIP3    H218427   0.794   3.102   2.884
 6155TIP3   OH218428   2.022   5.646   2.459
 6155TIP3    H118429   2.079   5.617   2.530
 6155TIP3    H218430   1.937   5.607   2.479
 6156TIP3   OH218431   6.358   3.996   5.054
 6156TIP3    H118432   6.341   3.904   5.074
 6156TIP3    H218433   6.332   4.005   4.962
 6157TIP3   OH218434   5.689   4.143   2.122
 6157TIP3    H118435   5.758   4.191   2.076
 6157TIP3    H218436   5.704   4.051   2.097
 6158TIP3   OH218437   0.716   1.969   0.653
 6158TIP3    H118438   0.729   1.963   0.558
 6158TIP3    H218439   0.757   2.052   0.677
 6159TIP3   OH218440   5.436   4.508   1.855
 6159TIP3    H118441   5.397   4.581   1.903
 6159TIP3    H218442   5.430   4.434   1.916
 6160TIP3   OH218443   3.560   2.460   2.856
 6160TIP3    H118444   3.561   2.419   2.943
 6160TIP3    H218445   3.567   2.387   2.795
 6161TIP3   OH218446   4.713   1.141   3.707
 6161TIP3    H118447   4.629   1.178   3.682
 6161TIP3    H218448   4.693   1.052   3.734
 6162TIP3   OH218449   4.714   4.285   4.450
 6162TIP3    H118450   4.700   4.337   4.529
 6162TIP3    H218451   4.643   4.221   4.450
 6163TIP3   OH218452   2.875   2.982   1.870
 6163TIP3    H118453   2.843   2.906   1.822
 6163TIP3    H218454   2.819   2.987   1.947
 6164TIP3   OH218455   3.869   3.112   3.828
 6164TIP3    H118456   3.907   3.117   3.741
 6164TIP3    H218457   3.944   3.115   3.887
 6165TIP3   OH218458   6.582   1.692   1.292
 6165TIP3    H118459   6.526   1.741   1.231
 6165TIP3    H218460   6.612   1.759   1.354
 6166TIP3   OH218461   6.087  -0.032   4.878
 6166TIP3    H118462   6.098   0.051   4.832
 6166TIP3    H218463   6.048  -0.008   4.962
 6167TIP3   OH218464   6.044   6.768   4.785
 6167TIP3    H118465   6.133   6.801   4.784
 6167TIP3    H218466   6.053   6.674   4.799
 6168TIP3   OH218467   2.154   6.566   5.846
 6168TIP3    H118468   2.066   6.550   5.881
 6168TIP3    H218469   2.141   6.584   5.753
 6169TIP3   OH218470   6.578   3.032   4.079
 6169TIP3    H118471   6.633   2.960   4.110
 6169TIP3    H218472   6.641   3.100   4.054
 6170TIP3   OH218473   1.751   2.721   4.035
 6170TIP3    H118474   1.821   2.700   4.097
 6170TIP3    H218475   1.717   2.636   4.007
 6171TIP3   OH218476   3.900   5.187   0.436
 6171TIP3    H118477   3.898   5.226   0.349
 6171TIP3    H218478   3.992   5.165   0.451
 6172TIP3   OH218479   3.446   5.706   2.499
 6172TIP3    H118480   3.463   5.612   2.491
 6172TIP3    H218481   3.351   5.714   2.489
 6173TIP3   OH218482   3.837   2.340   2.216
 6173TIP3    H118483   3.772   2.409   2.230
 6173TIP3    H218484   3.882   2.366   2.135
 6174TIP3   OH218485   0.917   1.704   5.159
 6174TIP3    H118486   0.897   1.796   5.139
 6174TIP3    H218487   0.881   1.690   5.247
 6175TIP3   OH218488   0.999   3.146   2.090
 6175TIP3    H118489   1.026   3.236   2.108
 6175TIP3    H218490   0.908   3.153   2.061
 6176TIP3   OH218491   1.161   3.816   1.090
 6176TIP3    H118492   1.073   3.811   1.054
 6176TIP3    H218493   1.190   3.726   1.097
 6177TIP3   OH218494   6.334   3.483   1.471
 6177TIP3    H118495   6.271   3.419   1.439
 6177TIP3    H218496   6.419   3.449   1.443
 6178TIP3   OH218497   7.112   1.739   0.353
 6178TIP3    H118498   7.130   1.785   0.435
 6178TIP3    H218499   7.192   1.690   0.336
 6179TIP3   OH218500   5.991   0.159   2.529
 6179TIP3    H118501   6.048   0.127   2.460
 6179TIP3    H218502   5.948   0.236   2.491
 6180TIP3   OH218503   3.248   0.384   2.672
 6180TIP3    H118504   3.201   0.455   2.716
 6180TIP3    H218505   3.332   0.378   2.718
 6181TIP3   OH218506   0.200   4.009   3.381
 6181TIP3    H118507   0.179   4.052   3.298
 6181TIP3    H218508   0.291   4.032   3.398
 6182TIP3   OH218509   6.062   6.648   3.968
 6182TIP3    H118510   6.007   6.608   4.036
 6182TIP3    H218511   6.038   6.741   3.969
 6183TIP3   OH218512   2.099   1.505   5.318
 6183TIP3    H118513   2.106   1.414   5.347
 6183TIP3    H218514   2.055   1.500   5.233
 6184TIP3   OH218515   0.978   6.477   2.971
 6184TIP3    H118516   0.937   6.454   3.054
 6184TIP3    H218517   0.914   6.452   2.905
 6185TIP3   OH218518   0.540   0.288   2.321
 6185TIP3    H118519   0.590   0.256   2.246
 6185TIP3    H218520   0.514   0.209   2.368
 6186TIP3   OH218521   4.809   0.875   1.760
 6186TIP3    H118522   4.835   0.932   1.832
 6186TIP3    H218523   4.852   0.912   1.683
 6187TIP3   OH218524   1.461   5.868   2.118
 6187TIP3    H118525   1.553   5.843   2.111
 6187TIP3    H218526   1.422   5.800   2.173
 6188TIP3   OH218527   5.835   2.419   3.038
 6188TIP3    H118528   5.762   2.457   2.989
 6188TIP3    H218529   5.800   2.338   3.074
 6189TIP3   OH218530   5.814   0.508   0.711
 6189TIP3    H118531   5.762   0.535   0.787
 6189TIP3    H218532   5.774   0.425   0.684
 6190TIP3   OH218533   7.082   3.195   2.960
 6190TIP3    H118534   7.132   3.132   3.012
 6190TIP3    H218535   7.117   3.185   2.872
 6191TIP3   OH218536   1.581   0.371   2.896
 6191TIP3    H118537   1.546   0.418   2.820
 6191TIP3    H218538   1.572   0.434   2.968
 6192TIP3   OH218539   5.337   3.940   1.323
 6192TIP3    H118540   5.319   3.892   1.242
 6192TIP3    H218541   5.360   4.028   1.294
 6193TIP3   OH218542   1.187   4.695   4.735
 6193TIP3    H118543   1.154   4.662   4.818
 6193TIP3    H218544   1.142   4.643   4.669
 6194TIP3   OH218545   1.240   1.719   5.306
 6194TIP3    H118546   1.292   1.750   5.232
 6194TIP3    H218547   1.158   1.691   5.267
 6195TIP3   OH218548   6.810   4.898   3.948
 6195TIP3    H118549   6.740   4.905   4.013
 6195TIP3    H218550   6.891   4.898   3.999
 6196TIP3   OH218551   3.711   1.432   4.916
 6196TIP3    H118552   3.647   1.503   4.921
 6196TIP3    H218553   3.780   1.457   4.978
 6197TIP3   OH218554   1.543   5.372   2.317
 6197TIP3    H118555   1.580   5.287   2.292
 6197TIP3    H218556   1.496   5.355   2.399
 6198TIP3   OH218557   0.027   4.906   3.868
 6198TIP3    H118558   0.072   4.966   3.808
 6198TIP3    H218559   0.096   4.853   3.907
 6199TIP3   OH218560   3.622   6.430   5.596
 6199TIP3    H118561   3.559   6.477   5.541
 6199TIP3    H218562   3.638   6.490   5.669
 6200TIP3   OH218563   0.598   6.639   4.362
 6200TIP3    H118564   0.522   6.651   4.419
 6200TIP3    H218565   0.589   6.549   4.329
 6201TIP3   OH218566   6.491   1.122   1.109
 6201TIP3    H118567   6.517   1.145   1.198
 6201TIP3    H218568   6.515   1.030   1.100
 6202TIP3   OH218569   1.754   0.389   4.603
 6202TIP3    H118570   1.783   0.316   4.549
 6202TIP3    H218571   1.663   0.369   4.624
 6203TIP3   OH218572   5.902   3.637   3.009
 6203TIP3    H118573   5.985   3.599   3.038
 6203TIP3    H218574   5.882   3.705   3.074
 6204TIP3   OH218575   3.835   6.394   1.116
 6204TIP3    H118576   3.900   6.432   1.058
 6204TIP3    H218577   3.793   6.325   1.064
 6205TIP3   OH218578   3.798   1.241   4.468
 6205TIP3    H118579   3.891   1.218   4.471
 6205TIP3    H218580   3.794   1.330   4.502
 6206TIP3   OH218581   2.530   0.424   0.586
 6206TIP3    H118582   2.537   0.390   0.497
 6206TIP3    H218583   2.619   0.424   0.619
 6207TIP3   OH218584   5.871   5.275   4.560
 6207TIP3    H118585   5.779   5.290   4.583
 6207TIP3    H218586   5.884   5.181   4.573
 6208TIP3   OH218587   4.838   4.455   0.936
 6208TIP3    H118588   4.833   4.387   1.003
 6208TIP3    H218589   4.752   4.454   0.895
 6209TIP3   OH218590   3.701   3.072   2.242
 6209TIP3    H118591   3.656   3.010   2.300
 6209TIP3    H218592   3.786   3.031   2.225
 6210TIP3   OH218593   0.472   2.071   4.736
 6210TIP3    H118594   0.517   1.989   4.716
 6210TIP3    H218595   0.495   2.129   4.663
 6211TIP3   OH218596   2.625   2.889   5.544
 6211TIP3    H118597   2.648   2.926   5.630
 6211TIP3    H218598   2.531   2.870   5.551
 6212TIP3   OH218599   5.300   2.842   5.586
 6212TIP3    H118600   5.309   2.795   5.669
 6212TIP3    H218601   5.374   2.904   5.586
 6213TIP3   OH218602   1.370   3.342   5.142
 6213TIP3    H118603   1.281   3.311   5.121
 6213TIP3    H218604   1.371   3.433   5.111
 6214TIP3   OH218605   1.783   3.257   1.036
 6214TIP3    H118606   1.845   3.245   1.108
 6214TIP3    H218607   1.824   3.215   0.960
 6215TIP3   OH218608   1.330   5.434   0.826
 6215TIP3    H118609   1.416   5.474   0.836
 6215TIP3    H218610   1.285   5.453   0.908
 6216TIP3   OH218611   6.518   2.232   1.968
 6216TIP3    H118612   6.446   2.247   2.029
 6216TIP3    H218613   6.476   2.193   1.891
 6217TIP3   OH218614   1.063   4.129   0.924
 6217TIP3    H118615   1.138   4.136   0.983
 6217TIP3    H218616   1.101   4.103   0.840
 6218TIP3   OH218617   2.012   3.081   2.285
 6218TIP3    H118618   1.951   3.011   2.264
 6218TIP3    H218619   1.975   3.124   2.362
 6219TIP3   OH218620   7.010   5.145   2.704
 6219TIP3    H118621   6.975   5.059   2.680
 6219TIP3    H218622   7.082   5.126   2.764
 6220TIP3   OH218623   6.837   4.262   0.617
 6220TIP3    H118624   6.803   4.351   0.626
 6220TIP3    H218625   6.932   4.271   0.629
 6221TIP3   OH218626   6.359   0.919   5.375
 6221TIP3    H118627   6.454   0.918   5.366
 6221TIP3    H218628   6.327   0.941   5.288
 6222TIP3   OH218629   4.964   4.918   2.448
 6222TIP3    H118630   4.906   4.933   2.522
 6222TIP3    H218631   4.991   5.006   2.420
 6223TIP3   OH218632   2.898   6.198   0.204
 6223TIP3    H118633   2.926   6.187   0.113
 6223TIP3    H218634   2.803   6.200   0.200
 6224TIP3   OH218635   1.120   1.941   5.817
 6224TIP3    H118636   1.058   1.869   5.829
 6224TIP3    H218637   1.204   1.898   5.799
 6225TIP3   OH218638   3.493   0.942   4.002
 6225TIP3    H118639   3.474   1.034   4.019
 6225TIP3    H218640   3.501   0.937   3.906
 6226TIP3   OH218641   6.679   6.239   1.508
 6226TIP3    H118642   6.715   6.280   1.587
 6226TIP3    H218643   6.589   6.272   1.504
 6227TIP3   OH218644   4.369   2.864   1.646
 6227TIP3    H118645   4.323   2.788   1.609
 6227TIP3    H218646   4.341   2.937   1.591
 6228TIP3   OH218647   4.049   1.977   2.649
 6228TIP3    H118648   4.112   1.925   2.600
 6228TIP3    H218649   4.091   1.991   2.734
 6229TIP3   OH218650   3.741   6.106   4.489
 6229TIP3    H118651   3.742   6.197   4.516
 6229TIP3    H218652   3.654   6.074   4.512
 6230TIP3   OH218653   6.459   2.407   1.068
 6230TIP3    H118654   6.385   2.457   1.034
 6230TIP3    H218655   6.534   2.465   1.056
 6231TIP3   OH218656   4.065   3.229   1.270
 6231TIP3    H118657   4.034   3.218   1.180
 6231TIP3    H218658   4.014   3.165   1.321
 6232TIP3   OH218659   3.712   3.415   1.914
 6232TIP3    H118660   3.684   3.327   1.891
 6232TIP3    H218661   3.805   3.406   1.938
 6233TIP3   OH218662   3.324   2.511   5.600
 6233TIP3    H118663   3.335   2.450   5.527
 6233TIP3    H218664   3.295   2.592   5.559
 6234TIP3   OH218665   5.703   3.977   2.587
 6234TIP3    H118666   5.615   3.944   2.567
 6234TIP3    H218667   5.730   3.928   2.665
 6235TIP3   OH218668   4.586   4.483   2.580
 6235TIP3    H118669   4.570   4.570   2.545
 6235TIP3    H218670   4.637   4.438   2.513
 6236TIP3   OH218671   5.039   3.428   3.709
 6236TIP3    H118672   5.010   3.483   3.782
 6236TIP3    H218673   5.099   3.484   3.660
 6237TIP3   OH218674   0.404   4.047   3.690
 6237TIP3    H118675   0.321   4.002   3.671
 6237TIP3    H218676   0.453   3.985   3.744
 6238TIP3   OH218677   2.998   2.670   1.057
 6238TIP3    H118678   3.004   2.719   1.139
 6238TIP3    H218679   3.080   2.622   1.050
 6239TIP3   OH218680   6.036   5.663   5.434
 6239TIP3    H118681   6.022   5.575   5.468
 6239TIP3    H218682   6.118   5.658   5.385
 6240TIP3   OH218683   0.089   1.591   3.397
 6240TIP3    H118684   0.164   1.550   3.354
 6240TIP3    H218685   0.056   1.654   3.333
 6241TIP3   OH218686   6.472   0.472   4.917
 6241TIP3    H118687   6.500   0.508   5.002
 6241TIP3    H218688   6.546   0.490   4.859
 6242TIP3   OH218689   4.680   6.450   2.614
 6242TIP3    H118690   4.699   6.497   2.695
 6242TIP3    H218691   4.626   6.376   2.641
 6243TIP3   OH218692   2.437   5.334   1.427
 6243TIP3    H118693   2.506   5.268   1.424
 6243TIP3    H218694   2.384   5.319   1.349
 6244TIP3   OH218695   6.269   1.449   0.883
 6244TIP3    H118696   6.287   1.426   0.792
 6244TIP3    H218697   6.235   1.369   0.921
 6245TIP3   OH218698   3.323   5.971   4.181
 6245TIP3    H118699   3.395   6.030   4.203
 6245TIP3    H218700   3.251   6.001   4.236
 6246TIP3   OH218701   0.529   3.098   3.394
 6246TIP3    H118702   0.572   3.183   3.401
 6246TIP3    H218703   0.440   3.113   3.426
 6247TIP3   OH218704   3.110   0.714   1.494
 6247TIP3    H118705   3.023   0.674   1.495
 6247TIP3    H218706   3.126   0.734   1.402
 6248TIP3   OH218707   0.526   1.747   5.158
 6248TIP3    H118708   0.521   1.831   5.113
 6248TIP3    H218709   0.569   1.688   5.096
 6249TIP3   OH218710   0.961   5.629   1.378
 6249TIP3    H118711   1.042   5.618   1.428
 6249TIP3    H218712   0.944   5.543   1.340
 6250TIP3   OH218713   3.572   4.916   4.245
 6250TIP3    H118714   3.543   5.008   4.243
 6250TIP3    H218715   3.559   4.889   4.336
 6251TIP3   OH218716   4.435   5.190   3.069
 6251TIP3    H118717   4.364   5.213   3.010
 6251TIP3    H218718   4.401   5.209   3.157
 6252TIP3   OH218719   0.392   5.781   0.248
 6252TIP3    H118720   0.426   5.758   0.334
 6252TIP3    H218721   0.470   5.795   0.195
 6253TIP3   OH218722   2.473   4.628  -0.047
 6253TIP3    H118723   2.378   4.642  -0.047
 6253TIP3    H218724   2.487   4.555   0.012
 6254TIP3   OH218725   7.121   5.994   0.525
 6254TIP3    H118726   7.088   6.030   0.443
 6254TIP3    H218727   7.046   5.950   0.564
 6255TIP3   OH218728   2.970   2.649   0.090
 6255TIP3    H118729   2.928   2.616   0.169
 6255TIP3    H218730   2.971   2.574   0.030
 6256TIP3   OH218731   2.241   0.702   2.992
 6256TIP3    H118732   2.273   0.638   3.056
 6256TIP3    H218733   2.173   0.655   2.944
 6257TIP3   OH218734   4.560   3.322   2.298
 6257TIP3    H118735   4.581   3.322   2.392
 6257TIP3    H218736   4.554   3.415   2.275
 6258TIP3   OH218737   3.452   0.566   4.284
 6258TIP3    H118738   3.393   0.624   4.236
 6258TIP3    H218739   3.455   0.486   4.232
 6259TIP3   OH218740   2.831   4.768   4.068
 6259TIP3    H118741   2.872   4.833   4.010
 6259TIP3    H218742   2.781   4.712   4.009
 6260TIP3   OH218743   5.431   4.451   4.585
 6260TIP3    H118744   5.352   4.475   4.536
 6260TIP3    H218745   5.445   4.524   4.645
 6261TIP3   OH218746   2.844   0.647   4.670
 6261TIP3    H118747   2.919   0.698   4.700
 6261TIP3    H218748   2.785   0.712   4.631
 6262TIP3   OH218749   0.195   6.317   1.941
 6262TIP3    H118750   0.236   6.242   1.899
 6262TIP3    H218751   0.135   6.279   2.006
 6263TIP3   OH218752   4.478   4.679   3.629
 6263TIP3    H118753   4.536   4.670   3.554
 6263TIP3    H218754   4.529   4.647   3.703
 6264TIP3   OH218755   3.287   3.986   1.700
 6264TIP3    H118756   3.327   3.903   1.726
 6264TIP3    H218757   3.339   4.016   1.625
 6265TIP3   OH218758   0.239   0.497   3.625
 6265TIP3    H118759   0.323   0.496   3.671
 6265TIP3    H218760   0.242   0.421   3.567
 6266TIP3   OH218761   0.644   5.927   3.756
 6266TIP3    H118762   0.690   5.850   3.722
 6266TIP3    H218763   0.587   5.892   3.825
 6267TIP3   OH218764   1.160   2.030   1.176
 6267TIP3    H118765   1.238   2.069   1.139
 6267TIP3    H218766   1.098   2.024   1.103
 6268TIP3   OH218767   0.424   5.767   4.609
 6268TIP3    H118768   0.380   5.696   4.562
 6268TIP3    H218769   0.484   5.723   4.668
 6269TIP3   OH218770   5.435   0.603   5.269
 6269TIP3    H118771   5.473   0.678   5.313
 6269TIP3    H218772   5.341   0.613   5.281
 6270TIP3   OH218773   3.602   4.673   5.040
 6270TIP3    H118774   3.595   4.751   5.095
 6270TIP3    H218775   3.691   4.641   5.055
 6271TIP3   OH218776   4.600   1.488   4.310
 6271TIP3    H118777   4.648   1.563   4.344
 6271TIP3    H218778   4.609   1.495   4.215
 6272TIP3   OH218779   7.134   4.646   2.564
 6272TIP3    H118780   7.203   4.592   2.603
 6272TIP3    H218781   7.090   4.686   2.638
 6273TIP3   OH218782   3.414   1.398   0.725
 6273TIP3    H118783   3.368   1.443   0.795
 6273TIP3    H218784   3.446   1.318   0.766
 6274TIP3   OH218785   0.573   3.018   4.004
 6274TIP3    H118786   0.496   3.070   4.027
 6274TIP3    H218787   0.644   3.082   3.994
 6275TIP3   OH218788   3.815   1.164   2.859
 6275TIP3    H118789   3.862   1.142   2.778
 6275TIP3    H218790   3.723   1.169   2.834
 6276TIP3   OH218791   4.615   2.772   0.253
 6276TIP3    H118792   4.560   2.740   0.182
 6276TIP3    H218793   4.588   2.722   0.330
 6277TIP3   OH218794   6.751   2.841   0.286
 6277TIP3    H118795   6.705   2.767   0.248
 6277TIP3    H218796   6.815   2.866   0.219
 6278TIP3   OH218797   1.536   4.228   3.340
 6278TIP3    H118798   1.477   4.188   3.404
 6278TIP3    H218799   1.621   4.188   3.356
 6279TIP3   OH218800   1.994   3.202   5.365
 6279TIP3    H118801   2.074   3.217   5.315
 6279TIP3    H218802   2.025   3.175   5.452
 6280TIP3   OH218803   2.311   6.466   2.008
 6280TIP3    H118804   2.230   6.425   2.038
 6280TIP3    H218805   2.324   6.540   2.068
 6281TIP3   OH218806   1.654   3.330   1.413
 6281TIP3    H118807   1.739   3.369   1.393
 6281TIP3    H218808   1.651   3.250   1.361
 6282TIP3   OH218809   4.131   1.811   1.392
 6282TIP3    H118810   4.134   1.905   1.372
 6282TIP3    H218811   4.193   1.801   1.465
 6283TIP3   OH218812   2.978   5.854   1.090
 6283TIP3    H118813   2.958   5.891   1.004
 6283TIP3    H218814   3.029   5.776   1.071
 6284TIP3   OH218815   5.739   2.241   0.583
 6284TIP3    H118816   5.770   2.330   0.598
 6284TIP3    H218817   5.646   2.244   0.602
 6285TIP3   OH218818   1.066   6.172   0.358
 6285TIP3    H118819   1.155   6.149   0.384
 6285TIP3    H218820   1.068   6.268   0.351
 6286TIP3   OH218821   3.047   6.603   4.025
 6286TIP3    H118822   3.004   6.551   4.094
 6286TIP3    H218823   2.975   6.634   3.970
 6287TIP3   OH218824   2.240   4.910   4.687
 6287TIP3    H118825   2.259   4.920   4.593
 6287TIP3    H218826   2.150   4.879   4.690
 6288TIP3   OH218827   4.096   5.881   4.104
 6288TIP3    H118828   4.054   5.921   4.179
 6288TIP3    H218829   4.122   5.794   4.134
 6289TIP3   OH218830   4.306   3.255   5.810
 6289TIP3    H118831   4.360   3.185   5.773
 6289TIP3    H218832   4.342   3.270   5.898
 6290TIP3   OH218833   3.633   3.151   0.467
 6290TIP3    H118834   3.591   3.188   0.545
 6290TIP3    H218835   3.571   3.167   0.396
 6291TIP3   OH218836   6.254   0.191   4.447
 6291TIP3    H118837   6.327   0.131   4.432
 6291TIP3    H218838   6.228   0.220   4.360
 6292TIP3   OH218839   5.453   3.546   1.224
 6292TIP3    H118840   5.370   3.514   1.188
 6292TIP3    H218841   5.438   3.552   1.318
 6293TIP3   OH218842   3.335   5.329   1.942
 6293TIP3    H118843   3.305   5.362   1.857
 6293TIP3    H218844   3.360   5.408   1.991
 6294TIP3   OH218845   5.429   2.465   2.675
 6294TIP3    H118846   5.369   2.497   2.743
 6294TIP3    H218847   5.377   2.403   2.624
 6295TIP3   OH218848   4.501   3.737   2.630
 6295TIP3    H118849   4.562   3.676   2.672
 6295TIP3    H218850   4.526   3.823   2.664
 6296TIP3   OH218851   5.723   1.165   1.515
 6296TIP3    H118852   5.688   1.152   1.427
 6296TIP3    H218853   5.763   1.252   1.513
 6297TIP3   OH218854   3.585   1.698   3.746
 6297TIP3    H118855   3.507   1.719   3.695
 6297TIP3    H218856   3.651   1.672   3.681
 6298TIP3   OH218857   5.918   3.326   1.668
 6298TIP3    H118858   5.936   3.377   1.747
 6298TIP3    H218859   5.934   3.387   1.595
 6299TIP3   OH218860   5.362   0.370   5.519
 6299TIP3    H118861   5.274   0.401   5.500
 6299TIP3    H218862   5.397   0.343   5.434
 6300TIP3   OH218863   6.330   2.056   4.095
 6300TIP3    H118864   6.357   2.061   4.186
 6300TIP3    H218865   6.278   2.135   4.080
 6301TIP3   OH218866   2.540   5.548   1.163
 6301TIP3    H118867   2.465   5.558   1.105
 6301TIP3    H218868   2.551   5.635   1.202
 6302TIP3   OH218869   3.561   5.683   4.649
 6302TIP3    H118870   3.466   5.688   4.660
 6302TIP3    H218871   3.596   5.732   4.723
 6303TIP3   OH218872   6.162   2.635   5.343
 6303TIP3    H118873   6.255   2.646   5.364
 6303TIP3    H218874   6.161   2.568   5.274
 6304TIP3   OH218875   5.005   1.774   3.784
 6304TIP3    H118876   5.010   1.842   3.716
 6304TIP3    H218877   5.074   1.798   3.846
 6305TIP3   OH218878   0.604   5.073   2.854
 6305TIP3    H118879   0.553   5.006   2.809
 6305TIP3    H218880   0.541   5.115   2.913
 6306TIP3   OH218881   6.896   1.736   3.993
 6306TIP3    H118882   6.839   1.788   4.050
 6306TIP3    H218883   6.886   1.775   3.906
 6307TIP3   OH218884   2.330   0.649   5.472
 6307TIP3    H118885   2.274   0.618   5.543
 6307TIP3    H218886   2.409   0.680   5.515
 6308TIP3   OH218887   2.193   6.301   5.909
 6308TIP3    H118888   2.194   6.395   5.888
 6308TIP3    H218889   2.117   6.267   5.861
 6309TIP3   OH218890   0.634   0.548   2.338
 6309TIP3    H118891   0.587   0.597   2.405
 6309TIP3    H218892   0.630   0.457   2.368
 6310TIP3   OH218893   1.399   0.637   0.238
 6310TIP3    H118894   1.375   0.645   0.331
 6310TIP3    H218895   1.331   0.580   0.201
 6311TIP3   OH218896   5.412   5.782   5.884
 6311TIP3    H118897   5.406   5.796   5.789
 6311TIP3    H218898   5.424   5.687   5.893
 6312TIP3   OH218899   5.656   0.469   1.187
 6312TIP3    H118900   5.720   0.400   1.205
 6312TIP3    H218901   5.606   0.477   1.268
 6313TIP3   OH218902   1.330   0.255   5.350
 6313TIP3    H118903   1.417   0.237   5.314
 6313TIP3    H218904   1.318   0.349   5.339
 6314TIP3   OH218905   1.173   6.049   2.415
 6314TIP3    H118906   1.105   6.051   2.482
 6314TIP3    H218907   1.161   5.964   2.372
 6315TIP3   OH218908   1.481   6.733   1.530
 6315TIP3    H118909   1.538   6.725   1.453
 6315TIP3    H218910   1.463   6.643   1.555
 6316TIP3   OH218911   3.729   2.884   1.899
 6316TIP3    H118912   3.788   2.817   1.934
 6316TIP3    H218913   3.646   2.870   1.944
 6317TIP3   OH218914   2.795   2.385   3.050
 6317TIP3    H118915   2.859   2.376   3.120
 6317TIP3    H218916   2.730   2.316   3.068
 6318TIP3   OH218917   3.014   4.949   2.391
 6318TIP3    H118918   3.090   4.921   2.442
 6318TIP3    H218919   3.029   5.042   2.373
 6319TIP3   OH218920   0.263   5.023   4.347
 6319TIP3    H118921   0.244   4.974   4.427
 6319TIP3    H218922   0.186   5.079   4.336
 6320TIP3   OH218923   3.454   0.888   5.603
 6320TIP3    H118924   3.388   0.900   5.535
 6320TIP3    H218925   3.511   0.819   5.569
 6321TIP3   OH218926   5.141   5.940   2.881
 6321TIP3    H118927   5.196   5.870   2.917
 6321TIP3    H218928   5.080   5.961   2.952
 6322TIP3   OH218929   3.508   2.150   4.162
 6322TIP3    H118930   3.446   2.094   4.115
 6322TIP3    H218931   3.569   2.089   4.203
 6323TIP3   OH218932   2.666   5.028   5.882
 6323TIP3    H118933   2.709   4.994   5.803
 6323TIP3    H218934   2.735   5.031   5.948
 6324TIP3   OH218935   0.724   4.384   1.930
 6324TIP3    H118936   0.710   4.476   1.907
 6324TIP3    H218937   0.817   4.369   1.915
 6325TIP3   OH218938   5.129   5.801   1.447
 6325TIP3    H118939   5.109   5.864   1.517
 6325TIP3    H218940   5.044   5.781   1.409
 6326TIP3   OH218941   2.386   5.490   2.497
 6326TIP3    H118942   2.409   5.428   2.428
 6326TIP3    H218943   2.343   5.436   2.564
 6327TIP3   OH218944   7.078   4.227   3.989
 6327TIP3    H118945   7.033   4.230   4.073
 6327TIP3    H218946   7.008   4.231   3.924
 6328TIP3   OH218947   1.729   5.492   1.613
 6328TIP3    H118948   1.755   5.491   1.521
 6328TIP3    H218949   1.803   5.451   1.659
 6329TIP3   OH218950   1.805   3.862   1.812
 6329TIP3    H118951   1.743   3.852   1.885
 6329TIP3    H218952   1.814   3.774   1.776
 6330TIP3   OH218953   4.306   1.738   1.603
 6330TIP3    H118954   4.313   1.763   1.695
 6330TIP3    H218955   4.272   1.649   1.604
 6331TIP3   OH218956   3.083   0.736   1.218
 6331TIP3    H118957   3.011   0.786   1.180
 6331TIP3    H218958   3.109   0.675   1.149
 6332TIP3   OH218959   0.535   2.578   5.460
 6332TIP3    H118960   0.501   2.525   5.532
 6332TIP3    H218961   0.462   2.585   5.398
 6333TIP3   OH218962   5.524   6.658   5.185
 6333TIP3    H118963   5.468   6.709   5.127
 6333TIP3    H218964   5.518   6.568   5.151
 6334TIP3   OH218965   0.339   2.767   0.499
 6334TIP3    H118966   0.312   2.857   0.515
 6334TIP3    H218967   0.323   2.753   0.405
 6335TIP3   OH218968   6.494   1.206   0.845
 6335TIP3    H118969   6.480   1.187   0.937
 6335TIP3    H218970   6.480   1.123   0.800
 6336TIP3   OH218971   5.549   2.607   2.049
 6336TIP3    H118972   5.560   2.701   2.063
 6336TIP3    H218973   5.626   2.568   2.091
 6337TIP3   OH218974   0.112   4.033   4.489
 6337TIP3    H118975   0.146   4.107   4.439
 6337TIP3    H218976   0.189   3.986   4.520
 6338TIP3   OH218977   6.826   6.675   1.122
 6338TIP3    H118978   6.767   6.600   1.130
 6338TIP3    H218979   6.815   6.704   1.031
 6339TIP3   OH218980   2.533   6.086   5.486
 6339TIP3    H118981   2.541   6.073   5.581
 6339TIP3    H218982   2.442   6.113   5.474
 6340TIP3   OH218983   6.974   3.694   5.209
 6340TIP3    H118984   6.973   3.760   5.140
 6340TIP3    H218985   7.059   3.705   5.252
 6341TIP3   OH218986   4.905   5.981   0.001
 6341TIP3    H118987   4.974   5.941   0.054
 6341TIP3    H218988   4.945   5.993  -0.086
 6342TIP3   OH218989   7.061   4.753   2.081
 6342TIP3    H118990   7.087   4.683   2.140
 6342TIP3    H218991   7.095   4.833   2.121
 6343TIP3   OH218992   6.323   0.148   3.476
 6343TIP3    H118993   6.374   0.226   3.458
 6343TIP3    H218994   6.260   0.175   3.543
 6344TIP3   OH218995   0.185   6.361   5.452
 6344TIP3    H118996   0.212   6.328   5.366
 6344TIP3    H218997   0.160   6.451   5.436
 6345TIP3   OH218998   1.406   3.837   2.319
 6345TIP3    H118999   1.479   3.898   2.315
 6345TIP3    H219000   1.446   3.752   2.339
 6346TIP3   OH219001   0.536   1.546   3.236
 6346TIP3    H119002   0.544   1.532   3.331
 6346TIP3    H219003   0.445   1.524   3.217
 6347TIP3   OH219004   6.337   1.372   0.114
 6347TIP3    H119005   6.272   1.418   0.167
 6347TIP3    H219006   6.338   1.420   0.031
 6348TIP3   OH219007   6.122   3.393   4.844
 6348TIP3    H119008   6.072   3.459   4.892
 6348TIP3    H219009   6.190   3.365   4.906
 6349TIP3   OH219010   6.876   1.988   0.783
 6349TIP3    H119011   6.886   1.920   0.849
 6349TIP3    H219012   6.802   2.040   0.813
 6350TIP3   OH219013   3.946   3.168   1.717
 6350TIP3    H119014   4.015   3.235   1.714
 6350TIP3    H219015   3.940   3.144   1.809
 6351TIP3   OH219016   1.687   3.508   1.141
 6351TIP3    H119017   1.679   3.416   1.115
 6351TIP3    H219018   1.757   3.509   1.206
 6352TIP3   OH219019   4.624   5.471   4.900
 6352TIP3    H119020   4.638   5.451   4.993
 6352TIP3    H219021   4.534   5.505   4.896
 6353TIP3   OH219022   0.985   0.958   5.855
 6353TIP3    H119023   0.897   0.986   5.880
 6353TIP3    H219024   0.972   0.901   5.780
 6354TIP3   OH219025   2.208   2.322   3.916
 6354TIP3    H119026   2.117   2.346   3.935
 6354TIP3    H219027   2.206   2.293   3.825
 6355TIP3   OH219028   3.707   4.779   2.626
 6355TIP3    H119029   3.801   4.787   2.638
 6355TIP3    H219030   3.686   4.689   2.652
 6356TIP3   OH219031   5.756   1.375   0.429
 6356TIP3    H119032   5.672   1.410   0.396
 6356TIP3    H219033   5.739   1.282   0.441
 6357TIP3   OH219034   0.404   5.857   3.559
 6357TIP3    H119035   0.427   5.946   3.534
 6357TIP3    H219036   0.386   5.862   3.653
 6358TIP3   OH219037   3.528   6.108   1.036
 6358TIP3    H119038   3.450   6.052   1.033
 6358TIP3    H219039   3.532   6.138   1.127
 6359TIP3   OH219040   4.669   6.632   3.241
 6359TIP3    H119041   4.645   6.684   3.164
 6359TIP3    H219042   4.645   6.542   3.217
 6360TIP3   OH219043   4.434   0.051   4.438
 6360TIP3    H119044   4.381   0.107   4.494
 6360TIP3    H219045   4.374  -0.019   4.410
 6361TIP3   OH219046   5.840   0.286   1.275
 6361TIP3    H119047   5.892   0.207   1.261
 6361TIP3    H219048   5.902   0.358   1.263
 6362TIP3   OH219049   2.708   6.056   4.850
 6362TIP3    H119050   2.685   6.135   4.899
 6362TIP3    H219051   2.778   6.016   4.902
 6363TIP3   OH219052   2.417   6.477   2.336
 6363TIP3    H119053   2.393   6.424   2.412
 6363TIP3    H219054   2.463   6.416   2.278
 6364TIP3   OH219055   6.420   3.068   3.304
 6364TIP3    H119056   6.443   3.139   3.245
 6364TIP3    H219057   6.462   3.092   3.387
 6365TIP3   OH219058   6.867   0.799   0.129
 6365TIP3    H119059   6.894   0.743   0.057
 6365TIP3    H219060   6.852   0.739   0.202
 6366TIP3   OH219061   3.336   6.184   5.406
 6366TIP3    H119062   3.370   6.112   5.354
 6366TIP3    H219063   3.327   6.148   5.494
 6367TIP3   OH219064   6.736   3.671   0.429
 6367TIP3    H119065   6.750   3.765   0.417
 6367TIP3    H219066   6.816   3.641   0.472
 6368TIP3   OH219067   6.792   5.911   4.383
 6368TIP3    H119068   6.772   5.983   4.323
 6368TIP3    H219069   6.797   5.953   4.469
 6369TIP3   OH219070   3.664   5.605   2.290
 6369TIP3    H119071   3.638   5.678   2.346
 6369TIP3    H219072   3.631   5.528   2.335
 6370TIP3   OH219073   2.742   6.164   3.405
 6370TIP3    H119074   2.663   6.157   3.351
 6370TIP3    H219075   2.724   6.237   3.465
 6371TIP3   OH219076   5.076   4.277   3.496
 6371TIP3    H119077   5.130   4.202   3.471
 6371TIP3    H219078   4.986   4.251   3.474
 6372TIP3   OH219079   5.920   4.183   4.549
 6372TIP3    H119080   5.952   4.151   4.634
 6372TIP3    H219081   5.841   4.131   4.533
 6373TIP3   OH219082   2.573   4.744   3.533
 6373TIP3    H119083   2.485   4.765   3.566
 6373TIP3    H219084   2.595   4.818   3.477
 6374TIP3   OH219085   4.550   1.019   3.359
 6374TIP3    H119086   4.587   0.931   3.365
 6374TIP3    H219087   4.622   1.077   3.381
 6375TIP3   OH219088   6.136   4.399   1.650
 6375TIP3    H119089   6.225   4.371   1.632
 6375TIP3    H219090   6.087   4.318   1.662
 6376TIP3   OH219091   7.240   5.718   4.848
 6376TIP3    H119092   7.278   5.636   4.880
 6376TIP3    H219093   7.146   5.709   4.865
 6377TIP3   OH219094   7.094   4.039   5.161
 6377TIP3    H119095   7.024   4.058   5.099
 6377TIP3    H219096   7.055   4.057   5.247
 6378TIP3   OH219097   2.522   6.811   5.158
 6378TIP3    H119098   2.561   6.761   5.230
 6378TIP3    H219099   2.549   6.901   5.174
 6379TIP3   OH219100   4.727   3.365   4.197
 6379TIP3    H119101   4.645   3.318   4.180
 6379TIP3    H219102   4.763   3.322   4.275
 6380TIP3   OH219103   4.690   3.688   2.396
 6380TIP3    H119104   4.712   3.670   2.487
 6380TIP3    H219105   4.746   3.629   2.345
 6381TIP3   OH219106   2.832   2.780   3.938
 6381TIP3    H119107   2.742   2.784   3.972
 6381TIP3    H219108   2.852   2.687   3.935
 6382TIP3   OH219109   4.749   0.831   3.253
 6382TIP3    H119110   4.822   0.887   3.226
 6382TIP3    H219111   4.782   0.782   3.328
 6383TIP3   OH219112   0.888   2.587   1.347
 6383TIP3    H119113   0.813   2.616   1.399
 6383TIP3    H219114   0.859   2.598   1.256
 6384TIP3   OH219115   2.124   0.763   4.652
 6384TIP3    H119116   2.083   0.679   4.632
 6384TIP3    H219117   2.201   0.741   4.703
 6385TIP3   OH219118   4.987   2.065   5.620
 6385TIP3    H119119   4.997   1.970   5.630
 6385TIP3    H219120   5.077   2.099   5.617
 6386TIP3   OH219121   3.150   3.848   2.270
 6386TIP3    H119122   3.169   3.803   2.187
 6386TIP3    H219123   3.168   3.940   2.251
 6387TIP3   OH219124   3.357   6.320   5.760
 6387TIP3    H119125   3.330   6.295   5.849
 6387TIP3    H219126   3.362   6.416   5.763
 6388TIP3   OH219127   7.184   6.134   0.252
 6388TIP3    H119128   7.185   6.187   0.172
 6388TIP3    H219129   7.260   6.162   0.301
 6389TIP3   OH219130   3.508   5.170   1.741
 6389TIP3    H119131   3.569   5.210   1.802
 6389TIP3    H219132   3.490   5.238   1.676
 6390TIP3   OH219133   5.893   3.979   0.337
 6390TIP3    H119134   5.831   3.976   0.265
 6390TIP3    H219135   5.872   4.059   0.384
 6391TIP3   OH219136   1.377   6.649   1.121
 6391TIP3    H119137   1.471   6.662   1.107
 6391TIP3    H219138   1.341   6.738   1.120
 6392TIP3   OH219139   2.974   0.290   3.156
 6392TIP3    H119140   2.989   0.268   3.248
 6392TIP3    H219141   2.999   0.211   3.107
 6393TIP3   OH219142   3.579   5.680   1.150
 6393TIP3    H119143   3.664   5.645   1.175
 6393TIP3    H219144   3.531   5.686   1.233
 6394TIP3   OH219145   0.300   3.575   0.372
 6394TIP3    H119146   0.236   3.547   0.437
 6394TIP3    H219147   0.249   3.618   0.304
 6395TIP3   OH219148   2.678   0.702   0.136
 6395TIP3    H119149   2.712   0.677   0.222
 6395TIP3    H219150   2.636   0.787   0.151
 6396TIP3   OH219151   0.447   6.331   5.015
 6396TIP3    H119152   0.490   6.415   5.029
 6396TIP3    H219153   0.415   6.335   4.925
 6397TIP3   OH219154   6.466   0.492   2.124
 6397TIP3    H119155   6.428   0.446   2.199
 6397TIP3    H219156   6.475   0.424   2.056
 6398TIP3   OH219157   0.990   4.997   1.182
 6398TIP3    H119158   0.927   5.066   1.202
 6398TIP3    H219159   0.972   4.929   1.247
 6399TIP3   OH219160   1.308   4.639   0.597
 6399TIP3    H119161   1.379   4.641   0.533
 6399TIP3    H219162   1.273   4.728   0.597
 6400TIP3   OH219163   2.446   1.903   3.931
 6400TIP3    H119164   2.500   1.956   3.873
 6400TIP3    H219165   2.360   1.900   3.888
 6401TIP3   OH219166   3.094   6.032   4.286
 6401TIP3    H119167   3.013   5.984   4.301
 6401TIP3    H219168   3.069   6.103   4.227
 6402TIP3   OH219169   1.709   6.108   0.223
 6402TIP3    H119170   1.655   6.187   0.227
 6402TIP3    H219171   1.799   6.141   0.213
 6403TIP3   OH219172   0.426   5.907   4.070
 6403TIP3    H119173   0.513   5.943   4.089
 6403TIP3    H219174   0.368   5.949   4.133
 6404TIP3   OH219175   2.737   4.595   4.284
 6404TIP3    H119176   2.652   4.635   4.303
 6404TIP3    H219177   2.715   4.508   4.250
 6405TIP3   OH219178   1.716   3.537   0.219
 6405TIP3    H119179   1.745   3.565   0.132
 6405TIP3    H219180   1.774   3.464   0.241
 6406TIP3   OH219181   0.382   5.665   4.296
 6406TIP3    H119182   0.436   5.587   4.301
 6406TIP3    H219183   0.292   5.632   4.292
 6407TIP3   OH219184   2.423   2.846   2.571
 6407TIP3    H119185   2.359   2.846   2.500
 6407TIP3    H219186   2.456   2.757   2.574
 6408TIP3   OH219187   0.803   2.449   5.613
 6408TIP3    H119188   0.733   2.398   5.571
 6408TIP3    H219189   0.790   2.433   5.707
 6409TIP3   OH219190   3.273   2.584   3.811
 6409TIP3    H119191   3.293   2.539   3.893
 6409TIP3    H219192   3.348   2.566   3.755
 6410TIP3   OH219193   0.382   4.123   1.570
 6410TIP3    H119194   0.303   4.076   1.545
 6410TIP3    H219195   0.451   4.057   1.568
 6411TIP3   OH219196   4.450   0.080   3.167
 6411TIP3    H119197   4.524   0.034   3.129
 6411TIP3    H219198   4.420   0.140   3.098
 6412TIP3   OH219199   5.127   5.862   0.128
 6412TIP3    H119200   5.213   5.904   0.139
 6412TIP3    H219201   5.142   5.798   0.058
 6413TIP3   OH219202   2.026   5.894   4.276
 6413TIP3    H119203   2.115   5.924   4.259
 6413TIP3    H219204   2.036   5.801   4.298
 6414TIP3   OH219205   5.914   5.857   3.636
 6414TIP3    H119206   5.923   5.762   3.648
 6414TIP3    H219207   5.899   5.891   3.724
 6415TIP3   OH219208   7.014   2.623   0.785
 6415TIP3    H119209   7.021   2.616   0.689
 6415TIP3    H219210   7.084   2.567   0.818
 6416TIP3   OH219211   5.641   0.683   0.598
 6416TIP3    H119212   5.708   0.648   0.657
 6416TIP3    H219213   5.625   0.612   0.536
 6417TIP3   OH219214   3.678   6.057   3.963
 6417TIP3    H119215   3.707   6.119   4.030
 6417TIP3    H219216   3.702   5.971   3.998
 6418TIP3   OH219217   2.501   0.604   3.613
 6418TIP3    H119218   2.569   0.547   3.577
 6418TIP3    H219219   2.485   0.668   3.544
 6419TIP3   OH219220   0.861   4.560   3.239
 6419TIP3    H119221   0.789   4.521   3.288
 6419TIP3    H219222   0.920   4.488   3.220
 6420TIP3   OH219223   0.102   0.495   5.254
 6420TIP3    H119224   0.182   0.469   5.208
 6420TIP3    H219225   0.126   0.576   5.299
 6421TIP3   OH219226   3.987   3.128   4.805
 6421TIP3    H119227   4.056   3.094   4.749
 6421TIP3    H219228   4.031   3.192   4.861
 6422TIP3   OH219229   5.581   3.129   2.740
 6422TIP3    H119230   5.488   3.124   2.722
 6422TIP3    H219231   5.616   3.184   2.670
 6423TIP3   OH219232   4.070   1.515   1.416
 6423TIP3    H119233   4.071   1.457   1.492
 6423TIP3    H219234   4.070   1.603   1.453
 6424TIP3   OH219235   0.078   2.421  -0.022
 6424TIP3    H119236   0.125   2.349   0.021
 6424TIP3    H219237   0.035   2.468   0.050
 6425TIP3   OH219238   5.895   0.207   3.590
 6425TIP3    H119239   5.815   0.203   3.644
 6425TIP3    H219240   5.927   0.296   3.602
 6426TIP3   OH219241   4.879   1.117   4.942
 6426TIP3    H119242   4.922   1.182   4.887
 6426TIP3    H219243   4.859   1.045   4.882
 6427TIP3   OH219244   1.879   1.634   3.268
 6427TIP3    H119245   1.952   1.694   3.255
 6427TIP3    H219246   1.881   1.615   3.362
 6428TIP3   OH219247   6.552   0.951   1.538
 6428TIP3    H119248   6.636   0.909   1.524
 6428TIP3    H219249   6.495   0.881   1.569
 6429TIP3   OH219250   0.513   4.999   4.464
 6429TIP3    H119251   0.453   4.975   4.535
 6429TIP3    H219252   0.455   5.023   4.391
 6430TIP3   OH219253   0.863   5.488   1.033
 6430TIP3    H119254   0.828   5.450   0.953
 6430TIP3    H219255   0.930   5.549   1.003
 6431TIP3   OH219256   1.030   2.449   5.463
 6431TIP3    H119257   0.975   2.381   5.502
 6431TIP3    H219258   0.985   2.531   5.484
 6432TIP3   OH219259   4.889   0.259   3.737
 6432TIP3    H119260   4.937   0.292   3.813
 6432TIP3    H219261   4.895   0.164   3.745
 6433TIP3   OH219262   5.763   1.996   0.714
 6433TIP3    H119263   5.773   2.088   0.692
 6433TIP3    H219264   5.770   1.950   0.631
 6434TIP3   OH219265   0.280   4.505   0.706
 6434TIP3    H119266   0.202   4.501   0.761
 6434TIP3    H219267   0.344   4.450   0.751
 6435TIP3   OH219268   0.036   0.482   4.652
 6435TIP3    H119269   0.012   0.571   4.680
 6435TIP3    H219270   0.060   0.437   4.733
 6436TIP3   OH219271   4.315   4.902   3.733
 6436TIP3    H119272   4.246   4.837   3.742
 6436TIP3    H219273   4.385   4.858   3.685
 6437TIP3   OH219274   5.027   5.142   1.980
 6437TIP3    H119275   5.080   5.205   2.029
 6437TIP3    H219276   5.083   5.065   1.973
 6438TIP3   OH219277   0.466   3.268   1.000
 6438TIP3    H119278   0.503   3.286   1.087
 6438TIP3    H219279   0.479   3.174   0.987
 6439TIP3   OH219280   4.680   3.340   5.439
 6439TIP3    H119281   4.629   3.311   5.364
 6439TIP3    H219282   4.672   3.268   5.502
 6440TIP3   OH219283   6.271   4.377   3.108
 6440TIP3    H119284   6.334   4.449   3.103
 6440TIP3    H219285   6.208   4.404   3.174
 6441TIP3   OH219286   0.823   2.120   4.787
 6441TIP3    H119287   0.895   2.072   4.747
 6441TIP3    H219288   0.843   2.212   4.770
 6442TIP3   OH219289   4.469   1.836   5.392
 6442TIP3    H119290   4.546   1.893   5.397
 6442TIP3    H219291   4.463   1.797   5.479
 6443TIP3   OH219292   5.299   6.005   0.752
 6443TIP3    H119293   5.295   6.095   0.721
 6443TIP3    H219294   5.345   5.958   0.683
 6444TIP3   OH219295   1.843   1.147   3.967
 6444TIP3    H119296   1.933   1.145   4.000
 6444TIP3    H219297   1.851   1.135   3.873
 6445TIP3   OH219298   0.293   5.139   4.683
 6445TIP3    H119299   0.228   5.070   4.672
 6445TIP3    H219300   0.290   5.160   4.776
 6446TIP3   OH219301   4.063   2.525   5.440
 6446TIP3    H119302   3.982   2.530   5.389
 6446TIP3    H219303   4.035   2.492   5.526
 6447TIP3   OH219304   1.308   6.289   2.735
 6447TIP3    H119305   1.372   6.219   2.721
 6447TIP3    H219306   1.226   6.242   2.752
 6448TIP3   OH219307   5.057   3.640   3.394
 6448TIP3    H119308   5.140   3.644   3.442
 6448TIP3    H219309   5.054   3.552   3.357
 6449TIP3   OH219310   3.399   3.398   1.970
 6449TIP3    H119311   3.335   3.447   2.022
 6449TIP3    H219312   3.396   3.439   1.883
 6450TIP3   OH219313   3.669   2.344   3.501
 6450TIP3    H119314   3.673   2.258   3.542
 6450TIP3    H219315   3.755   2.354   3.459
 6451TIP3   OH219316   5.782   0.901   0.367
 6451TIP3    H119317   5.691   0.921   0.388
 6451TIP3    H219318   5.812   0.976   0.316
 6452TIP3   OH219319   0.246   0.470   5.555
 6452TIP3    H119320   0.292   0.522   5.490
 6452TIP3    H219321   0.174   0.429   5.507
 6453TIP3   OH219322   4.651   3.370   0.058
 6453TIP3    H119323   4.681   3.382   0.149
 6453TIP3    H219324   4.653   3.276   0.044
 6454TIP3   OH219325   7.236   1.003   4.179
 6454TIP3    H119326   7.239   0.947   4.101
 6454TIP3    H219327   7.161   1.060   4.165
 6455TIP3   OH219328   1.255   1.263   4.279
 6455TIP3    H119329   1.211   1.241   4.197
 6455TIP3    H219330   1.209   1.341   4.311
 6456TIP3   OH219331   5.069   1.153   1.241
 6456TIP3    H119332   4.980   1.182   1.220
 6456TIP3    H219333   5.062   1.120   1.330
 6457TIP3   OH219334   3.870   0.034   2.781
 6457TIP3    H119335   3.904  -0.041   2.831
 6457TIP3    H219336   3.807   0.075   2.840
 6458TIP3   OH219337   2.518   2.088   1.871
 6458TIP3    H119338   2.464   2.017   1.835
 6458TIP3    H219339   2.480   2.168   1.834
 6459TIP3   OH219340   1.732   0.887   0.794
 6459TIP3    H119341   1.639   0.909   0.802
 6459TIP3    H219342   1.748   0.823   0.863
 6460TIP3   OH219343   4.820   3.574   3.141
 6460TIP3    H119344   4.784   3.657   3.169
 6460TIP3    H219345   4.845   3.530   3.222
 6461TIP3   OH219346   5.133   1.591   1.568
 6461TIP3    H119347   5.141   1.508   1.615
 6461TIP3    H219348   5.214   1.598   1.517
 6462TIP3   OH219349   6.429   3.847   3.995
 6462TIP3    H119350   6.372   3.772   4.009
 6462TIP3    H219351   6.498   3.815   3.937
 6463TIP3   OH219352   6.492   6.681   4.550
 6463TIP3    H119353   6.525   6.721   4.470
 6463TIP3    H219354   6.538   6.726   4.621
 6464TIP3   OH219355   2.154   4.798   5.887
 6464TIP3    H119356   2.248   4.798   5.869
 6464TIP3    H219357   2.147   4.836   5.975
 6465TIP3   OH219358   5.548   4.947   4.981
 6465TIP3    H119359   5.620   4.889   5.006
 6465TIP3    H219360   5.589   5.011   4.923
 6466TIP3   OH219361   1.100   6.680   2.041
 6466TIP3    H119362   1.178   6.724   2.076
 6466TIP3    H219363   1.027   6.716   2.092
 6467TIP3   OH219364   4.962   1.650   4.897
 6467TIP3    H119365   4.937   1.740   4.878
 6467TIP3    H219366   5.057   1.648   4.882
 6468TIP3   OH219367   5.114   1.268   1.952
 6468TIP3    H119368   5.183   1.280   2.017
 6468TIP3    H219369   5.110   1.173   1.938
 6469TIP3   OH219370   2.837   0.910   1.692
 6469TIP3    H119371   2.834   0.931   1.599
 6469TIP3    H219372   2.828   0.815   1.695
 6470TIP3   OH219373   0.138   2.605   0.690
 6470TIP3    H119374   0.148   2.525   0.638
 6470TIP3    H219375   0.135   2.675   0.625
 6471TIP3   OH219376   2.010   4.282   1.464
 6471TIP3    H119377   2.087   4.251   1.416
 6471TIP3    H219378   1.936   4.241   1.419
 6472TIP3   OH219379   6.946   5.643   2.955
 6472TIP3    H119380   6.868   5.598   2.988
 6472TIP3    H219381   6.973   5.591   2.879
 6473TIP3   OH219382   1.524   4.953   5.101
 6473TIP3    H119383   1.457   4.887   5.084
 6473TIP3    H219384   1.603   4.902   5.119
 6474TIP3   OH219385   0.464   3.122   5.339
 6474TIP3    H119386   0.420   3.206   5.331
 6474TIP3    H219387   0.557   3.144   5.345
 6475TIP3   OH219388   3.037   2.381   2.159
 6475TIP3    H119389   2.947   2.369   2.188
 6475TIP3    H219390   3.059   2.299   2.115
 6476TIP3   OH219391   6.737   3.806   4.978
 6476TIP3    H119392   6.797   3.742   4.940
 6476TIP3    H219393   6.706   3.858   4.904
 6477TIP3   OH219394   4.334   1.483   4.445
 6477TIP3    H119395   4.350   1.411   4.506
 6477TIP3    H219396   4.406   1.477   4.382
 6478TIP3   OH219397   0.042   0.377   4.167
 6478TIP3    H119398   0.081   0.464   4.177
 6478TIP3    H219399   0.014   0.353   4.256
 6479TIP3   OH219400   4.697   2.568   5.359
 6479TIP3    H119401   4.718   2.488   5.408
 6479TIP3    H219402   4.625   2.542   5.301
 6480TIP3   OH219403   3.860   0.098   4.853
 6480TIP3    H119404   3.782   0.092   4.799
 6480TIP3    H219405   3.916   0.162   4.808
 6481TIP3   OH219406   1.646   4.433   3.565
 6481TIP3    H119407   1.626   4.503   3.627
 6481TIP3    H219408   1.578   4.368   3.580
 6482TIP3   OH219409   4.553   2.300   4.233
 6482TIP3    H119410   4.630   2.330   4.281
 6482TIP3    H219411   4.590   2.257   4.155
 6483TIP3   OH219412   5.927   0.650   4.545
 6483TIP3    H119413   5.850   0.623   4.595
 6483TIP3    H219414   5.949   0.574   4.491
 6484TIP3   OH219415   3.962   2.355   4.192
 6484TIP3    H119416   3.920   2.418   4.134
 6484TIP3    H219417   4.000   2.409   4.261
 6485TIP3   OH219418   7.198   5.596   0.902
 6485TIP3    H119419   7.125   5.637   0.948
 6485TIP3    H219420   7.156   5.546   0.832
 6486TIP3   OH219421   5.671   5.530   3.395
 6486TIP3    H119422   5.737   5.515   3.327
 6486TIP3    H219423   5.633   5.615   3.374
 6487TIP3   OH219424   1.633   1.729   4.975
 6487TIP3    H119425   1.603   1.721   4.885
 6487TIP3    H219426   1.727   1.712   4.971
 6488TIP3   OH219427   6.154   1.271   4.857
 6488TIP3    H119428   6.196   1.337   4.803
 6488TIP3    H219429   6.194   1.281   4.944
 6489TIP3   OH219430   0.371   1.882   5.836
 6489TIP3    H119431   0.297   1.841   5.790
 6489TIP3    H219432   0.422   1.923   5.766
 6490TIP3   OH219433   1.049   5.163   4.434
 6490TIP3    H119434   1.139   5.172   4.403
 6490TIP3    H219435   1.008   5.103   4.371
 6491TIP3   OH219436   3.073   0.634   3.594
 6491TIP3    H119437   3.149   0.620   3.537
 6491TIP3    H219438   3.004   0.579   3.555
 6492TIP3   OH219439   1.154   0.605   0.818
 6492TIP3    H119440   1.216   0.668   0.782
 6492TIP3    H219441   1.071   0.653   0.822
 6493TIP3   OH219442   1.989   2.846   2.464
 6493TIP3    H119443   1.904   2.871   2.427
 6493TIP3    H219444   1.994   2.752   2.447
 6494TIP3   OH219445   5.929   4.415   3.726
 6494TIP3    H119446   5.902   4.497   3.685
 6494TIP3    H219447   5.931   4.434   3.820
 6495TIP3   OH219448   6.006   2.404   2.535
 6495TIP3    H119449   6.028   2.340   2.603
 6495TIP3    H219450   5.963   2.352   2.467
 6496TIP3   OH219451   0.334   6.470   5.793
 6496TIP3    H119452   0.316   6.546   5.738
 6496TIP3    H219453   0.248   6.437   5.817
 6497TIP3   OH219454   1.047  -0.001   0.248
 6497TIP3    H119455   1.112   0.036   0.308
 6497TIP3    H219456   0.962   0.021   0.288
 6498TIP3   OH219457   3.752   6.238   2.638
 6498TIP3    H119458   3.673   6.290   2.623
 6498TIP3    H219459   3.802   6.245   2.557
 6499TIP3   OH219460   3.135   2.248   3.991
 6499TIP3    H119461   3.198   2.310   3.954
 6499TIP3    H219462   3.135   2.267   4.085
 6500TIP3   OH219463   5.570   1.936   0.884
 6500TIP3    H119464   5.641   1.976   0.833
 6500TIP3    H219465   5.601   1.848   0.903
 6501TIP3   OH219466   4.576   6.161   5.044
 6501TIP3    H119467   4.542   6.242   5.007
 6501TIP3    H219468   4.562   6.095   4.976
 6502TIP3   OH219469   1.902   4.005   0.646
 6502TIP3    H119470   1.811   4.031   0.630
 6502TIP3    H219471   1.918   3.934   0.584
 6503TIP3   OH219472   6.089   3.412   3.036
 6503TIP3    H119473   6.108   3.370   3.120
 6503TIP3    H219474   6.175   3.438   3.003
 6504TIP3   OH219475   1.322   4.875   5.614
 6504TIP3    H119476   1.314   4.968   5.595
 6504TIP3    H219477   1.404   4.867   5.664
 6505TIP3   OH219478   6.877   5.083   3.383
 6505TIP3    H119479   6.888   5.162   3.436
 6505TIP3    H219480   6.959   5.035   3.393
 6506TIP3   OH219481   1.414   1.444   3.171
 6506TIP3    H119482   1.341   1.425   3.113
 6506TIP3    H219483   1.383   1.514   3.227
 6507TIP3   OH219484   6.679   5.603   0.415
 6507TIP3    H119485   6.647   5.529   0.364
 6507TIP3    H219486   6.674   5.574   0.506
 6508TIP3   OH219487   4.685   1.470   2.324
 6508TIP3    H119488   4.726   1.546   2.365
 6508TIP3    H219489   4.758   1.424   2.281
 6509TIP3   OH219490   3.523   2.935   5.112
 6509TIP3    H119491   3.512   3.021   5.151
 6509TIP3    H219492   3.601   2.899   5.154
 6510TIP3   OH219493   1.819   6.431   0.219
 6510TIP3    H119494   1.876   6.374   0.270
 6510TIP3    H219495   1.731   6.399   0.237
 6511TIP3   OH219496   5.180   2.510   2.290
 6511TIP3    H119497   5.148   2.593   2.254
 6511TIP3    H219498   5.264   2.495   2.246
 6512TIP3   OH219499   2.035   1.038   1.585
 6512TIP3    H119500   1.977   0.986   1.531
 6512TIP3    H219501   2.119   0.992   1.582
 6513TIP3   OH219502   2.674   4.106   5.232
 6513TIP3    H119503   2.616   4.086   5.158
 6513TIP3    H219504   2.759   4.071   5.205
 6514TIP3   OH219505   5.573   2.163   4.943
 6514TIP3    H119506   5.509   2.133   4.879
 6514TIP3    H219507   5.599   2.250   4.911
 6515TIP3   OH219508   0.781   5.285   0.247
 6515TIP3    H119509   0.755   5.367   0.205
 6515TIP3    H219510   0.702   5.257   0.294
 6516TIP3   OH219511   5.242   4.896   2.226
 6516TIP3    H119512   5.269   4.988   2.223
 6516TIP3    H219513   5.232   4.871   2.134
 6517TIP3   OH219514   6.228   5.084   2.636
 6517TIP3    H119515   6.195   4.994   2.634
 6517TIP3    H219516   6.290   5.086   2.709
 6518TIP3   OH219517   3.161   4.552   3.557
 6518TIP3    H119518   3.139   4.483   3.620
 6518TIP3    H219519   3.169   4.632   3.610
 6519TIP3   OH219520   0.291   6.614   4.453
 6519TIP3    H119521   0.279   6.520   4.441
 6519TIP3    H219522   0.309   6.624   4.547
 6520TIP3   OH219523   0.532   2.558   4.976
 6520TIP3    H119524   0.562   2.573   5.066
 6520TIP3    H219525   0.494   2.470   4.978
 6521TIP3   OH219526   1.114   2.142   0.856
 6521TIP3    H119527   1.174   2.192   0.800
 6521TIP3    H219528   1.043   2.204   0.875
 6522TIP3   OH219529   3.060   2.890   0.202
 6522TIP3    H119530   3.058   2.797   0.177
 6522TIP3    H219531   3.153   2.914   0.195
 6523TIP3   OH219532   5.758   4.662   1.864
 6523TIP3    H119533   5.752   4.567   1.875
 6523TIP3    H219534   5.812   4.691   1.938
 6524TIP3   OH219535   3.080   2.394   5.512
 6524TIP3    H119536   3.072   2.489   5.522
 6524TIP3    H219537   3.169   2.380   5.480
 6525TIP3   OH219538   5.574   5.300   2.212
 6525TIP3    H119539   5.494   5.345   2.184
 6525TIP3    H219540   5.641   5.369   2.212
 6526TIP3   OH219541   5.071   4.443   2.842
 6526TIP3    H119542   5.052   4.442   2.936
 6526TIP3    H219543   4.990   4.413   2.801
 6527TIP3   OH219544   3.026   4.325   4.007
 6527TIP3    H119545   2.932   4.339   4.001
 6527TIP3    H219546   3.060   4.354   3.922
 6528TIP3   OH219547   0.544   6.751   2.469
 6528TIP3    H119548   0.489   6.729   2.545
 6528TIP3    H219549   0.587   6.833   2.494
 6529TIP3   OH219550   0.310   0.615   0.680
 6529TIP3    H119551   0.348   0.695   0.716
 6529TIP3    H219552   0.233   0.644   0.632
 6530TIP3   OH219553   3.967   4.030   4.498
 6530TIP3    H119554   3.994   4.121   4.515
 6530TIP3    H219555   3.871   4.033   4.503
 6531TIP3   OH219556   1.411   3.579   3.479
 6531TIP3    H119557   1.428   3.570   3.386
 6531TIP3    H219558   1.322   3.546   3.491
 6532TIP3   OH219559   2.714   6.263   5.036
 6532TIP3    H119560   2.708   6.248   5.130
 6532TIP3    H219561   2.670   6.347   5.022
 6533TIP3   OH219562   6.560   6.734   3.272
 6533TIP3    H119563   6.537   6.799   3.338
 6533TIP3    H219564   6.585   6.657   3.322
 6534TIP3   OH219565   2.953   2.146   3.813
 6534TIP3    H119566   3.024   2.189   3.861
 6534TIP3    H219567   2.874   2.169   3.861
 6535TIP3   OH219568   3.651   1.649   4.455
 6535TIP3    H119569   3.688   1.580   4.511
 6535TIP3    H219570   3.673   1.731   4.500
 6536TIP3   OH219571   3.364   1.987   3.577
 6536TIP3    H119572   3.370   1.892   3.579
 6536TIP3    H219573   3.454   2.017   3.574
 6537TIP3   OH219574   4.124   0.827   2.449
 6537TIP3    H119575   4.166   0.861   2.528
 6537TIP3    H219576   4.175   0.750   2.426
 6538TIP3   OH219577   3.558   0.607   3.890
 6538TIP3    H119578   3.507   0.526   3.900
 6538TIP3    H219579   3.589   0.604   3.799
 6539TIP3   OH219580   2.703   3.007   3.469
 6539TIP3    H119581   2.704   2.963   3.554
 6539TIP3    H219582   2.761   2.955   3.414
 6540TIP3   OH219583   0.984   1.927   1.005
 6540TIP3    H119584   0.898   1.901   0.972
 6540TIP3    H219585   1.019   1.984   0.936
 6541TIP3   OH219586   0.235   3.409   2.734
 6541TIP3    H119587   0.277   3.389   2.650
 6541TIP3    H219588   0.300   3.386   2.800
 6542TIP3   OH219589   3.313   1.943   5.674
 6542TIP3    H119590   3.370   2.018   5.692
 6542TIP3    H219591   3.358   1.869   5.715
 6543TIP3   OH219592   5.532   0.767   3.468
 6543TIP3    H119593   5.466   0.748   3.402
 6543TIP3    H219594   5.614   0.775   3.418
 6544TIP3   OH219595   3.463   3.154   4.250
 6544TIP3    H119596   3.533   3.089   4.252
 6544TIP3    H219597   3.407   3.131   4.324
 6545TIP3   OH219598   1.838   5.280   5.127
 6545TIP3    H119599   1.750   5.247   5.106
 6545TIP3    H219600   1.895   5.204   5.115
 6546TIP3   OH219601   6.134   0.758   1.109
 6546TIP3    H119602   6.042   0.750   1.132
 6546TIP3    H219603   6.149   0.688   1.045
 6547TIP3   OH219604   6.332   3.325   1.750
 6547TIP3    H119605   6.252   3.372   1.725
 6547TIP3    H219606   6.393   3.394   1.777
 6548TIP3   OH219607   5.915   6.337   1.826
 6548TIP3    H119608   5.952   6.249   1.834
 6548TIP3    H219609   5.883   6.342   1.736
 6549TIP3   OH219610   6.903   1.965   2.420
 6549TIP3    H119611   6.994   1.978   2.395
 6549TIP3    H219612   6.852   1.994   2.344
 6550TIP3   OH219613   0.820   0.555   4.564
 6550TIP3    H119614   0.796   0.582   4.653
 6550TIP3    H219615   0.737   0.555   4.516
 6551TIP3   OH219616   4.177   2.084   1.330
 6551TIP3    H119617   4.149   2.108   1.418
 6551TIP3    H219618   4.268   2.116   1.324
 6552TIP3   OH219619   0.325   5.762   2.395
 6552TIP3    H119620   0.360   5.768   2.483
 6552TIP3    H219621   0.387   5.810   2.340
 6553TIP3   OH219622   1.379   3.146   0.260
 6553TIP3    H119623   1.342   3.131   0.347
 6553TIP3    H219624   1.320   3.100   0.201
 6554TIP3   OH219625   5.176   2.841   2.459
 6554TIP3    H119626   5.258   2.796   2.482
 6554TIP3    H219627   5.178   2.846   2.363
 6555TIP3   OH219628   5.922   3.623   0.114
 6555TIP3    H119629   5.913   3.584   0.027
 6555TIP3    H219630   5.989   3.691   0.103
 6556TIP3   OH219631   0.981   4.358   2.425
 6556TIP3    H119632   0.944   4.382   2.340
 6556TIP3    H219633   0.957   4.267   2.437
 6557TIP3   OH219634   3.258   0.924   5.371
 6557TIP3    H119635   3.191   0.972   5.419
 6557TIP3    H219636   3.252   0.957   5.281
 6558TIP3   OH219637   2.245   4.507   5.545
 6558TIP3    H119638   2.311   4.445   5.576
 6558TIP3    H219639   2.189   4.523   5.621
 6559TIP3   OH219640   1.735   2.400   5.787
 6559TIP3    H119641   1.784   2.391   5.869
 6559TIP3    H219642   1.775   2.337   5.727
 6560TIP3   OH219643   0.417   3.261   2.137
 6560TIP3    H119644   0.380   3.189   2.086
 6560TIP3    H219645   0.495   3.224   2.177
 6561TIP3   OH219646   0.985   6.102   1.718
 6561TIP3    H119647   0.943   6.071   1.798
 6561TIP3    H219648   0.947   6.188   1.703
 6562TIP3   OH219649   0.987   3.097   4.534
 6562TIP3    H119650   1.029   3.044   4.602
 6562TIP3    H219651   0.914   3.139   4.578
 6563TIP3   OH219652   0.799   0.071   3.621
 6563TIP3    H119653   0.780   0.157   3.661
 6563TIP3    H219654   0.715   0.041   3.588
 6564TIP3   OH219655   0.706   5.495   0.527
 6564TIP3    H119656   0.755   5.529   0.602
 6564TIP3    H219657   0.729   5.553   0.455
 6565TIP3   OH219658   3.672   0.754   0.738
 6565TIP3    H119659   3.683   0.673   0.688
 6565TIP3    H219660   3.649   0.820   0.673
 6566TIP3   OH219661   4.960   4.126   2.089
 6566TIP3    H119662   4.980   4.040   2.052
 6566TIP3    H219663   5.035   4.146   2.146
 6567TIP3   OH219664   3.558   1.114   2.797
 6567TIP3    H119665   3.489   1.082   2.855
 6567TIP3    H219666   3.550   1.060   2.718
 6568TIP3   OH219667   1.153   5.305   3.736
 6568TIP3    H119668   1.109   5.313   3.821
 6568TIP3    H219669   1.171   5.212   3.727
 6569TIP3   OH219670   5.065   0.203   4.271
 6569TIP3    H119671   5.074   0.291   4.233
 6569TIP3    H219672   5.148   0.187   4.314
 6570TIP3   OH219673   3.040   2.686   4.434
 6570TIP3    H119674   3.111   2.624   4.450
 6570TIP3    H219675   2.974   2.663   4.499
 6571TIP3   OH219676   6.899   5.570   5.466
 6571TIP3    H119677   6.885   5.657   5.430
 6571TIP3    H219678   6.872   5.577   5.557
 6572TIP3   OH219679   6.422   4.757   4.035
 6572TIP3    H119680   6.386   4.732   3.950
 6572TIP3    H219681   6.446   4.674   4.076
 6573TIP3   OH219682   5.737   6.462   5.695
 6573TIP3    H119683   5.785   6.379   5.695
 6573TIP3    H219684   5.805   6.529   5.700
 6574TIP3   OH219685   0.175   4.693   1.370
 6574TIP3    H119686   0.180   4.658   1.281
 6574TIP3    H219687   0.266   4.703   1.397
 6575TIP3   OH219688   6.350   5.475   5.612
 6575TIP3    H119689   6.313   5.561   5.635
 6575TIP3    H219690   6.414   5.495   5.544
 6576TIP3   OH219691   2.298   3.453   1.057
 6576TIP3    H119692   2.367   3.491   1.111
 6576TIP3    H219693   2.269   3.376   1.106
 6577TIP3   OH219694   1.773   5.192   1.720
 6577TIP3    H119695   1.688   5.159   1.694
 6577TIP3    H219696   1.835   5.150   1.660
 6578TIP3   OH219697   3.237   2.872   2.436
 6578TIP3    H119698   3.161   2.923   2.465
 6578TIP3    H219699   3.249   2.806   2.504
 6579TIP3   OH219700   5.718   0.274   4.099
 6579TIP3    H119701   5.633   0.300   4.132
 6579TIP3    H219702   5.754   0.216   4.166
 6580TIP3   OH219703   3.894   6.503   3.876
 6580TIP3    H119704   3.978   6.476   3.838
 6580TIP3    H219705   3.828   6.458   3.823
 6581TIP3   OH219706   4.525   0.106   1.535
 6581TIP3    H119707   4.481   0.064   1.461
 6581TIP3    H219708   4.605   0.055   1.547
 6582TIP3   OH219709   4.421   2.218   4.733
 6582TIP3    H119710   4.411   2.313   4.726
 6582TIP3    H219711   4.464   2.205   4.817
 6583TIP3   OH219712   4.773   3.025   3.646
 6583TIP3    H119713   4.771   3.120   3.641
 6583TIP3    H219714   4.700   3.002   3.703
 6584TIP3   OH219715   1.043   5.497   4.160
 6584TIP3    H119716   1.076   5.408   4.167
 6584TIP3    H219717   1.103   5.540   4.099
 6585TIP3   OH219718  -0.073   0.126   5.701
 6585TIP3    H119719  -0.055   0.166   5.786
 6585TIP3    H219720  -0.030   0.183   5.638
 6586TIP3   OH219721   5.108   3.417   2.685
 6586TIP3    H119722   5.184   3.474   2.692
 6586TIP3    H219723   5.087   3.416   2.591
 6587TIP3   OH219724   4.227   4.093   2.621
 6587TIP3    H119725   4.289   4.037   2.668
 6587TIP3    H219726   4.275   4.174   2.605
 6588TIP3   OH219727   5.810   6.024   0.674
 6588TIP3    H119728   5.743   5.956   0.675
 6588TIP3    H219729   5.887   5.983   0.711
 6589TIP3   OH219730   3.243   4.928   4.701
 6589TIP3    H119731   3.270   4.931   4.609
 6589TIP3    H219732   3.149   4.913   4.698
 6590TIP3   OH219733   6.543   2.618   5.041
 6590TIP3    H119734   6.476   2.565   5.084
 6590TIP3    H219735   6.626   2.582   5.072
 6591TIP3   OH219736   1.276   0.421   1.757
 6591TIP3    H119737   1.268   0.511   1.790
 6591TIP3    H219738   1.354   0.387   1.800
 6592TIP3   OH219739   3.345   1.904   3.310
 6592TIP3    H119740   3.329   1.944   3.395
 6592TIP3    H219741   3.427   1.943   3.280
 6593TIP3   OH219742   3.923   1.052   2.611
 6593TIP3    H119743   3.963   0.981   2.661
 6593TIP3    H219744   3.951   1.037   2.521
 6594TIP3   OH219745   2.853   6.345   3.060
 6594TIP3    H119746   2.896   6.307   3.137
 6594TIP3    H219747   2.900   6.427   3.044
 6595TIP3   OH219748   6.033   5.387   1.041
 6595TIP3    H119749   6.014   5.341   1.122
 6595TIP3    H219750   6.084   5.464   1.068
 6596TIP3   OH219751   7.168   3.326  -0.008
 6596TIP3    H119752   7.106   3.385   0.036
 6596TIP3    H219753   7.123   3.242  -0.011
 6597TIP3   OH219754   6.044   0.064   4.047
 6597TIP3    H119755   6.050   0.140   3.989
 6597TIP3    H219756   5.998   0.097   4.124
 6598TIP3   OH219757   5.810   0.728   3.892
 6598TIP3    H119758   5.853   0.729   3.806
 6598TIP3    H219759   5.880   0.707   3.953
 6599TIP3   OH219760   3.210   4.187   4.518
 6599TIP3    H119761   3.146   4.132   4.562
 6599TIP3    H219762   3.295   4.148   4.541
 6600TIP3   OH219763   6.188   6.101   1.261
 6600TIP3    H119764   6.136   6.058   1.330
 6600TIP3    H219765   6.172   6.194   1.274
 6601TIP3   OH219766   0.751   0.204   4.010
 6601TIP3    H119767   0.774   0.289   4.048
 6601TIP3    H219768   0.791   0.205   3.923
 6602TIP3   OH219769   2.194   1.925   1.990
 6602TIP3    H119770   2.106   1.886   1.992
 6602TIP3    H219771   2.187   1.994   1.923
 6603TIP3   OH219772   6.912   5.159   0.057
 6603TIP3    H119773   6.855   5.235   0.050
 6603TIP3    H219774   6.997   5.190   0.024
 6604TIP3   OH219775   3.844   1.263   1.005
 6604TIP3    H119776   3.827   1.296   0.916
 6604TIP3    H219777   3.892   1.334   1.048
 6605TIP3   OH219778   4.207   0.283   0.956
 6605TIP3    H119779   4.151   0.350   0.993
 6605TIP3    H219780   4.276   0.270   1.021
 6606TIP3   OH219781   3.010   2.139   3.455
 6606TIP3    H119782   3.093   2.185   3.445
 6606TIP3    H219783   2.970   2.180   3.532
 6607TIP3   OH219784   1.055   1.165   1.767
 6607TIP3    H119785   1.001   1.243   1.754
 6607TIP3    H219786   1.092   1.177   1.854
 6608TIP3   OH219787   4.136   4.268   0.624
 6608TIP3    H119788   4.101   4.340   0.677
 6608TIP3    H219789   4.061   4.211   0.609
 6609TIP3   OH219790   0.615   6.519   3.514
 6609TIP3    H119791   0.525   6.550   3.524
 6609TIP3    H219792   0.607   6.439   3.462
 6610TIP3   OH219793   6.235   5.427   4.270
 6610TIP3    H119794   6.143   5.454   4.261
 6610TIP3    H219795   6.274   5.494   4.325
 6611TIP3   OH219796   4.725   0.121   1.956
 6611TIP3    H119797   4.808   0.163   1.977
 6611TIP3    H219798   4.719   0.048   2.018
 6612TIP3   OH219799   1.976   2.646   2.771
 6612TIP3    H119800   2.062   2.622   2.807
 6612TIP3    H219801   1.995   2.670   2.680
 6613TIP3   OH219802   3.830   1.130   4.817
 6613TIP3    H119803   3.787   1.215   4.830
 6613TIP3    H219804   3.760   1.073   4.784
 6614TIP3   OH219805   5.652   5.736   2.999
 6614TIP3    H119806   5.617   5.793   2.931
 6614TIP3    H219807   5.727   5.693   2.958
 6615TIP3   OH219808   0.570   0.316   0.459
 6615TIP3    H119809   0.536   0.229   0.477
 6615TIP3    H219810   0.511   0.351   0.391
 6616TIP3   OH219811   6.311   5.561   2.928
 6616TIP3    H119812   6.236   5.502   2.915
 6616TIP3    H219813   6.364   5.518   2.995
 6617TIP3   OH219814   6.314   4.883   1.095
 6617TIP3    H119815   6.257   4.958   1.110
 6617TIP3    H219816   6.262   4.824   1.041
 6618TIP3   OH219817   1.856   2.722   3.572
 6618TIP3    H119818   1.936   2.671   3.586
 6618TIP3    H219819   1.880   2.811   3.599
 6619TIP3   OH219820   5.996   1.501   0.485
 6619TIP3    H119821   6.012   1.517   0.392
 6619TIP3    H219822   5.913   1.454   0.487
 6620TIP3   OH219823   3.796   1.914   3.362
 6620TIP3    H119824   3.759   1.881   3.444
 6620TIP3    H219825   3.723   1.958   3.319
 6621TIP3   OH219826   4.139   5.777   4.500
 6621TIP3    H119827   4.100   5.854   4.460
 6621TIP3    H219828   4.230   5.803   4.518
 6622TIP3   OH219829   6.320   1.303   3.906
 6622TIP3    H119830   6.371   1.354   3.969
 6622TIP3    H219831   6.230   1.335   3.915
 6623TIP3   OH219832   5.106   4.736   0.581
 6623TIP3    H119833   5.069   4.665   0.633
 6623TIP3    H219834   5.090   4.815   0.634
 6624TIP3   OH219835   0.267   1.634   1.606
 6624TIP3    H119836   0.303   1.624   1.517
 6624TIP3    H219837   0.188   1.580   1.605
 6625TIP3   OH219838   5.844   6.461   1.153
 6625TIP3    H119839   5.783   6.530   1.178
 6625TIP3    H219840   5.792   6.400   1.100
 6626TIP3   OH219841   2.300   0.685   1.473
 6626TIP3    H119842   2.385   0.640   1.472
 6626TIP3    H219843   2.319   0.771   1.511
 6627TIP3   OH219844   5.422   5.219   4.216
 6627TIP3    H119845   5.369   5.200   4.293
 6627TIP3    H219846   5.378   5.174   4.145
 6628TIP3   OH219847   2.965   6.160   3.703
 6628TIP3    H119848   3.017   6.155   3.622
 6628TIP3    H219849   2.968   6.071   3.738
 6629TIP3   OH219850   1.522   5.575   1.292
 6629TIP3    H119851   1.490   5.582   1.382
 6629TIP3    H219852   1.514   5.664   1.257
 6630TIP3   OH219853   2.574   6.517  -0.028
 6630TIP3    H119854   2.646   6.471  -0.071
 6630TIP3    H219855   2.614   6.558   0.049
 6631TIP3   OH219856   1.759   4.600   4.601
 6631TIP3    H119857   1.775   4.508   4.621
 6631TIP3    H219858   1.707   4.599   4.521
 6632TIP3   OH219859   7.092   0.065   2.408
 6632TIP3    H119860   7.027  -0.005   2.409
 6632TIP3    H219861   7.124   0.067   2.318
 6633TIP3   OH219862   2.211   3.106   0.873
 6633TIP3    H119863   2.252   3.020   0.874
 6633TIP3    H219864   2.123   3.090   0.839
 6634TIP3   OH219865   2.954   3.024   0.816
 6634TIP3    H119866   2.934   3.058   0.729
 6634TIP3    H219867   2.893   2.951   0.828
 6635TIP3   OH219868   3.006   4.093   1.227
 6635TIP3    H119869   3.025   4.061   1.139
 6635TIP3    H219870   2.965   4.178   1.213
 6636TIP3   OH219871   1.691   1.874   4.008
 6636TIP3    H119872   1.707   1.793   4.057
 6636TIP3    H219873   1.700   1.944   4.072
 6637TIP3   OH219874   0.396   3.760   3.105
 6637TIP3    H119875   0.346   3.685   3.074
 6637TIP3    H219876   0.390   3.824   3.034
 6638TIP3   OH219877   0.362   0.323   0.739
 6638TIP3    H119878   0.270   0.329   0.711
 6638TIP3    H219879   0.399   0.409   0.719
 6639TIP3   OH219880   6.430   3.919   3.544
 6639TIP3    H119881   6.355   3.911   3.485
 6639TIP3    H219882   6.393   3.903   3.631
 6640TIP3   OH219883   4.015   4.959   4.819
 6640TIP3    H119884   4.048   4.944   4.907
 6640TIP3    H219885   4.090   4.943   4.762
 6641TIP3   OH219886   3.642   6.162   5.603
 6641TIP3    H119887   3.717   6.161   5.663
 6641TIP3    H219888   3.610   6.251   5.606
 6642TIP3   OH219889   7.120   0.344   4.429
 6642TIP3    H119890   7.085   0.259   4.457
 6642TIP3    H219891   7.171   0.374   4.504
 6643TIP3   OH219892   1.426   4.939   0.568
 6643TIP3    H119893   1.515   4.913   0.594
 6643TIP3    H219894   1.387   4.973   0.648
 6644TIP3   OH219895   3.786   3.729   0.987
 6644TIP3    H119896   3.748   3.774   0.911
 6644TIP3    H219897   3.859   3.786   1.013
 6645TIP3   OH219898   5.676   0.640   5.546
 6645TIP3    H119899   5.582   0.658   5.544
 6645TIP3    H219900   5.712   0.708   5.602
 6646TIP3   OH219901   7.033   6.634   4.699
 6646TIP3    H119902   7.040   6.728   4.718
 6646TIP3    H219903   7.064   6.591   4.778
 6647TIP3   OH219904   5.956   0.287   5.334
 6647TIP3    H119905   5.975   0.378   5.310
 6647TIP3    H219906   5.868   0.291   5.373
 6648TIP3   OH219907   6.580   0.642   2.343
 6648TIP3    H119908   6.556   0.623   2.252
 6648TIP3    H219909   6.580   0.556   2.386
 6649TIP3   OH219910   2.413   5.277   2.344
 6649TIP3    H119911   2.386   5.268   2.253
 6649TIP3    H219912   2.493   5.224   2.350
 6650TIP3   OH219913   0.769   4.110   0.263
 6650TIP3    H119914   0.754   4.205   0.262
 6650TIP3    H219915   0.861   4.101   0.287
 6651TIP3   OH219916   5.795   3.329   0.236
 6651TIP3    H119917   5.731   3.263   0.209
 6651TIP3    H219918   5.830   3.363   0.154
 6652TIP3   OH219919   6.646   4.364   5.241
 6652TIP3    H119920   6.711   4.391   5.175
 6652TIP3    H219921   6.613   4.280   5.209
 6653TIP3   OH219922   0.735   2.668   3.144
 6653TIP3    H119923   0.752   2.589   3.092
 6653TIP3    H219924   0.821   2.704   3.163
 6654TIP3   OH219925   1.667   2.241   2.076
 6654TIP3    H119926   1.698   2.331   2.088
 6654TIP3    H219927   1.703   2.194   2.152
 6655TIP3   OH219928   4.928   4.035   2.630
 6655TIP3    H119929   4.874   4.091   2.685
 6655TIP3    H219930   4.933   3.952   2.678
 6656TIP3   OH219931   3.768   1.833   2.239
 6656TIP3    H119932   3.761   1.907   2.178
 6656TIP3    H219933   3.862   1.821   2.250
 6657TIP3   OH219934   3.681   0.428   5.459
 6657TIP3    H119935   3.726   0.401   5.539
 6657TIP3    H219936   3.590   0.402   5.472
 6658TIP3   OH219937   2.448   6.093   0.999
 6658TIP3    H119938   2.403   6.143   0.930
 6658TIP3    H219939   2.379   6.071   1.061
 6659TIP3   OH219940   0.090   6.171   5.618
 6659TIP3    H119941   0.123   6.255   5.586
 6659TIP3    H219942   0.145   6.106   5.575
 6660TIP3   OH219943   0.581   1.509   0.608
 6660TIP3    H119944   0.580   1.567   0.684
 6660TIP3    H219945   0.507   1.539   0.554
 6661TIP3   OH219946   0.940   3.488   4.140
 6661TIP3    H119947   0.956   3.512   4.232
 6661TIP3    H219948   1.007   3.535   4.091
 6662TIP3   OH219949   5.210   4.066   3.761
 6662TIP3    H119950   5.171   4.029   3.682
 6662TIP3    H219951   5.298   4.093   3.734
 6663TIP3   OH219952   5.154   5.105   2.893
 6663TIP3    H119953   5.229   5.150   2.931
 6663TIP3    H219954   5.159   5.017   2.928
 6664TIP3   OH219955   0.386   4.772   3.607
 6664TIP3    H119956   0.463   4.767   3.551
 6664TIP3    H219957   0.364   4.680   3.626
 6665TIP3   OH219958   0.988   2.604   1.621
 6665TIP3    H119959   1.076   2.577   1.649
 6665TIP3    H219960   0.995   2.612   1.526
 6666TIP3   OH219961   5.241   3.269   1.162
 6666TIP3    H119962   5.236   3.360   1.190
 6666TIP3    H219963   5.211   3.269   1.071
 6667TIP3   OH219964   0.400   4.867   4.692
 6667TIP3    H119965   0.399   4.918   4.772
 6667TIP3    H219966   0.309   4.843   4.678
 6668TIP3   OH219967   3.610   2.778   5.365
 6668TIP3    H119968   3.649   2.746   5.446
 6668TIP3    H219969   3.592   2.698   5.314
 6669TIP3   OH219970   1.978   4.903   0.269
 6669TIP3    H119971   1.916   4.966   0.233
 6669TIP3    H219972   1.974   4.919   0.364
 6670TIP3   OH219973   1.500   5.757   0.587
 6670TIP3    H119974   1.530   5.750   0.678
 6670TIP3    H219975   1.541   5.837   0.555
 6671TIP3   OH219976   3.035   1.718   0.212
 6671TIP3    H119977   3.079   1.802   0.203
 6671TIP3    H219978   2.995   1.721   0.299
 6672TIP3   OH219979   6.627   0.985   4.565
 6672TIP3    H119980   6.583   0.900   4.575
 6672TIP3    H219981   6.686   0.990   4.640
 6673TIP3   OH219982   3.658   3.377   0.863
 6673TIP3    H119983   3.725   3.394   0.929
 6673TIP3    H219984   3.702   3.389   0.779
 6674TIP3   OH219985   6.937   4.623   5.201
 6674TIP3    H119986   6.978   4.639   5.286
 6674TIP3    H219987   6.945   4.528   5.189
 6675TIP3   OH219988   4.297   5.284   0.174
 6675TIP3    H119989   4.311   5.305   0.266
 6675TIP3    H219990   4.383   5.295   0.134
 6676TIP3   OH219991   5.079   4.682   2.005
 6676TIP3    H119992   5.049   4.594   1.981
 6676TIP3    H219993   5.173   4.680   1.991
 6677TIP3   OH219994   0.130   0.917   4.959
 6677TIP3    H119995   0.155   0.825   4.961
 6677TIP3    H219996   0.063   0.925   5.027
 6678TIP3   OH219997   0.619   6.328   1.379
 6678TIP3    H119998   0.669   6.358   1.304
 6678TIP3    H219999   0.675   6.261   1.420
 6679TIP3   OH220000   1.534   3.676   0.349
 6679TIP3    H120001   1.459   3.695   0.292
 6679TIP3    H220002   1.592   3.623   0.295
 6680TIP3   OH220003   5.654   1.308   3.505
 6680TIP3    H120004   5.681   1.292   3.596
 6680TIP3    H220005   5.577   1.253   3.493
 6681TIP3   OH220006   2.236   3.915   1.394
 6681TIP3    H120007   2.170   3.894   1.459
 6681TIP3    H220008   2.315   3.935   1.445
 6682TIP3   OH220009   1.831   4.679   2.840
 6682TIP3    H120010   1.754   4.735   2.831
 6682TIP3    H220011   1.799   4.605   2.893
 6683TIP3   OH220012   0.586   2.284   4.568
 6683TIP3    H120013   0.547   2.296   4.482
 6683TIP3    H220014   0.641   2.361   4.581
 6684TIP3   OH220015   2.093   2.175   3.247
 6684TIP3    H120016   2.014   2.229   3.234
 6684TIP3    H220017   2.080   2.100   3.189
 6685TIP3   OH220018   1.200   2.455   4.385
 6685TIP3    H120019   1.173   2.384   4.327
 6685TIP3    H220020   1.180   2.423   4.473
 6686TIP3   OH220021   4.811   1.645   5.828
 6686TIP3    H120022   4.748   1.605   5.768
 6686TIP3    H220023   4.824   1.733   5.794
 6687TIP3   OH220024   6.114   3.558   0.979
 6687TIP3    H120025   6.167   3.483   0.952
 6687TIP3    H220026   6.126   3.562   1.074
 6688TIP3   OH220027   5.731   5.282   4.038
 6688TIP3    H120028   5.644   5.317   4.020
 6688TIP3    H220029   5.753   5.230   3.961
 6689TIP3   OH220030   6.849   3.312   5.419
 6689TIP3    H120031   6.807   3.228   5.404
 6689TIP3    H220032   6.942   3.296   5.398
 6690TIP3   OH220033   3.525   2.597   2.526
 6690TIP3    H120034   3.445   2.614   2.576
 6690TIP3    H220035   3.518   2.506   2.500
 6691TIP3   OH220036   1.356   0.080   5.777
 6691TIP3    H120037   1.328   0.028   5.852
 6691TIP3    H220038   1.437   0.122   5.805
 6692TIP3   OH220039   5.501   0.076   0.769
 6692TIP3    H120040   5.423   0.107   0.814
 6692TIP3    H220041   5.480  -0.013   0.741
 6693TIP3   OH220042   5.368   2.028   5.772
 6693TIP3    H120043   5.311   1.999   5.843
 6693TIP3    H220044   5.321   2.102   5.733
 6694TIP3   OH220045   2.829   2.360   3.558
 6694TIP3    H120046   2.907   2.381   3.610
 6694TIP3    H220047   2.755   2.386   3.612
 6695TIP3   OH220048   5.109   1.021   1.843
 6695TIP3    H120049   5.042   1.050   1.781
 6695TIP3    H220050   5.118   0.927   1.825
 6696TIP3   OH220051   6.772   6.323   4.129
 6696TIP3    H120052   6.826   6.400   4.149
 6696TIP3    H220053   6.780   6.267   4.205
 6697TIP3   OH220054   0.114   1.530   2.347
 6697TIP3    H120055   0.067   1.571   2.420
 6697TIP3    H220056   0.136   1.602   2.289
 6698TIP3   OH220057   2.489   0.777   1.109
 6698TIP3    H120058   2.458   0.866   1.097
 6698TIP3    H220059   2.434   0.724   1.050
 6699TIP3   OH220060   5.525   3.047   3.777
 6699TIP3    H120061   5.478   3.104   3.717
 6699TIP3    H220062   5.610   3.089   3.788
 6700TIP3   OH220063   6.910   0.094   5.531
 6700TIP3    H120064   6.985   0.102   5.590
 6700TIP3    H220065   6.834   0.117   5.584
 6701TIP3   OH220066   6.396   2.155   0.648
 6701TIP3    H120067   6.444   2.080   0.613
 6701TIP3    H220068   6.449   2.184   0.723
 6702TIP3   OH220069   6.056   5.896   0.796
 6702TIP3    H120070   6.120   5.951   0.751
 6702TIP3    H220071   6.090   5.888   0.886
 6703TIP3   OH220072   2.615   2.029   4.846
 6703TIP3    H120073   2.684   1.976   4.806
 6703TIP3    H220074   2.540   1.970   4.854
 6704TIP3   OH220075   1.121   1.510   4.082
 6704TIP3    H120076   1.130   1.538   4.173
 6704TIP3    H220077   1.083   1.586   4.037
 6705TIP3   OH220078   6.595   0.624   4.076
 6705TIP3    H120079   6.520   0.574   4.109
 6705TIP3    H220080   6.587   0.619   3.980
 6706TIP3   OH220081   2.833   0.179   1.429
 6706TIP3    H120082   2.775   0.255   1.439
 6706TIP3    H220083   2.869   0.165   1.517
 6707TIP3   OH220084   3.687   4.033   4.076
 6707TIP3    H120085   3.762   3.976   4.057
 6707TIP3    H220086   3.674   4.083   3.995
 6708TIP3   OH220087   0.811   6.549   5.319
 6708TIP3    H120088   0.886   6.592   5.277
 6708TIP3    H220089   0.844   6.521   5.404
 6709TIP3   OH220090   0.055   3.856   2.641
 6709TIP3    H120091   0.012   3.925   2.690
 6709TIP3    H220092   0.089   3.899   2.562
 6710TIP3   OH220093   5.739   6.164   5.469
 6710TIP3    H120094   5.818   6.131   5.426
 6710TIP3    H220095   5.735   6.256   5.444
 6711TIP3   OH220096   3.391   1.408   4.189
 6711TIP3    H120097   3.428   1.382   4.274
 6711TIP3    H220098   3.458   1.463   4.149
 6712TIP3   OH220099   0.648   5.619   5.807
 6712TIP3    H120100   0.658   5.565   5.729
 6712TIP3    H220101   0.588   5.570   5.863
 6713TIP3   OH220102   0.413   0.829   1.529
 6713TIP3    H120103   0.401   0.906   1.473
 6713TIP3    H220104   0.412   0.755   1.468
 6714TIP3   OH220105   4.017   4.265   2.829
 6714TIP3    H120106   4.091   4.211   2.855
 6714TIP3    H220107   3.964   4.272   2.908
 6715TIP3   OH220108   1.833   5.515   2.580
 6715TIP3    H120109   1.856   5.497   2.671
 6715TIP3    H220110   1.744   5.550   2.584
 6716TIP3   OH220111   1.421   0.661   2.235
 6716TIP3    H120112   1.417   0.737   2.177
 6716TIP3    H220113   1.443   0.588   2.176
 6717TIP3   OH220114   5.123   3.960   0.908
 6717TIP3    H120115   5.197   3.926   0.959
 6717TIP3    H220116   5.084   4.027   0.964
 6718TIP3   OH220117   2.216   1.732   2.863
 6718TIP3    H120118   2.170   1.783   2.929
 6718TIP3    H220119   2.198   1.777   2.780
 6719TIP3   OH220120   3.516   2.806   0.790
 6719TIP3    H120121   3.492   2.863   0.863
 6719TIP3    H220122   3.499   2.860   0.712
 6720TIP3   OH220123   0.177   6.472   1.719
 6720TIP3    H120124   0.184   6.412   1.793
 6720TIP3    H220125   0.259   6.460   1.671
 6721TIP3   OH220126   6.669   0.659   2.965
 6721TIP3    H120127   6.597   0.646   3.027
 6721TIP3    H220128   6.626   0.672   2.880
 6722TIP3   OH220129   1.448   6.557   2.616
 6722TIP3    H120130   1.397   6.554   2.696
 6722TIP3    H220131   1.475   6.649   2.608
 6723TIP3   OH220132   3.949   1.488   0.586
 6723TIP3    H120133   4.027   1.534   0.617
 6723TIP3    H220134   3.954   1.492   0.491
 6724TIP3   OH220135   3.800   2.538   4.055
 6724TIP3    H120136   3.736   2.610   4.053
 6724TIP3    H220137   3.748   2.459   4.048
 6725TIP3   OH220138   5.588   6.698   4.720
 6725TIP3    H120139   5.524   6.654   4.776
 6725TIP3    H220140   5.548   6.782   4.699
 6726TIP3   OH220141   2.496   0.255   0.379
 6726TIP3    H120142   2.510   0.168   0.418
 6726TIP3    H220143   2.439   0.239   0.305
 6727TIP3   OH220144   1.756   2.619   0.693
 6727TIP3    H120145   1.670   2.656   0.716
 6727TIP3    H220146   1.737   2.559   0.621
 6728TIP3   OH220147   1.518   4.673   3.703
 6728TIP3    H120148   1.430   4.684   3.740
 6728TIP3    H220149   1.577   4.705   3.771
 6729TIP3   OH220150   1.916   2.591   4.695
 6729TIP3    H120151   1.876   2.568   4.611
 6729TIP3    H220152   1.922   2.687   4.692
 6730TIP3   OH220153   1.361   3.920   0.178
 6730TIP3    H120154   1.444   3.940   0.221
 6730TIP3    H220155   1.295   3.930   0.247
 6731TIP3   OH220156   1.092   3.208   3.584
 6731TIP3    H120157   1.016   3.210   3.525
 6731TIP3    H220158   1.128   3.120   3.574
 6732TIP3   OH220159   2.251   3.221   4.346
 6732TIP3    H120160   2.254   3.304   4.298
 6732TIP3    H220161   2.339   3.184   4.335
 6733TIP3   OH220162   0.696   6.139   2.724
 6733TIP3    H120163   0.623   6.107   2.777
 6733TIP3    H220164   0.730   6.060   2.681
 6734TIP3   OH220165   3.292   5.988   1.085
 6734TIP3    H120166   3.256   6.066   1.127
 6734TIP3    H220167   3.323   5.935   1.159
 6735TIP3   OH220168   3.820   4.307   3.019
 6735TIP3    H120169   3.839   4.375   3.083
 6735TIP3    H220170   3.803   4.229   3.070
 6736TIP3   OH220171   0.201   5.873   5.302
 6736TIP3    H120172   0.232   5.876   5.211
 6736TIP3    H220173   0.131   5.807   5.301
 6737TIP3   OH220174   0.012   3.801   3.438
 6737TIP3    H120175   0.039   3.847   3.359
 6737TIP3    H220176   0.043   3.857   3.510
 6738TIP3   OH220177   4.941   4.532   0.688
 6738TIP3    H120178   4.983   4.563   0.768
 6738TIP3    H220179   4.878   4.466   0.717
 6739TIP3   OH220180   7.187   2.700   1.915
 6739TIP3    H120181   7.183   2.623   1.858
 6739TIP3    H220182   7.105   2.747   1.898
 6740TIP3   OH220183   5.950   6.600   1.900
 6740TIP3    H120184   6.026   6.593   1.958
 6740TIP3    H220185   5.932   6.510   1.874
 6741TIP3   OH220186   1.617   4.633   1.897
 6741TIP3    H120187   1.524   4.614   1.899
 6741TIP3    H220188   1.626   4.704   1.834
 6742TIP3   OH220189   4.476   2.277   1.068
 6742TIP3    H120190   4.506   2.348   1.011
 6742TIP3    H220191   4.398   2.243   1.024
 6743TIP3   OH220192   6.265   3.128   5.612
 6743TIP3    H120193   6.202   3.200   5.622
 6743TIP3    H220194   6.260   3.104   5.520
 6744TIP3   OH220195   2.512   2.913   1.812
 6744TIP3    H120196   2.422   2.947   1.811
 6744TIP3    H220197   2.560   2.972   1.755
 6745TIP3   OH220198   4.823   3.907   3.047
 6745TIP3    H120199   4.782   3.994   3.046
 6745TIP3    H220200   4.772   3.857   3.111
 6746TIP3   OH220201   3.747   2.664   0.982
 6746TIP3    H120202   3.762   2.687   0.890
 6746TIP3    H220203   3.654   2.678   0.996
 6747TIP3   OH220204   4.769   5.818   1.716
 6747TIP3    H120205   4.763   5.914   1.718
 6747TIP3    H220206   4.836   5.796   1.780
 6748TIP3   OH220207   3.712   4.007   2.489
 6748TIP3    H120208   3.783   4.057   2.530
 6748TIP3    H220209   3.694   3.936   2.551
 6749TIP3   OH220210   6.372   0.851   4.158
 6749TIP3    H120211   6.352   0.920   4.094
 6749TIP3    H220212   6.466   0.837   4.150
 6750TIP3   OH220213   2.724   1.999   1.676
 6750TIP3    H120214   2.642   1.999   1.725
 6750TIP3    H220215   2.792   1.990   1.742
 6751TIP3   OH220216   1.434   5.373   3.468
 6751TIP3    H120217   1.479   5.452   3.497
 6751TIP3    H220218   1.351   5.404   3.432
 6752TIP3   OH220219   2.088   4.555   0.465
 6752TIP3    H120220   2.125   4.498   0.533
 6752TIP3    H220221   2.065   4.635   0.511
 6753TIP3   OH220222   4.080   5.453   4.915
 6753TIP3    H120223   4.009   5.516   4.904
 6753TIP3    H220224   4.046   5.372   4.878
 6754TIP3   OH220225   4.764   3.000   4.264
 6754TIP3    H120226   4.701   2.965   4.327
 6754TIP3    H220227   4.762   2.939   4.191
 6755TIP3   OH220228   0.255   1.413   3.248
 6755TIP3    H120229   0.220   1.400   3.160
 6755TIP3    H220230   0.209   1.349   3.302
 6756TIP3   OH220231   6.217   2.640   3.288
 6756TIP3    H120232   6.269   2.560   3.289
 6756TIP3    H220233   6.279   2.710   3.265
 6757TIP3   OH220234   1.166   5.451   1.458
 6757TIP3    H120235   1.242   5.394   1.467
 6757TIP3    H220236   1.110   5.407   1.394
 6758TIP3   OH220237   3.031   5.818   4.668
 6758TIP3    H120238   3.064   5.816   4.758
 6758TIP3    H220239   2.970   5.745   4.662
 6759TIP3   OH220240   1.447   1.292   4.495
 6759TIP3    H120241   1.402   1.216   4.531
 6759TIP3    H220242   1.380   1.339   4.446
 6760TIP3   OH220243   1.534   1.953   4.417
 6760TIP3    H120244   1.516   1.859   4.419
 6760TIP3    H220245   1.629   1.959   4.407
 6761TIP3   OH220246   4.053   4.304   4.587
 6761TIP3    H120247   4.113   4.317   4.514
 6761TIP3    H220248   3.994   4.379   4.584
 6762TIP3   OH220249   6.069   4.054   5.083
 6762TIP3    H120250   6.159   4.048   5.117
 6762TIP3    H220251   6.013   4.044   5.160
 6763TIP3   OH220252   2.810   3.301   1.957
 6763TIP3    H120253   2.837   3.265   1.873
 6763TIP3    H220254   2.718   3.324   1.945
 6764TIP3   OH220255   3.556   1.778   5.398
 6764TIP3    H120256   3.588   1.712   5.459
 6764TIP3    H220257   3.596   1.754   5.314
 6765TIP3   OH220258   3.814   1.694   1.882
 6765TIP3    H120259   3.773   1.779   1.865
 6765TIP3    H220260   3.908   1.710   1.868
 6766TIP3   OH220261   4.029   1.522   2.387
 6766TIP3    H120262   4.105   1.464   2.392
 6766TIP3    H220263   3.962   1.469   2.343
 6767TIP3   OH220264   3.399   1.516   5.228
 6767TIP3    H120265   3.417   1.470   5.311
 6767TIP3    H220266   3.415   1.608   5.248
 6768TIP3   OH220267   6.893   4.913   0.162
 6768TIP3    H120268   6.890   4.997   0.117
 6768TIP3    H220269   6.916   4.850   0.093
 6769TIP3   OH220270   6.193   1.479   5.713
 6769TIP3    H120271   6.164   1.495   5.624
 6769TIP3    H220272   6.277   1.435   5.704
 6770TIP3   OH220273   4.772   1.808   5.159
 6770TIP3    H120274   4.786   1.714   5.170
 6770TIP3    H220275   4.677   1.820   5.171
 6771TIP3   OH220276   0.060   0.174   2.989
 6771TIP3    H120277   0.035   0.247   2.932
 6771TIP3    H220278   0.145   0.198   3.024
 6772TIP3   OH220279   3.236   0.054   5.587
 6772TIP3    H120280   3.231  -0.016   5.652
 6772TIP3    H220281   3.171   0.031   5.521
 6773TIP3   OH220282   4.987   1.151   2.469
 6773TIP3    H120283   4.921   1.088   2.441
 6773TIP3    H220284   4.944   1.203   2.537
 6774TIP3   OH220285   6.550   4.566   4.207
 6774TIP3    H120286   6.590   4.490   4.166
 6774TIP3    H220287   6.533   4.538   4.297
 6775TIP3   OH220288   1.556   2.656   4.409
 6775TIP3    H120289   1.544   2.601   4.332
 6775TIP3    H220290   1.562   2.594   4.482
 6776TIP3   OH220291   1.445   1.504   0.370
 6776TIP3    H120292   1.460   1.454   0.450
 6776TIP3    H220293   1.392   1.446   0.315
 6777TIP3   OH220294   3.677   4.056   4.775
 6777TIP3    H120295   3.697   3.973   4.817
 6777TIP3    H220296   3.761   4.100   4.765
 6778TIP3   OH220297   6.463   1.801   2.903
 6778TIP3    H120298   6.491   1.833   2.989
 6778TIP3    H220299   6.369   1.785   2.914
 6779TIP3   OH220300   0.528   1.146   5.326
 6779TIP3    H120301   0.584   1.181   5.395
 6779TIP3    H220302   0.548   1.053   5.323
 6780TIP3   OH220303   3.255   2.392   1.323
 6780TIP3    H120304   3.160   2.397   1.334
 6780TIP3    H220305   3.282   2.321   1.380
 6781TIP3   OH220306   1.498   3.549   1.419
 6781TIP3    H120307   1.424   3.510   1.371
 6781TIP3    H220308   1.558   3.476   1.433
 6782TIP3   OH220309   5.574   3.859   4.234
 6782TIP3    H120310   5.607   3.869   4.145
 6782TIP3    H220311   5.558   3.765   4.244
 6783TIP3   OH220312   3.957   1.027   2.293
 6783TIP3    H120313   4.040   0.982   2.310
 6783TIP3    H220314   3.905   0.965   2.244
 6784TIP3   OH220315   5.012   3.045   2.517
 6784TIP3    H120316   5.007   3.039   2.612
 6784TIP3    H220317   5.080   2.982   2.493
 6785TIP3   OH220318   4.931   6.169   3.514
 6785TIP3    H120319   4.951   6.258   3.544
 6785TIP3    H220320   4.911   6.179   3.420
 6786TIP3   OH220321   0.580   6.563   2.788
 6786TIP3    H120322   0.650   6.624   2.809
 6786TIP3    H220323   0.517   6.614   2.737
 6787TIP3   OH220324   3.675   5.251   2.623
 6787TIP3    H120325   3.605   5.194   2.657
 6787TIP3    H220326   3.726   5.195   2.565
 6788TIP3   OH220327   0.142   1.756   1.844
 6788TIP3    H120328   0.057   1.783   1.808
 6788TIP3    H220329   0.191   1.723   1.769
 6789TIP3   OH220330   2.997   6.755   4.352
 6789TIP3    H120331   3.001   6.846   4.381
 6789TIP3    H220332   2.903   6.736   4.346
 6790TIP3   OH220333   4.226   1.305   5.729
 6790TIP3    H120334   4.277   1.296   5.648
 6790TIP3    H220335   4.228   1.399   5.747
 6791TIP3   OH220336   1.615   0.506   5.452
 6791TIP3    H120337   1.594   0.420   5.416
 6791TIP3    H220338   1.581   0.504   5.541
 6792TIP3   OH220339   4.696   3.570   3.456
 6792TIP3    H120340   4.767   3.514   3.423
 6792TIP3    H220341   4.720   3.588   3.547
 6793TIP3   OH220342   6.253   4.156   3.602
 6793TIP3    H120343   6.167   4.120   3.623
 6793TIP3    H220344   6.297   4.087   3.554
 6794TIP3   OH220345   3.151   0.520   0.248
 6794TIP3    H120346   3.176   0.613   0.251
 6794TIP3    H220347   3.191   0.482   0.326
 6795TIP3   OH220348   3.610   0.906   3.299
 6795TIP3    H120349   3.559   0.932   3.222
 6795TIP3    H220350   3.639   0.988   3.337
 6796TIP3   OH220351   6.142   1.616   3.359
 6796TIP3    H120352   6.231   1.586   3.346
 6796TIP3    H220353   6.121   1.665   3.279
 6797TIP3   OH220354   6.189   5.115   4.002
 6797TIP3    H120355   6.247   5.103   3.927
 6797TIP3    H220356   6.248   5.136   4.075
 6798TIP3   OH220357   6.923   4.580   3.866
 6798TIP3    H120358   6.883   4.548   3.785
 6798TIP3    H220359   6.989   4.643   3.836
 6799TIP3   OH220360   6.658   1.626   4.819
 6799TIP3    H120361   6.750   1.612   4.843
 6799TIP3    H220362   6.637   1.552   4.761
 6800TIP3   OH220363   0.141   2.315   4.314
 6800TIP3    H120364   0.056   2.271   4.308
 6800TIP3    H220365   0.189   2.264   4.380
 6801TIP3   OH220366   6.076   4.488   4.900
 6801TIP3    H120367   6.103   4.580   4.909
 6801TIP3    H220368   6.119   4.443   4.973
 6802TIP3   OH220369   3.305   3.543   5.798
 6802TIP3    H120370   3.277   3.454   5.777
 6802TIP3    H220371   3.400   3.535   5.812
 6803TIP3   OH220372   5.982   4.659   0.810
 6803TIP3    H120373   6.014   4.651   0.720
 6803TIP3    H220374   6.059   4.685   0.860
 6804TIP3   OH220375   6.565   5.816   5.241
 6804TIP3    H120376   6.563   5.735   5.190
 6804TIP3    H220377   6.569   5.885   5.175
 6805TIP3   OH220378   5.579   1.770   2.629
 6805TIP3    H120379   5.613   1.798   2.544
 6805TIP3    H220380   5.528   1.845   2.660
 6806TIP3   OH220381   1.946   3.216   1.256
 6806TIP3    H120382   2.026   3.209   1.205
 6806TIP3    H220383   1.968   3.177   1.341
 6807TIP3   OH220384   1.535   5.792   3.263
 6807TIP3    H120385   1.614   5.805   3.317
 6807TIP3    H220386   1.466   5.838   3.310
 6808TIP3   OH220387   7.164   5.005   5.768
 6808TIP3    H120388   7.151   4.911   5.762
 6808TIP3    H220389   7.215   5.028   5.690
 6809TIP3   OH220390   4.123   6.197   4.879
 6809TIP3    H120391   4.096   6.240   4.798
 6809TIP3    H220392   4.040   6.169   4.919
 6810TIP3   OH220393   1.891   5.419   4.860
 6810TIP3    H120394   1.863   5.356   4.927
 6810TIP3    H220395   1.812   5.434   4.807
 6811TIP3   OH220396   2.075   0.482   4.686
 6811TIP3    H120397   2.016   0.484   4.762
 6811TIP3    H220398   2.053   0.401   4.640
 6812TIP3   OH220399   5.854   1.387   0.836
 6812TIP3    H120400   5.914   1.456   0.865
 6812TIP3    H220401   5.778   1.435   0.804
 6813TIP3   OH220402   3.868   4.226   5.086
 6813TIP3    H120403   3.858   4.141   5.128
 6813TIP3    H220404   3.913   4.208   5.004
 6814TIP3   OH220405   1.698   2.138   2.355
 6814TIP3    H120406   1.722   2.107   2.442
 6814TIP3    H220407   1.612   2.179   2.367
 6815TIP3   OH220408   3.397   0.256   4.646
 6815TIP3    H120409   3.461   0.312   4.690
 6815TIP3    H220410   3.358   0.312   4.580
 6816TIP3   OH220411   4.360   1.831   3.939
 6816TIP3    H120412   4.395   1.899   3.882
 6816TIP3    H220413   4.265   1.840   3.931
 6817TIP3   OH220414   5.457   6.520   1.521
 6817TIP3    H120415   5.508   6.522   1.602
 6817TIP3    H220416   5.366   6.520   1.550
 6818TIP3   OH220417   3.277   3.815   1.045
 6818TIP3    H120418   3.288   3.720   1.041
 6818TIP3    H220419   3.323   3.841   1.125
 6819TIP3   OH220420   4.138   0.818   2.139
 6819TIP3    H120421   4.163   0.767   2.062
 6819TIP3    H220422   4.190   0.781   2.210
 6820TIP3   OH220423   3.496   0.059   1.140
 6820TIP3    H120424   3.429   0.004   1.179
 6820TIP3    H220425   3.543   0.096   1.215
 6821TIP3   OH220426   3.431   0.862   3.540
 6821TIP3    H120427   3.349   0.902   3.513
 6821TIP3    H220428   3.481   0.852   3.459
 6822TIP3   OH220429   6.802   3.658   2.942
 6822TIP3    H120430   6.791   3.753   2.938
 6822TIP3    H220431   6.740   3.624   2.878
 6823TIP3   OH220432   0.881   0.540   0.189
 6823TIP3    H120433   0.840   0.456   0.212
 6823TIP3    H220434   0.907   0.530   0.098
 6824TIP3   OH220435   0.201   0.402   3.895
 6824TIP3    H120436   0.176   0.453   3.818
 6824TIP3    H220437   0.189   0.462   3.968
 6825TIP3   OH220438   2.933   0.200   5.851
 6825TIP3    H120439   2.955   0.247   5.931
 6825TIP3    H220440   3.014   0.154   5.828
 6826TIP3   OH220441   6.916   2.559   4.395
 6826TIP3    H120442   6.829   2.595   4.378
 6826TIP3    H220443   6.901   2.485   4.453
 6827TIP3   OH220444   6.779   0.390   1.101
 6827TIP3    H120445   6.788   0.316   1.041
 6827TIP3    H220446   6.764   0.350   1.187
 6828TIP3   OH220447   7.170   4.981   4.899
 6828TIP3    H120448   7.210   4.945   4.819
 6828TIP3    H220449   7.124   4.906   4.937
 6829TIP3   OH220450   3.209   6.364   3.091
 6829TIP3    H120451   3.148   6.361   3.164
 6829TIP3    H220452   3.211   6.456   3.065
 6830TIP3   OH220453   5.507   5.049   5.402
 6830TIP3    H120454   5.506   5.015   5.491
 6830TIP3    H220455   5.440   4.998   5.356
 6831TIP3   OH220456   5.011   0.780   4.820
 6831TIP3    H120457   4.924   0.816   4.804
 6831TIP3    H220458   5.045   0.761   4.732
 6832TIP3   OH220459   2.600   6.185   4.302
 6832TIP3    H120460   2.561   6.141   4.227
 6832TIP3    H220461   2.670   6.126   4.330
 6833TIP3   OH220462   1.743   6.792   4.636
 6833TIP3    H120463   1.690   6.781   4.557
 6833TIP3    H220464   1.799   6.714   4.637
 6834TIP3   OH220465   0.143   4.123   3.120
 6834TIP3    H120466   0.159   4.079   3.036
 6834TIP3    H220467   0.048   4.131   3.126
 6835TIP3   OH220468   4.827   6.466   2.168
 6835TIP3    H120469   4.736   6.494   2.180
 6835TIP3    H220470   4.878   6.547   2.169
 6836TIP3   OH220471   3.524   1.059   4.731
 6836TIP3    H120472   3.583   0.987   4.710
 6836TIP3    H220473   3.452   1.049   4.669
 6837TIP3   OH220474   3.966   4.038   5.582
 6837TIP3    H120475   4.004   4.084   5.657
 6837TIP3    H220476   4.041   4.011   5.530
 6838TIP3   OH220477   1.694   0.795   5.396
 6838TIP3    H120478   1.751   0.731   5.439
 6838TIP3    H220479   1.606   0.757   5.404
 6839TIP3   OH220480   5.929   2.883   4.319
 6839TIP3    H120481   5.891   2.971   4.316
 6839TIP3    H220482   5.935   2.862   4.412
 6840TIP3   OH220483   0.716   4.286   4.808
 6840TIP3    H120484   0.789   4.224   4.809
 6840TIP3    H220485   0.638   4.232   4.794
 6841TIP3   OH220486   2.807   4.393   2.994
 6841TIP3    H120487   2.890   4.439   2.980
 6841TIP3    H220488   2.824   4.335   3.068
 6842TIP3   OH220489   4.350   4.432   3.689
 6842TIP3    H120490   4.392   4.518   3.692
 6842TIP3    H220491   4.419   4.370   3.710
 6843TIP3   OH220492   3.971   4.726   2.675
 6843TIP3    H120493   4.002   4.637   2.663
 6843TIP3    H220494   4.008   4.774   2.600
 6844TIP3   OH220495   4.842   4.452   2.712
 6844TIP3    H120496   4.850   4.433   2.618
 6844TIP3    H220497   4.777   4.522   2.716
 6845TIP3   OH220498   0.573   4.529   1.595
 6845TIP3    H120499   0.506   4.514   1.662
 6845TIP3    H220500   0.528   4.576   1.526
 6846TIP3   OH220501   5.647   3.212   4.780
 6846TIP3    H120502   5.631   3.144   4.846
 6846TIP3    H220503   5.714   3.268   4.818
 6847TIP3   OH220504   4.831   6.006   0.487
 6847TIP3    H120505   4.790   6.013   0.573
 6847TIP3    H220506   4.925   5.998   0.506
 6848TIP3   OH220507   4.296   0.435   2.653
 6848TIP3    H120508   4.218   0.421   2.600
 6848TIP3    H220509   4.312   0.351   2.696
 6849TIP3   OH220510   5.161   5.264   3.406
 6849TIP3    H120511   5.144   5.207   3.481
 6849TIP3    H220512   5.253   5.290   3.417
 6850TIP3   OH220513   4.851   5.180   4.436
 6850TIP3    H120514   4.770   5.155   4.481
 6850TIP3    H220515   4.826   5.253   4.380
 6851TIP3   OH220516   0.675   2.423   0.952
 6851TIP3    H120517   0.719   2.498   0.990
 6851TIP3    H220518   0.621   2.388   1.023
 6852TIP3   OH220519   0.555   2.028   1.037
 6852TIP3    H120520   0.562   1.977   1.118
 6852TIP3    H220521   0.605   1.978   0.973
 6853TIP3   OH220522   3.938   3.697   1.522
 6853TIP3    H120523   4.032   3.705   1.535
 6853TIP3    H220524   3.899   3.742   1.596
 6854TIP3   OH220525   0.545   0.612   4.550
 6854TIP3    H120526   0.566   0.682   4.611
 6854TIP3    H220527   0.449   0.610   4.548
 6855TIP3   OH220528   4.570   3.941   2.405
 6855TIP3    H120529   4.583   3.846   2.404
 6855TIP3    H220530   4.498   3.956   2.344
 6856TIP3   OH220531   3.259   3.679   0.777
 6856TIP3    H120532   3.289   3.644   0.861
 6856TIP3    H220533   3.336   3.672   0.720
 6857TIP3   OH220534   3.877   1.265   2.401
 6857TIP3    H120535   3.927   1.188   2.373
 6857TIP3    H220536   3.786   1.240   2.387
 6858TIP3   OH220537   4.337   2.155   2.444
 6858TIP3    H120538   4.253   2.118   2.418
 6858TIP3    H220539   4.401   2.086   2.426
 6859TIP3   OH220540   7.119   6.548   4.957
 6859TIP3    H120541   7.163   6.633   4.946
 6859TIP3    H220542   7.036   6.570   5.000
 6860TIP3   OH220543   6.185   5.827   0.458
 6860TIP3    H120544   6.105   5.780   0.480
 6860TIP3    H220545   6.168   5.865   0.372
 6861TIP3   OH220546   5.838   2.986   2.143
 6861TIP3    H120547   5.844   2.939   2.060
 6861TIP3    H220548   5.872   2.925   2.208
 6862TIP3   OH220549   5.886   0.275   3.901
 6862TIP3    H120550   5.809   0.291   3.955
 6862TIP3    H220551   5.875   0.333   3.826
 6863TIP3   OH220552   7.145   6.504   0.991
 6863TIP3    H120553   7.164   6.592   1.022
 6863TIP3    H220554   7.230   6.470   0.961
 6864TIP3   OH220555   5.735   1.985   4.726
 6864TIP3    H120556   5.711   2.036   4.803
 6864TIP3    H220557   5.824   1.953   4.745
 6865TIP3   OH220558   6.596   0.609   1.504
 6865TIP3    H120559   6.535   0.551   1.458
 6865TIP3    H220560   6.630   0.667   1.436
 6866TIP3   OH220561   4.569   4.425   4.953
 6866TIP3    H120562   4.583   4.519   4.960
 6866TIP3    H220563   4.474   4.414   4.961
 6867TIP3   OH220564   2.437   3.742   1.033
 6867TIP3    H120565   2.413   3.834   1.023
 6867TIP3    H220566   2.472   3.736   1.122
 6868TIP3   OH220567   6.270   3.605   3.518
 6868TIP3    H120568   6.358   3.613   3.483
 6868TIP3    H220569   6.224   3.684   3.486
 6869TIP3   OH220570   1.111   3.386   1.094
 6869TIP3    H120571   1.167   3.462   1.077
 6869TIP3    H220572   1.111   3.337   1.011
 6870TIP3   OH220573   3.661   0.174   0.184
 6870TIP3    H120574   3.687   0.093   0.226
 6870TIP3    H220575   3.742   0.213   0.153
 6871TIP3   OH220576   5.657   0.203   2.245
 6871TIP3    H120577   5.743   0.209   2.204
 6871TIP3    H220578   5.595   0.218   2.174
 6872TIP3   OH220579   0.388   3.581   4.856
 6872TIP3    H120580   0.406   3.494   4.893
 6872TIP3    H220581   0.313   3.613   4.905
 6873TIP3   OH220582   6.489   5.356   5.236
 6873TIP3    H120583   6.404   5.338   5.275
 6873TIP3    H220584   6.552   5.327   5.302
 6874TIP3   OH220585   0.564   3.639   5.210
 6874TIP3    H120586   0.572   3.579   5.136
 6874TIP3    H220587   0.473   3.629   5.239
 6875TIP3   OH220588   0.808   0.966   5.463
 6875TIP3    H120589   0.814   1.060   5.445
 6875TIP3    H220590   0.766   0.929   5.385
 6876TIP3   OH220591   5.527   4.288   1.584
 6876TIP3    H120592   5.496   4.358   1.528
 6876TIP3    H220593   5.618   4.310   1.603
 6877TIP3   OH220594   0.002   1.370   2.637
 6877TIP3    H120595   0.003   1.461   2.608
 6877TIP3    H220596  -0.064   1.368   2.706
 6878TIP3   OH220597   1.198   1.560   3.328
 6878TIP3    H120598   1.248   1.624   3.379
 6878TIP3    H220599   1.166   1.497   3.392
 6879TIP3   OH220600   4.516   4.713   5.384
 6879TIP3    H120601   4.444   4.687   5.442
 6879TIP3    H220602   4.572   4.636   5.380
 6880TIP3   OH220603   2.278   6.077   1.262
 6880TIP3    H120604   2.266   6.171   1.245
 6880TIP3    H220605   2.333   6.074   1.340
 6881TIP3   OH220606   7.219   1.617   0.688
 6881TIP3    H120607   7.127   1.618   0.662
 6881TIP3    H220608   7.225   1.547   0.753
 6882TIP3   OH220609   4.026   3.734   2.970
 6882TIP3    H120610   3.979   3.812   2.940
 6882TIP3    H220611   4.078   3.707   2.895
 6883TIP3   OH220612   5.764   4.838   0.410
 6883TIP3    H120613   5.764   4.743   0.405
 6883TIP3    H220614   5.694   4.866   0.351
 6884TIP3   OH220615   2.816   4.333   1.474
 6884TIP3    H120616   2.787   4.422   1.492
 6884TIP3    H220617   2.819   4.291   1.560
 6885TIP3   OH220618   1.546   3.020   3.022
 6885TIP3    H120619   1.616   2.955   3.014
 6885TIP3    H220620   1.522   3.018   3.115
 6886TIP3   OH220621   6.957   5.361   1.410
 6886TIP3    H120622   6.914   5.379   1.493
 6886TIP3    H220623   6.892   5.313   1.358
 6887TIP3   OH220624   5.640   0.973   0.808
 6887TIP3    H120625   5.570   0.925   0.853
 6887TIP3    H220626   5.682   1.024   0.878
 6888TIP3   OH220627   6.096   6.549   2.967
 6888TIP3    H120628   6.122   6.540   3.059
 6888TIP3    H220629   6.167   6.599   2.927
 6889TIP3   OH220630   3.062   2.883   1.510
 6889TIP3    H120631   2.998   2.812   1.515
 6889TIP3    H220632   3.016   2.960   1.545
 6890TIP3   OH220633   0.937   2.181   2.277
 6890TIP3    H120634   0.943   2.262   2.227
 6890TIP3    H220635   0.877   2.201   2.349
 6891TIP3   OH220636   1.595   0.324   3.655
 6891TIP3    H120637   1.549   0.246   3.686
 6891TIP3    H220638   1.529   0.394   3.657
 6892TIP3   OH220639   1.167   4.815   5.308
 6892TIP3    H120640   1.085   4.799   5.262
 6892TIP3    H220641   1.156   4.770   5.392
 6893TIP3   OH220642   5.904   6.654   3.473
 6893TIP3    H120643   5.985   6.704   3.478
 6893TIP3    H220644   5.839   6.717   3.442
 6894TIP3   OH220645   5.802   6.496   4.041
 6894TIP3    H120646   5.825   6.481   3.949
 6894TIP3    H220647   5.753   6.579   4.040
 6895TIP3   OH220648   4.767   0.753   3.526
 6895TIP3    H120649   4.675   0.731   3.515
 6895TIP3    H220650   4.804   0.679   3.573
 6896TIP3   OH220651   0.282   6.248   4.008
 6896TIP3    H120652   0.234   6.168   4.030
 6896TIP3    H220653   0.262   6.308   4.080
 6897TIP3   OH220654   1.962   3.746   4.880
 6897TIP3    H120655   1.870   3.768   4.863
 6897TIP3    H220656   1.961   3.652   4.899
 6898TIP3   OH220657   4.224   5.735   1.526
 6898TIP3    H120658   4.218   5.770   1.615
 6898TIP3    H220659   4.172   5.655   1.529
 6899TIP3   OH220660   4.185   1.184   1.829
 6899TIP3    H120661   4.253   1.245   1.856
 6899TIP3    H220662   4.164   1.209   1.739
 6900TIP3   OH220663   0.817   0.646   2.158
 6900TIP3    H120664   0.751   0.612   2.218
 6900TIP3    H220665   0.900   0.637   2.205
 6901TIP3   OH220666   6.115   3.318   1.398
 6901TIP3    H120667   6.126   3.291   1.307
 6901TIP3    H220668   6.065   3.400   1.392
 6902TIP3   OH220669   0.568   6.060   0.208
 6902TIP3    H120670   0.643   6.118   0.199
 6902TIP3    H220671   0.571   6.031   0.299
 6903TIP3   OH220672   4.261   3.109   2.551
 6903TIP3    H120673   4.284   3.017   2.562
 6903TIP3    H220674   4.313   3.138   2.476
 6904TIP3   OH220675   3.067   1.064   5.505
 6904TIP3    H120676   3.020   1.037   5.426
 6904TIP3    H220677   2.998   1.093   5.565
 6905TIP3   OH220678   0.896   4.539   4.018
 6905TIP3    H120679   0.947   4.545   4.099
 6905TIP3    H220680   0.872   4.446   4.013
 6906TIP3   OH220681   6.773   5.781   1.255
 6906TIP3    H120682   6.740   5.721   1.188
 6906TIP3    H220683   6.845   5.733   1.297
 6907TIP3   OH220684   2.871   6.271   0.560
 6907TIP3    H120685   2.788   6.296   0.601
 6907TIP3    H220686   2.885   6.338   0.493
 6908TIP3   OH220687   6.621   0.734   3.769
 6908TIP3    H120688   6.661   0.781   3.842
 6908TIP3    H220689   6.657   0.776   3.691
 6909TIP3   OH220690   6.329   4.815   2.928
 6909TIP3    H120691   6.246   4.768   2.921
 6909TIP3    H220692   6.308   4.905   2.903
 6910TIP3   OH220693   6.295   2.650   3.679
 6910TIP3    H120694   6.240   2.713   3.632
 6910TIP3    H220695   6.363   2.626   3.615
 6911TIP3   OH220696   4.957   6.168   5.283
 6911TIP3    H120697   4.872   6.166   5.328
 6911TIP3    H220698   4.935   6.188   5.192
 6912TIP3   OH220699   3.113   3.120   2.697
 6912TIP3    H120700   3.110   3.111   2.792
 6912TIP3    H220701   3.184   3.183   2.682
 6913TIP3   OH220702   6.133   2.823   5.703
 6913TIP3    H120703   6.086   2.864   5.630
 6913TIP3    H220704   6.122   2.729   5.689
 6914TIP3   OH220705   6.124   6.118   0.194
 6914TIP3    H120706   6.063   6.167   0.249
 6914TIP3    H220707   6.187   6.081   0.256
 6915TIP3   OH220708   1.597   1.889   1.846
 6915TIP3    H120709   1.614   1.863   1.937
 6915TIP3    H220710   1.503   1.876   1.834
 6916TIP3   OH220711   1.279   3.509   0.387
 6916TIP3    H120712   1.361   3.534   0.429
 6916TIP3    H220713   1.290   3.536   0.295
 6917TIP3   OH220714   0.230   4.434   2.238
 6917TIP3    H120715   0.173   4.409   2.311
 6917TIP3    H220716   0.227   4.529   2.236
 6918TIP3   OH220717   0.890   0.683   1.749
 6918TIP3    H120718   0.796   0.697   1.735
 6918TIP3    H220719   0.930   0.767   1.724
 6919TIP3   OH220720   0.426   2.189   5.369
 6919TIP3    H120721   0.371   2.253   5.324
 6919TIP3    H220722   0.374   2.109   5.370
 6920TIP3   OH220723   5.561   4.182   0.741
 6920TIP3    H120724   5.476   4.214   0.770
 6920TIP3    H220725   5.613   4.261   0.727
 6921TIP3   OH220726   1.469   2.449   5.593
 6921TIP3    H120727   1.525   2.465   5.669
 6921TIP3    H220728   1.469   2.354   5.581
 6922TIP3   OH220729   1.613   0.874   5.791
 6922TIP3    H120730   1.560   0.814   5.843
 6922TIP3    H220731   1.601   0.959   5.833
 6923TIP3   OH220732   1.433   5.116   4.087
 6923TIP3    H120733   1.427   5.068   4.004
 6923TIP3    H220734   1.524   5.104   4.115
 6924TIP3   OH220735   0.600   4.250   2.833
 6924TIP3    H120736   0.656   4.202   2.773
 6924TIP3    H220737   0.642   4.241   2.918
 6925TIP3   OH220738   2.064   5.112   5.340
 6925TIP3    H120739   2.147   5.068   5.355
 6925TIP3    H220740   2.079   5.165   5.261
 6926TIP3   OH220741   5.313   1.698   5.547
 6926TIP3    H120742   5.258   1.774   5.533
 6926TIP3    H220743   5.395   1.733   5.583
 6927TIP3   OH220744   1.908   0.364   3.698
 6927TIP3    H120745   1.840   0.330   3.756
 6927TIP3    H220746   1.948   0.435   3.748
 6928TIP3   OH220747   1.403   2.066   4.211
 6928TIP3    H120748   1.469   2.133   4.229
 6928TIP3    H220749   1.412   2.003   4.282
 6929TIP3   OH220750   4.562   6.214   1.189
 6929TIP3    H120751   4.545   6.252   1.275
 6929TIP3    H220752   4.638   6.262   1.156
 6930TIP3   OH220753   3.879   0.771   2.158
 6930TIP3    H120754   3.846   0.782   2.069
 6930TIP3    H220755   3.974   0.785   2.150
 6931TIP3   OH220756   4.491   1.165   2.948
 6931TIP3    H120757   4.481   1.131   3.037
 6931TIP3    H220758   4.484   1.260   2.958
 6932TIP3   OH220759   5.116   5.342   2.126
 6932TIP3    H120760   5.044   5.403   2.114
 6932TIP3    H220761   5.185   5.394   2.168
 6933TIP3   OH220762   3.580   2.700   4.055
 6933TIP3    H120763   3.484   2.701   4.047
 6933TIP3    H220764   3.609   2.771   3.997
 6934TIP3   OH220765   3.421   2.262   2.034
 6934TIP3    H120766   3.483   2.327   2.067
 6934TIP3    H220767   3.433   2.186   2.091
 6935TIP3   OH220768   5.595   1.746   4.354
 6935TIP3    H120769   5.519   1.730   4.409
 6935TIP3    H220770   5.639   1.661   4.349
 6936TIP3   OH220771   3.842   4.675   2.961
 6936TIP3    H120772   3.856   4.641   3.050
 6936TIP3    H220773   3.926   4.662   2.917
 6937TIP3   OH220774   5.815   2.794   0.536
 6937TIP3    H120775   5.841   2.757   0.452
 6937TIP3    H220776   5.755   2.865   0.514
 6938TIP3   OH220777   1.860   0.722   5.800
 6938TIP3    H120778   1.929   0.787   5.786
 6938TIP3    H220779   1.782   0.775   5.817
 6939TIP3   OH220780   6.928   1.431   5.745
 6939TIP3    H120781   6.868   1.384   5.688
 6939TIP3    H220782   6.978   1.362   5.789
 6940TIP3   OH220783   5.122   1.167   0.249
 6940TIP3    H120784   5.082   1.222   0.317
 6940TIP3    H220785   5.214   1.193   0.248
 6941TIP3   OH220786   5.875   1.171   3.397
 6941TIP3    H120787   5.962   1.168   3.356
 6941TIP3    H220788   5.882   1.113   3.472
 6942TIP3   OH220789   4.811   6.408   1.858
 6942TIP3    H120790   4.869   6.332   1.863
 6942TIP3    H220791   4.820   6.450   1.944
 6943TIP3   OH220792   1.917   2.278   0.776
 6943TIP3    H120793   1.992   2.288   0.718
 6943TIP3    H220794   1.939   2.331   0.853
 6944TIP3   OH220795   2.993   3.043   3.709
 6944TIP3    H120796   3.025   3.041   3.799
 6944TIP3    H220797   3.025   2.962   3.670
 6945TIP3   OH220798   0.130   5.451   4.722
 6945TIP3    H120799   0.207   5.426   4.774
 6945TIP3    H220800   0.069   5.378   4.735
 6946TIP3   OH220801   0.988   2.972   1.130
 6946TIP3    H120802   0.901   2.953   1.163
 6946TIP3    H220803   1.019   3.045   1.184
 6947TIP3   OH220804   6.920   1.605   4.866
 6947TIP3    H120805   6.922   1.509   4.857
 6947TIP3    H220806   7.011   1.629   4.883
 6948TIP3   OH220807   5.160   0.509   1.957
 6948TIP3    H120808   5.220   0.516   1.883
 6948TIP3    H220809   5.134   0.599   1.976
 6949TIP3   OH220810   3.826   2.297   1.328
 6949TIP3    H120811   3.903   2.302   1.385
 6949TIP3    H220812   3.761   2.352   1.371
 6950TIP3   OH220813   5.281   0.802   0.287
 6950TIP3    H120814   5.208   0.836   0.339
 6950TIP3    H220815   5.287   0.710   0.312
 6951TIP3   OH220816   2.926   0.808   3.936
 6951TIP3    H120817   2.889   0.857   4.010
 6951TIP3    H220818   2.858   0.744   3.914
 6952TIP3   OH220819   4.805   2.363   0.898
 6952TIP3    H120820   4.879   2.391   0.844
 6952TIP3    H220821   4.846   2.332   0.979
 6953TIP3   OH220822   0.890   4.749   5.261
 6953TIP3    H120823   0.893   4.826   5.204
 6953TIP3    H220824   0.799   4.742   5.287
 6954TIP3   OH220825   2.995   6.454   5.450
 6954TIP3    H120826   3.089   6.452   5.431
 6954TIP3    H220827   2.975   6.367   5.485
 6955TIP3   OH220828   6.334   4.733   3.254
 6955TIP3    H120829   6.354   4.773   3.338
 6955TIP3    H220830   6.408   4.674   3.238
 6956TIP3   OH220831   1.153   0.165   5.158
 6956TIP3    H120832   1.238   0.192   5.193
 6956TIP3    H220833   1.120   0.102   5.222
 6957TIP3   OH220834   0.124   0.559   0.271
 6957TIP3    H120835   0.057   0.624   0.292
 6957TIP3    H220836   0.190   0.608   0.222
 6958TIP3   OH220837   6.687   2.006   3.583
 6958TIP3    H120838   6.702   2.098   3.604
 6958TIP3    H220839   6.742   1.958   3.646
 6959TIP3   OH220840   4.307   0.156   5.728
 6959TIP3    H120841   4.292   0.135   5.636
 6959TIP3    H220842   4.220   0.159   5.766
 6960TIP3   OH220843   3.313   6.663   0.120
 6960TIP3    H120844   3.347   6.732   0.064
 6960TIP3    H220845   3.335   6.582   0.073
 6961TIP3   OH220846   1.645   1.202   3.058
 6961TIP3    H120847   1.585   1.150   3.005
 6961TIP3    H220848   1.704   1.243   2.995
 6962TIP3   OH220849   0.386   4.326   1.371
 6962TIP3    H120850   0.407   4.243   1.414
 6962TIP3    H220851   0.293   4.318   1.349
 6963TIP3   OH220852   6.577   1.975   0.076
 6963TIP3    H120853   6.618   1.956  -0.008
 6963TIP3    H220854   6.632   1.931   0.141
 6964TIP3   OH220855   5.647   5.325   3.052
 6964TIP3    H120856   5.650   5.246   2.997
 6964TIP3    H220857   5.565   5.367   3.028
 6965TIP3   OH220858   1.084   0.697   3.710
 6965TIP3    H120859   1.045   0.703   3.798
 6965TIP3    H220860   1.176   0.675   3.726
 6966TIP3   OH220861   1.990   5.647   0.167
 6966TIP3    H120862   1.929   5.599   0.222
 6966TIP3    H220863   2.067   5.661   0.223
 6967TIP3   OH220864   2.790   3.914   3.372
 6967TIP3    H120865   2.728   3.965   3.424
 6967TIP3    H220866   2.846   3.870   3.436
 6968TIP3   OH220867   6.794   1.374   0.769
 6968TIP3    H120868   6.803   1.322   0.848
 6968TIP3    H220869   6.700   1.377   0.753
 6969TIP3   OH220870   1.410   3.601   5.015
 6969TIP3    H120871   1.448   3.596   4.927
 6969TIP3    H220872   1.337   3.663   5.005
 6970TIP3   OH220873   1.064   1.407   4.377
 6970TIP3    H120874   0.979   1.393   4.334
 6970TIP3    H220875   1.043   1.455   4.457
 6971TIP3   OH220876   4.769   4.683   0.302
 6971TIP3    H120877   4.823   4.761   0.312
 6971TIP3    H220878   4.823   4.623   0.250
 6972TIP3   OH220879   6.066   1.111   4.048
 6972TIP3    H120880   6.046   1.170   3.976
 6972TIP3    H220881   5.980   1.085   4.082
 6973TIP3   OH220882   2.926   0.701   5.892
 6973TIP3    H120883   2.986   0.677   5.821
 6973TIP3    H220884   2.868   0.767   5.853
 6974TIP3   OH220885   6.121   1.066   1.562
 6974TIP3    H120886   6.161   1.033   1.643
 6974TIP3    H220887   6.033   1.029   1.562
 6975TIP3   OH220888   1.402   0.645   4.092
 6975TIP3    H120889   1.431   0.716   4.149
 6975TIP3    H220890   1.443   0.664   4.008
 6976TIP3   OH220891   1.510   4.169   1.219
 6976TIP3    H120892   1.581   4.105   1.214
 6976TIP3    H220893   1.511   4.200   1.309
 6977TIP3   OH220894   0.943   3.478   4.642
 6977TIP3    H120895   0.868   3.420   4.650
 6977TIP3    H220896   0.985   3.477   4.728
 6978TIP3   OH220897   2.197   1.825   3.309
 6978TIP3    H120898   2.230   1.902   3.357
 6978TIP3    H220899   2.232   1.750   3.356
 6979TIP3   OH220900   6.185   0.252   3.709
 6979TIP3    H120901   6.245   0.315   3.748
 6979TIP3    H220902   6.099   0.279   3.741
 6980TIP3   OH220903   3.853   2.775   3.102
 6980TIP3    H120904   3.767   2.800   3.136
 6980TIP3    H220905   3.834   2.720   3.026
 6981TIP3   OH220906   2.000   4.173   4.131
 6981TIP3    H120907   1.907   4.195   4.137
 6981TIP3    H220908   2.044   4.237   4.187
 6982TIP3   OH220909   2.960   6.580   2.952
 6982TIP3    H120910   3.012   6.624   2.884
 6982TIP3    H220911   2.963   6.640   3.027
 6983TIP3   OH220912   1.046   3.409   5.796
 6983TIP3    H120913   1.117   3.365   5.749
 6983TIP3    H220914   1.012   3.473   5.733
 6984TIP3   OH220915   3.602   6.233   0.445
 6984TIP3    H120916   3.562   6.166   0.501
 6984TIP3    H220917   3.565   6.217   0.358
 6985TIP3   OH220918   6.915   4.783   1.587
 6985TIP3    H120919   6.914   4.879   1.580
 6985TIP3    H220920   7.003   4.762   1.618
 6986TIP3   OH220921   7.116   3.889   3.124
 6986TIP3    H120922   7.073   3.971   3.150
 6986TIP3    H220923   7.064   3.821   3.165
 6987TIP3   OH220924   2.250   5.649   4.496
 6987TIP3    H120925   2.257   5.717   4.563
 6987TIP3    H220926   2.221   5.571   4.543
 6988TIP3   OH220927   1.719   4.243   1.753
 6988TIP3    H120928   1.804   4.247   1.798
 6988TIP3    H220929   1.727   4.168   1.694
 6989TIP3   OH220930   2.092   5.219   0.188
 6989TIP3    H120931   2.104   5.265   0.105
 6989TIP3    H220932   2.001   5.190   0.187
 6990TIP3   OH220933   0.029   2.590   2.139
 6990TIP3    H120934  -0.038   2.523   2.153
 6990TIP3    H220935   0.016   2.618   2.048
 6991TIP3   OH220936   2.501   0.203   4.010
 6991TIP3    H120937   2.570   0.260   3.976
 6991TIP3    H220938   2.456   0.256   4.076
 6992TIP3   OH220939   5.398   1.590   2.506
 6992TIP3    H120940   5.310   1.607   2.541
 6992TIP3    H220941   5.457   1.638   2.563
 6993TIP3   OH220942   2.445   4.347   4.434
 6993TIP3    H120943   2.381   4.346   4.363
 6993TIP3    H220944   2.517   4.293   4.402
 6994TIP3   OH220945   3.724   1.705   4.197
 6994TIP3    H120946   3.669   1.650   4.142
 6994TIP3    H220947   3.681   1.704   4.282
 6995TIP3   OH220948   4.517   6.376   4.868
 6995TIP3    H120949   4.465   6.399   4.945
 6995TIP3    H220950   4.480   6.429   4.798
 6996TIP3   OH220951   5.393   1.563   3.906
 6996TIP3    H120952   5.381   1.486   3.961
 6996TIP3    H220953   5.363   1.536   3.820
 6997TIP3   OH220954   6.860   0.850   4.744
 6997TIP3    H120955   6.873   0.787   4.673
 6997TIP3    H220956   6.923   0.822   4.811
 6998TIP3   OH220957   7.047   5.391   4.477
 6998TIP3    H120958   7.077   5.310   4.519
 6998TIP3    H220959   6.952   5.380   4.469
 6999TIP3   OH220960   6.066   2.104   5.317
 6999TIP3    H120961   6.103   2.061   5.394
 6999TIP3    H220962   6.015   2.037   5.273
 7000TIP3   OH220963   5.155   1.361   4.546
 7000TIP3    H120964   5.147   1.455   4.559
 7000TIP3    H220965   5.244   1.348   4.513
 7001TIP3   OH220966   5.720   6.188   2.399
 7001TIP3    H120967   5.713   6.171   2.305
 7001TIP3    H220968   5.630   6.187   2.431
 7002TIP3   OH220969   3.673   1.151   3.423
 7002TIP3    H120970   3.696   1.224   3.365
 7002TIP3    H220971   3.697   1.182   3.510
 7003TIP3   OH220972   1.561   2.283   4.271
 7003TIP3    H120973   1.530   2.344   4.204
 7003TIP3    H220974   1.548   2.330   4.354
 7004TIP3   OH220975   2.060   5.147   1.039
 7004TIP3    H120976   1.974   5.170   1.003
 7004TIP3    H220977   2.095   5.229   1.073
 7005TIP3   OH220978   2.352   6.565   3.273
 7005TIP3    H120979   2.276   6.612   3.308
 7005TIP3    H220980   2.425   6.591   3.330
 7006TIP3   OH220981   1.972   4.442   0.234
 7006TIP3    H120982   1.999   4.509   0.297
 7006TIP3    H220983   2.013   4.361   0.266
 7007TIP3   OH220984   7.032   6.418   5.276
 7007TIP3    H120985   7.037   6.325   5.255
 7007TIP3    H220986   6.988   6.421   5.361
 7008TIP3   OH220987   3.325   2.236   3.092
 7008TIP3    H120988   3.368   2.260   3.174
 7008TIP3    H220989   3.291   2.318   3.057
 7009TIP3   OH220990   3.939   6.524   3.397
 7009TIP3    H120991   3.995   6.526   3.474
 7009TIP3    H220992   3.983   6.464   3.336
 7010TIP3   OH220993   1.650   3.064   4.674
 7010TIP3    H120994   1.658   3.078   4.579
 7010TIP3    H220995   1.653   3.152   4.711
 7011TIP3   OH220996   6.747   3.346   2.678
 7011TIP3    H120997   6.735   3.440   2.688
 7011TIP3    H220998   6.756   3.313   2.767
 7012TIP3   OH220999   1.177   5.839   5.198
 7012TIP3    H121000   1.115   5.766   5.203
 7012TIP3    H221001   1.251   5.804   5.148
 7013TIP3   OH221002   2.944   4.994   0.756
 7013TIP3    H121003   2.940   5.014   0.662
 7013TIP3    H221004   2.858   5.020   0.789
 7014TIP3   OH221005   0.533   1.184   3.320
 7014TIP3    H121006   0.440   1.178   3.342
 7014TIP3    H221007   0.543   1.269   3.278
 7015TIP3   OH221008   3.577   3.113   3.305
 7015TIP3    H121009   3.570   3.071   3.391
 7015TIP3    H221010   3.579   3.040   3.243
 7016TIP3   OH221011   6.127   6.590   3.706
 7016TIP3    H121012   6.086   6.625   3.786
 7016TIP3    H221013   6.112   6.658   3.640
 7017TIP3   OH221014   5.160   0.964   0.057
 7017TIP3    H121015   5.122   1.018   0.126
 7017TIP3    H221016   5.249   0.997   0.046
 7018TIP3   OH221017   2.567   4.503   4.622
 7018TIP3    H121018   2.498   4.504   4.688
 7018TIP3    H221019   2.532   4.447   4.552
 7019TIP3   OH221020   1.280   0.662   1.108
 7019TIP3    H121021   1.230   0.673   1.189
 7019TIP3    H221022   1.238   0.722   1.046
 7020TIP3   OH221023   3.971   5.246   0.823
 7020TIP3    H121024   4.012   5.318   0.871
 7020TIP3    H221025   4.044   5.191   0.795
 7021TIP3   OH221026   6.837   5.375   2.122
 7021TIP3    H121027   6.809   5.378   2.213
 7021TIP3    H221028   6.764   5.335   2.075
 7022TIP3   OH221029   4.278   4.375   3.090
 7022TIP3    H121030   4.368   4.371   3.057
 7022TIP3    H221031   4.269   4.462   3.127
 7023TIP3   OH221032   1.328   4.903   0.101
 7023TIP3    H121033   1.317   4.809   0.110
 7023TIP3    H221034   1.333   4.917   0.006
 7024TIP3   OH221035   6.473   1.904   3.458
 7024TIP3    H121036   6.435   1.858   3.533
 7024TIP3    H221037   6.555   1.940   3.491
 7025TIP3   OH221038   3.302   1.363   2.948
 7025TIP3    H121039   3.207   1.375   2.943
 7025TIP3    H221040   3.314   1.268   2.946
 7026TIP3   OH221041   4.162   3.587   3.685
 7026TIP3    H121042   4.089   3.574   3.744
 7026TIP3    H221043   4.162   3.682   3.668
 7027TIP3   OH221044   2.194   5.628   2.054
 7027TIP3    H121045   2.102   5.602   2.059
 7027TIP3    H221046   2.214   5.662   2.141
 7028TIP3   OH221047   2.739   0.682   3.328
 7028TIP3    H121048   2.779   0.769   3.327
 7028TIP3    H221049   2.798   0.628   3.277
 7029TIP3   OH221050   2.914   5.814   5.556
 7029TIP3    H121051   2.848   5.881   5.537
 7029TIP3    H221052   2.997   5.853   5.526
 7030TIP3   OH221053   6.233   1.801   4.019
 7030TIP3    H121054   6.255   1.892   4.040
 7030TIP3    H221055   6.198   1.766   4.101
 7031TIP3   OH221056   5.550   6.112   1.594
 7031TIP3    H121057   5.512   6.182   1.648
 7031TIP3    H221058   5.613   6.158   1.538
 7032TIP3   OH221059   0.739   4.259   1.668
 7032TIP3    H121060   0.714   4.345   1.635
 7032TIP3    H221061   0.658   4.223   1.704
 7033TIP3   OH221062   2.596   4.496   2.489
 7033TIP3    H121063   2.553   4.479   2.573
 7033TIP3    H221064   2.539   4.455   2.424
 7034TIP3   OH221065   1.907   6.596   2.822
 7034TIP3    H121066   1.989   6.601   2.871
 7034TIP3    H221067   1.932   6.615   2.732
 7035TIP3   OH221068   6.770   4.453   4.356
 7035TIP3    H121069   6.802   4.458   4.267
 7035TIP3    H221070   6.819   4.520   4.404
 7036TIP3   OH221071   2.668   1.154   5.178
 7036TIP3    H121072   2.643   1.077   5.230
 7036TIP3    H221073   2.634   1.229   5.227
 7037TIP3   OH221074   4.319   4.561   1.000
 7037TIP3    H121075   4.271   4.597   1.075
 7037TIP3    H221076   4.384   4.502   1.039
 7038TIP3   OH221077   3.227   2.525   5.228
 7038TIP3    H121078   3.149   2.490   5.184
 7038TIP3    H221079   3.193   2.593   5.285
 7039TIP3   OH221080   0.780   4.606   5.776
 7039TIP3    H121081   0.852   4.666   5.797
 7039TIP3    H221082   0.780   4.602   5.680
 7040TIP3   OH221083   3.050   6.662   4.624
 7040TIP3    H121084   2.996   6.583   4.627
 7040TIP3    H221085   3.042   6.693   4.533
 7041TIP3   OH221086   2.808   6.623   3.887
 7041TIP3    H121087   2.737   6.576   3.931
 7041TIP3    H221088   2.854   6.556   3.836
 7042TIP3   OH221089   0.356   1.283   4.783
 7042TIP3    H121090   0.282   1.308   4.838
 7042TIP3    H221091   0.327   1.203   4.739
 7043TIP3   OH221092   5.152   4.819   5.834
 7043TIP3    H121093   5.057   4.812   5.824
 7043TIP3    H221094   5.169   4.913   5.834
 7044TIP3   OH221095   6.177   5.006   5.205
 7044TIP3    H121096   6.106   5.055   5.247
 7044TIP3    H221097   6.171   5.029   5.112
 7045TIP3   OH221098   4.774   1.783   2.747
 7045TIP3    H121099   4.753   1.869   2.709
 7045TIP3    H221100   4.713   1.773   2.820
 7046TIP3   OH221101   2.390   1.446   5.790
 7046TIP3    H121102   2.354   1.481   5.872
 7046TIP3    H221103   2.375   1.516   5.726
 7047TIP3   OH221104   5.613   0.448   1.482
 7047TIP3    H121105   5.578   0.535   1.501
 7047TIP3    H221106   5.617   0.404   1.566
 7048TIP3   OH221107   2.593   2.500   2.427
 7048TIP3    H121108   2.579   2.410   2.398
 7048TIP3    H221109   2.688   2.510   2.430
 7049TIP3   OH221110   5.504   3.737   5.565
 7049TIP3    H121111   5.479   3.665   5.622
 7049TIP3    H221112   5.449   3.810   5.593
 7050TIP3   OH221113   7.065   5.597   3.437
 7050TIP3    H121114   7.067   5.567   3.528
 7050TIP3    H221115   7.077   5.692   3.443
 7051TIP3   OH221116   4.656   4.882   3.877
 7051TIP3    H121117   4.684   4.895   3.967
 7051TIP3    H221118   4.615   4.796   3.876
 7052TIP3   OH221119   0.616   1.268   2.986
 7052TIP3    H121120   0.687   1.210   3.010
 7052TIP3    H221121   0.652   1.321   2.914
 7053TIP3   OH221122   2.289   6.365   1.243
 7053TIP3    H121123   2.216   6.396   1.190
 7053TIP3    H221124   2.267   6.392   1.332
 7054TIP3   OH221125   5.622   5.459   2.621
 7054TIP3    H121126   5.662   5.390   2.674
 7054TIP3    H221127   5.531   5.461   2.649
 7055TIP3   OH221128   6.499   5.715   1.664
 7055TIP3    H121129   6.487   5.806   1.688
 7055TIP3    H221130   6.481   5.712   1.570
 7056TIP3   OH221131   0.160   5.235   2.722
 7056TIP3    H121132   0.230   5.210   2.661
 7056TIP3    H221133   0.155   5.330   2.715
 7057TIP3   OH221134   6.066   4.477   1.315
 7057TIP3    H121135   6.025   4.516   1.392
 7057TIP3    H221136   6.147   4.437   1.348
 7058TIP3   OH221137   6.161   1.321   1.464
 7058TIP3    H121138   6.144   1.235   1.502
 7058TIP3    H221139   6.235   1.306   1.404
 7059TIP3   OH221140   6.221   0.697   5.390
 7059TIP3    H121141   6.237   0.660   5.303
 7059TIP3    H221142   6.279   0.773   5.395
 7060TIP3   OH221143   4.145   2.402   4.895
 7060TIP3    H121144   4.233   2.376   4.920
 7060TIP3    H221145   4.087   2.339   4.939
 7061TIP3   OH221146   2.502   0.700   2.243
 7061TIP3    H121147   2.481   0.609   2.264
 7061TIP3    H221148   2.531   0.698   2.152
 7062TIP3   OH221149   0.166   2.738   5.535
 7062TIP3    H121150   0.243   2.752   5.480
 7062TIP3    H221151   0.141   2.647   5.519
 7063TIP3   OH221152   3.054   6.514   1.835
 7063TIP3    H121153   2.998   6.574   1.885
 7063TIP3    H221154   2.996   6.441   1.813
 7064TIP3   OH221155   6.225   4.005   2.797
 7064TIP3    H121156   6.162   4.073   2.774
 7064TIP3    H221157   6.179   3.923   2.779
 7065TIP3   OH221158   5.049   4.941   1.598
 7065TIP3    H121159   5.079   4.851   1.587
 7065TIP3    H221160   4.954   4.936   1.595
 7066TIP3   OH221161   3.351   1.312   0.993
 7066TIP3    H121162   3.400   1.236   1.024
 7066TIP3    H221163   3.385   1.385   1.047
 7067TIP3   OH221164   1.595   6.015   0.488
 7067TIP3    H121165   1.569   6.058   0.406
 7067TIP3    H221166   1.688   5.996   0.476
 7068TIP3   OH221167   0.573   4.216   2.509
 7068TIP3    H121168   0.581   4.301   2.553
 7068TIP3    H221169   0.609   4.231   2.422
 7069TIP3   OH221170   1.736   4.263   4.133
 7069TIP3    H121171   1.686   4.221   4.063
 7069TIP3    H221172   1.748   4.353   4.103
 7070TIP3   OH221173   3.482   2.117   1.736
 7070TIP3    H121174   3.442   2.178   1.797
 7070TIP3    H221175   3.566   2.157   1.713
 7071TIP3   OH221176   6.515   4.847   1.469
 7071TIP3    H121177   6.531   4.772   1.526
 7071TIP3    H221178   6.438   4.823   1.418
 7072TIP3   OH221179   2.651   2.118   1.426
 7072TIP3    H121180   2.645   2.047   1.362
 7072TIP3    H221181   2.679   2.075   1.507
 7073TIP3   OH221182   1.220   3.585   2.192
 7073TIP3    H121183   1.239   3.618   2.280
 7073TIP3    H221184   1.293   3.616   2.138
 7074TIP3   OH221185   0.035   0.025   3.820
 7074TIP3    H121186   0.129   0.042   3.817
 7074TIP3    H221187  -0.002   0.103   3.862
 7075TIP3   OH221188   0.182   3.502   1.334
 7075TIP3    H121189   0.126   3.426   1.319
 7075TIP3    H221190   0.139   3.573   1.285
 7076TIP3   OH221191   6.840   4.524   1.804
 7076TIP3    H121192   6.911   4.587   1.788
 7076TIP3    H221193   6.762   4.578   1.813
 7077TIP3   OH221194   2.116   3.642   5.422
 7077TIP3    H121195   2.096   3.673   5.334
 7077TIP3    H221196   2.166   3.562   5.409
 7078TIP3   OH221197   4.646   4.303   1.396
 7078TIP3    H121198   4.682   4.270   1.479
 7078TIP3    H221199   4.612   4.226   1.352
 7079TIP3   OH221200   7.235   5.189   4.308
 7079TIP3    H121201   7.205   5.171   4.219
 7079TIP3    H221202   7.155   5.211   4.356
 7080TIP3   OH221203   3.981   2.523   0.377
 7080TIP3    H121204   3.967   2.597   0.319
 7080TIP3    H221205   3.984   2.561   0.465
 7081TIP3   OH221206   3.772   0.351   0.923
 7081TIP3    H121207   3.707   0.406   0.969
 7081TIP3    H221208   3.856   0.377   0.961
 7082TIP3   OH221209   4.490   1.540   1.349
 7082TIP3    H121210   4.531   1.462   1.386
 7082TIP3    H221211   4.432   1.506   1.281
 7083TIP3   OH221212   7.184   4.111   3.524
 7083TIP3    H121213   7.205   4.092   3.616
 7083TIP3    H221214   7.268   4.104   3.479
 7084TIP3   OH221215   3.551   1.572   4.023
 7084TIP3    H121216   3.630   1.529   3.991
 7084TIP3    H221217   3.503   1.596   3.944
 7085TIP3   OH221218   5.435   6.204   3.986
 7085TIP3    H121219   5.427   6.291   4.026
 7085TIP3    H221220   5.345   6.181   3.960
 7086TIP3   OH221221   2.113   2.723   4.484
 7086TIP3    H121222   2.173   2.660   4.524
 7086TIP3    H221223   2.071   2.767   4.558
 7087TIP3   OH221224   2.250   1.425   3.750
 7087TIP3    H121225   2.305   1.476   3.691
 7087TIP3    H221226   2.232   1.344   3.701
 7088TIP3   OH221227   3.694   2.410   3.109
 7088TIP3    H121228   3.783   2.439   3.086
 7088TIP3    H221229   3.707   2.327   3.154
 7089TIP3   OH221230   5.636   4.550   4.776
 7089TIP3    H121231   5.690   4.472   4.791
 7089TIP3    H221232   5.633   4.559   4.681
 7090TIP3   OH221233   1.417   4.485   4.196
 7090TIP3    H121234   1.360   4.418   4.160
 7090TIP3    H221235   1.444   4.537   4.120
 7091TIP3   OH221236   5.135   4.623   0.852
 7091TIP3    H121237   5.136   4.718   0.862
 7091TIP3    H221238   5.222   4.595   0.881
 7092TIP3   OH221239   2.133   1.027   1.167
 7092TIP3    H121240   2.059   1.015   1.108
 7092TIP3    H221241   2.128   1.120   1.193
 7093TIP3   OH221242   1.973   3.807   3.347
 7093TIP3    H121243   1.919   3.825   3.424
 7093TIP3    H221244   1.960   3.714   3.330
 7094TIP3   OH221245   0.998   2.442   1.857
 7094TIP3    H121246   1.093   2.439   1.850
 7094TIP3    H221247   0.971   2.515   1.802
 7095TIP3   OH221248   4.047   1.207   0.548
 7095TIP3    H121249   3.999   1.288   0.565
 7095TIP3    H221250   4.047   1.199   0.452
 7096TIP3   OH221251   6.440   2.937   0.672
 7096TIP3    H121252   6.497   3.014   0.677
 7096TIP3    H221253   6.444   2.910   0.580
 7097TIP3   OH221254   5.448   3.543   5.759
 7097TIP3    H121255   5.445   3.622   5.813
 7097TIP3    H221256   5.540   3.517   5.759
 7098TIP3   OH221257   1.659   2.724   2.395
 7098TIP3    H121258   1.742   2.685   2.425
 7098TIP3    H221259   1.594   2.655   2.408
 7099TIP3   OH221260   6.922   0.269   3.981
 7099TIP3    H121261   6.891   0.301   3.896
 7099TIP3    H221262   6.956   0.181   3.962
 7100TIP3   OH221263   5.974   4.682   5.636
 7100TIP3    H121264   6.047   4.742   5.620
 7100TIP3    H221265   5.897   4.729   5.604
 7101TIP3   OH221266   0.280   6.047   4.264
 7101TIP3    H121267   0.236   6.017   4.344
 7101TIP3    H221268   0.245   6.135   4.248
 7102TIP3   OH221269   4.855   5.038   0.486
 7102TIP3    H121270   4.882   4.995   0.405
 7102TIP3    H221271   4.812   4.968   0.536
 7103TIP3   OH221272   1.539   2.164   1.527
 7103TIP3    H121273   1.458   2.124   1.559
 7103TIP3    H221274   1.605   2.137   1.591
 7104TIP3   OH221275   0.807   0.365   2.523
 7104TIP3    H121276   0.864   0.429   2.565
 7104TIP3    H221277   0.839   0.280   2.553
 7105TIP3   OH221278   4.200   4.671   5.869
 7105TIP3    H121279   4.162   4.686   5.956
 7105TIP3    H221280   4.195   4.576   5.857
 7106TIP3   OH221281   6.313   4.646   4.675
 7106TIP3    H121282   6.230   4.680   4.642
 7106TIP3    H221283   6.319   4.680   4.764
 7107TIP3   OH221284   0.673   3.399   1.593
 7107TIP3    H121285   0.669   3.361   1.681
 7107TIP3    H221286   0.709   3.330   1.538
 7108TIP3   OH221287   7.172   0.977   4.453
 7108TIP3    H121288   7.224   1.046   4.412
 7108TIP3    H221289   7.176   0.904   4.392
 7109TIP3   OH221290   6.229   3.646   1.656
 7109TIP3    H121291   6.256   3.570   1.606
 7109TIP3    H221292   6.309   3.697   1.669
 7110TIP3   OH221293   1.568   0.394   3.171
 7110TIP3    H121294   1.656   0.356   3.167
 7110TIP3    H221295   1.563   0.435   3.257
 7111TIP3   OH221296   3.638   2.589   1.950
 7111TIP3    H121297   3.587   2.663   1.984
 7111TIP3    H221298   3.717   2.588   2.004
 7112TIP3   OH221299   4.774   4.994   2.723
 7112TIP3    H121300   4.754   5.032   2.638
 7112TIP3    H221301   4.736   5.055   2.786
 7113TIP3   OH221302   1.617   4.214   4.394
 7113TIP3    H121303   1.704   4.204   4.432
 7113TIP3    H221304   1.633   4.223   4.300
 7114TIP3   OH221305   0.730   4.020  -0.017
 7114TIP3    H121306   0.729   4.058   0.071
 7114TIP3    H221307   0.751   4.093  -0.074
 7115TIP3   OH221308   0.619   6.828   3.027
 7115TIP3    H121309   0.655   6.761   3.085
 7115TIP3    H221310   0.665   6.816   2.944
 7116TIP3   OH221311   4.314   6.178   1.792
 7116TIP3    H121312   4.353   6.128   1.721
 7116TIP3    H221313   4.301   6.266   1.757
 7117TIP3   OH221314   6.007   2.555   4.058
 7117TIP3    H121315   5.964   2.530   4.140
 7117TIP3    H221316   5.969   2.496   3.992
 7118TIP3   OH221317   4.663   4.375   4.704
 7118TIP3    H121318   4.686   4.292   4.746
 7118TIP3    H221319   4.624   4.427   4.774
 7119TIP3   OH221320   0.302   1.891   2.033
 7119TIP3    H121321   0.390   1.854   2.041
 7119TIP3    H221322   0.255   1.829   1.977
 7120TIP3   OH221323   1.114   4.954   1.893
 7120TIP3    H121324   1.188   4.965   1.954
 7120TIP3    H221325   1.059   5.031   1.907
 7121TIP3   OH221326   6.462   1.763   1.964
 7121TIP3    H121327   6.480   1.671   1.945
 7121TIP3    H221328   6.546   1.799   1.991
 7122TIP3   OH221329   5.075   5.707   4.604
 7122TIP3    H121330   5.020   5.786   4.597
 7122TIP3    H221331   5.146   5.733   4.663
 7123TIP3   OH221332   2.801   1.722   3.315
 7123TIP3    H121333   2.772   1.677   3.236
 7123TIP3    H221334   2.824   1.651   3.376
 7124TIP3   OH221335   4.884   0.449   2.822
 7124TIP3    H121336   4.816   0.382   2.816
 7124TIP3    H221337   4.960   0.403   2.858
 7125TIP3   OH221338   3.454   1.756   0.202
 7125TIP3    H121339   3.511   1.802   0.263
 7125TIP3    H221340   3.414   1.686   0.254
 7126TIP3   OH221341   1.846   2.998   5.771
 7126TIP3    H121342   1.865   2.910   5.738
 7126TIP3    H221343   1.928   3.046   5.759
 7127TIP3   OH221344   4.297   4.705   4.320
 7127TIP3    H121345   4.360   4.643   4.357
 7127TIP3    H221346   4.211   4.664   4.334
 7128TIP3   OH221347   0.940   5.189   2.433
 7128TIP3    H121348   0.978   5.264   2.387
 7128TIP3    H221349   0.904   5.134   2.364
 7129TIP3   OH221350   0.937   6.446   2.011
 7129TIP3    H121351   1.014   6.501   2.028
 7129TIP3    H221352   0.862   6.504   2.029
 7130TIP3   OH221353   7.177   0.143   3.527
 7130TIP3    H121354   7.184   0.126   3.433
 7130TIP3    H221355   7.083   0.156   3.542
 7131TIP3   OH221356   3.241   4.699   2.159
 7131TIP3    H121357   3.246   4.629   2.224
 7131TIP3    H221358   3.158   4.685   2.114
 7132TIP3   OH221359   0.982   2.595   0.590
 7132TIP3    H121360   0.887   2.589   0.586
 7132TIP3    H221361   1.006   2.553   0.673
 7133TIP3   OH221362   2.298   4.914   1.353
 7133TIP3    H121363   2.292   4.828   1.393
 7133TIP3    H221364   2.391   4.926   1.333
 7134TIP3   OH221365   3.968   3.923   1.000
 7134TIP3    H121366   3.982   3.941   0.907
 7134TIP3    H221367   4.055   3.901   1.033
 7135TIP3   OH221368   2.926   1.510   3.775
 7135TIP3    H121369   2.931   1.468   3.861
 7135TIP3    H221370   2.940   1.439   3.712
 7136TIP3   OH221371   0.038   5.654   5.691
 7136TIP3    H121372  -0.035   5.602   5.725
 7136TIP3    H221373   0.063   5.710   5.764
 7137TIP3   OH221374   2.714   2.050   3.978
 7137TIP3    H121375   2.782   1.987   3.955
 7137TIP3    H221376   2.694   2.031   4.069
 7138TIP3   OH221377   2.874   1.632   0.935
 7138TIP3    H121378   2.889   1.538   0.942
 7138TIP3    H221379   2.842   1.644   0.845
 7139TIP3   OH221380   0.941   0.900   4.304
 7139TIP3    H121381   0.999   0.920   4.230
 7139TIP3    H221382   0.853   0.898   4.265
 7140TIP3   OH221383   5.226   0.868   1.449
 7140TIP3    H121384   5.164   0.927   1.492
 7140TIP3    H221385   5.310   0.890   1.488
 7141TIP3   OH221386   3.906   5.082   3.851
 7141TIP3    H121387   3.938   5.139   3.920
 7141TIP3    H221388   3.960   5.104   3.775
 7142TIP3   OH221389   2.910   5.574   4.610
 7142TIP3    H121390   2.985   5.518   4.587
 7142TIP3    H221391   2.837   5.513   4.622
 7143TIP3   OH221392   2.949   3.629   5.295
 7143TIP3    H121393   2.873   3.684   5.281
 7143TIP3    H221394   2.989   3.620   5.208
 7144TIP3   OH221395   0.705   0.936   4.754
 7144TIP3    H121396   0.646   1.000   4.794
 7144TIP3    H221397   0.752   0.986   4.687
 7145TIP3   OH221398   6.328   0.386   0.054
 7145TIP3    H121399   6.292   0.405  -0.033
 7145TIP3    H221400   6.421   0.407   0.045
 7146TIP3   OH221401   6.507   1.041   2.921
 7146TIP3    H121402   6.436   1.105   2.910
 7146TIP3    H221403   6.564   1.079   2.987
 7147TIP3   OH221404   6.855   2.812   3.110
 7147TIP3    H121405   6.917   2.788   3.041
 7147TIP3    H221406   6.815   2.893   3.077
 7148TIP3   OH221407   0.688   5.228   0.496
 7148TIP3    H121408   0.683   5.320   0.522
 7148TIP3    H221409   0.782   5.211   0.486
 7149TIP3   OH221410   2.140   0.681   0.467
 7149TIP3    H121411   2.056   0.692   0.511
 7149TIP3    H221412   2.125   0.714   0.379
 7150TIP3   OH221413   4.169   4.944   4.366
 7150TIP3    H121414   4.226   4.874   4.333
 7150TIP3    H221415   4.093   4.942   4.309
 7151TIP3   OH221416   6.843   6.101   3.724
 7151TIP3    H121417   6.843   6.006   3.713
 7151TIP3    H221418   6.773   6.132   3.666
 7152TIP3   OH221419   1.214   1.845   0.710
 7152TIP3    H121420   1.199   1.930   0.752
 7152TIP3    H221421   1.180   1.856   0.621
 7153TIP3   OH221422   6.314   0.775   0.818
 7153TIP3    H121423   6.298   0.693   0.866
 7153TIP3    H221424   6.408   0.790   0.829
 7154TIP3   OH221425   6.583   1.519   2.431
 7154TIP3    H121426   6.653   1.493   2.491
 7154TIP3    H221427   6.519   1.448   2.435
 7155TIP3   OH221428   3.514   6.680   0.317
 7155TIP3    H121429   3.433   6.700   0.269
 7155TIP3    H221430   3.484   6.663   0.407
 7156TIP3   OH221431   1.365   0.732   4.775
 7156TIP3    H121432   1.456   0.724   4.748
 7156TIP3    H221433   1.344   0.824   4.761
 7157TIP3   OH221434   6.516   2.829   0.436
 7157TIP3    H121435   6.475   2.749   0.403
 7157TIP3    H221436   6.590   2.844   0.377
 7158TIP3   OH221437   4.749   4.739   1.049
 7158TIP3    H121438   4.744   4.655   1.003
 7158TIP3    H221439   4.834   4.737   1.093
 7159TIP3   OH221440   1.525   6.503   1.317
 7159TIP3    H121441   1.469   6.550   1.255
 7159TIP3    H221442   1.554   6.426   1.268
 7160TIP3   OH221443   0.391   5.201   2.524
 7160TIP3    H121444   0.461   5.142   2.554
 7160TIP3    H221445   0.431   5.253   2.454
 7161TIP3   OH221446   3.539   4.615   1.756
 7161TIP3    H121447   3.562   4.707   1.765
 7161TIP3    H221448   3.457   4.604   1.804
 7162TIP3   OH221449   4.817   6.088   1.737
 7162TIP3    H121450   4.877   6.124   1.803
 7162TIP3    H221451   4.855   6.117   1.653
 7163TIP3   OH221452   6.654   2.876   1.781
 7163TIP3    H121453   6.721   2.853   1.845
 7163TIP3    H221454   6.679   2.963   1.750
 7164TIP3   OH221455   6.917   1.347   4.821
 7164TIP3    H121456   6.900   1.294   4.899
 7164TIP3    H221457   6.999   1.313   4.785
 7165TIP3   OH221458   6.946   1.154   5.343
 7165TIP3    H121459   6.967   1.187   5.256
 7165TIP3    H221460   6.899   1.072   5.327
 7166TIP3   OH221461   3.778   3.934   3.724
 7166TIP3    H121462   3.728   4.012   3.750
 7166TIP3    H221463   3.857   3.969   3.683
 7167TIP3   OH221464   0.398   6.423   1.524
 7167TIP3    H121465   0.410   6.337   1.483
 7167TIP3    H221466   0.410   6.485   1.452
 7168TIP3   OH221467   1.578   1.432   5.565
 7168TIP3    H121468   1.588   1.482   5.646
 7168TIP3    H221469   1.665   1.430   5.526
 7169TIP3   OH221470   5.695   1.497   4.262
 7169TIP3    H121471   5.726   1.412   4.293
 7169TIP3    H221472   5.757   1.521   4.193
 7170TIP3   OH221473   1.394   1.590   2.437
 7170TIP3    H121474   1.316   1.538   2.458
 7170TIP3    H221475   1.379   1.673   2.481
 7171TIP3   OH221476   1.065   0.186   3.084
 7171TIP3    H121477   1.072   0.185   2.989
 7171TIP3    H221478   1.144   0.143   3.115
 7172TIP3   OH221479   6.703   4.663   4.615
 7172TIP3    H121480   6.622   4.614   4.600
 7172TIP3    H221481   6.690   4.707   4.699
 7173TIP3   OH221482   4.282   3.273   5.273
 7173TIP3    H121483   4.272   3.197   5.331
 7173TIP3    H221484   4.326   3.338   5.327
 7174TIP3   OH221485   3.973   4.375   3.352
 7174TIP3    H121486   4.066   4.353   3.346
 7174TIP3    H221487   3.933   4.300   3.395
 7175TIP3   OH221488   2.525   2.399   0.264
 7175TIP3    H121489   2.609   2.360   0.240
 7175TIP3    H221490   2.477   2.329   0.308
 7176TIP3   OH221491   7.180   2.352   5.172
 7176TIP3    H121492   7.169   2.418   5.104
 7176TIP3    H221493   7.163   2.269   5.128
 7177TIP3   OH221494   4.492   0.751   5.561
 7177TIP3    H121495   4.442   0.823   5.599
 7177TIP3    H221496   4.579   0.787   5.544
 7178TIP3   OH221497   3.451   0.577   3.587
 7178TIP3    H121498   3.400   0.658   3.595
 7178TIP3    H221499   3.489   0.582   3.500
 7179TIP3   OH221500   1.409   0.115   3.130
 7179TIP3    H121501   1.448   0.195   3.165
 7179TIP3    H221502   1.353   0.145   3.058
 7180TIP3   OH221503   1.945   1.223   1.360
 7180TIP3    H121504   1.886   1.295   1.379
 7180TIP3    H221505   1.966   1.186   1.446
 7181TIP3   OH221506   6.800   5.822   3.676
 7181TIP3    H121507   6.770   5.790   3.761
 7181TIP3    H221508   6.894   5.806   3.675
 7182TIP3   OH221509   1.258   3.206   3.174
 7182TIP3    H121510   1.211   3.288   3.190
 7182TIP3    H221511   1.228   3.177   3.089
 7183TIP3   OH221512   0.555   1.814   2.353
 7183TIP3    H121513   0.601   1.746   2.403
 7183TIP3    H221514   0.554   1.780   2.263
 7184TIP3   OH221515   1.920   3.704   5.172
 7184TIP3    H121516   1.994   3.717   5.112
 7184TIP3    H221517   1.927   3.613   5.199
 7185TIP3   OH221518   5.217   6.169   4.508
 7185TIP3    H121519   5.201   6.260   4.481
 7185TIP3    H221520   5.210   6.119   4.426
 7186TIP3   OH221521   0.393   2.880   5.452
 7186TIP3    H121522   0.459   2.879   5.521
 7186TIP3    H221523   0.404   2.965   5.409
 7187TIP3   OH221524   4.857   2.081   2.040
 7187TIP3    H121525   4.943   2.071   1.998
 7187TIP3    H221526   4.848   2.176   2.053
 7188TIP3   OH221527   5.682   1.401   0.127
 7188TIP3    H121528   5.699   1.487   0.165
 7188TIP3    H221529   5.610   1.366   0.178
 7189TIP3   OH221530   7.187   5.431   2.293
 7189TIP3    H121531   7.158   5.366   2.357
 7189TIP3    H221532   7.160   5.396   2.208
 7190TIP3   OH221533   4.933   6.479   1.629
 7190TIP3    H121534   4.857   6.525   1.593
 7190TIP3    H221535   4.901   6.442   1.711
 7191TIP3   OH221536   2.259   3.115   3.587
 7191TIP3    H121537   2.325   3.184   3.586
 7191TIP3    H221538   2.235   3.106   3.679
 7192TIP3   OH221539   1.274   6.751   3.644
 7192TIP3    H121540   1.355   6.799   3.663
 7192TIP3    H221541   1.295   6.700   3.566
 7193TIP3   OH221542   3.434   4.544   0.210
 7193TIP3    H121543   3.521   4.584   0.215
 7193TIP3    H221544   3.450   4.456   0.177
 7194TIP3   OH221545   3.819   5.081   0.984
 7194TIP3    H121546   3.902   5.056   1.025
 7194TIP3    H221547   3.846   5.134   0.908
 7195TIP3   OH221548   2.095   4.590   4.672
 7195TIP3    H121549   2.145   4.541   4.737
 7195TIP3    H221550   2.009   4.605   4.713
 7196TIP3   OH221551   5.413   6.774   5.401
 7196TIP3    H121552   5.347   6.750   5.337
 7196TIP3    H221553   5.493   6.728   5.373
 7197TIP3   OH221554   5.501   5.351   3.883
 7197TIP3    H121555   5.429   5.409   3.858
 7197TIP3    H221556   5.564   5.359   3.811
 7198TIP3   OH221557   5.299   6.383   5.862
 7198TIP3    H121558   5.345   6.393   5.779
 7198TIP3    H221559   5.368   6.375   5.928
 7199TIP3   OH221560   3.390   3.713   4.560
 7199TIP3    H121561   3.364   3.721   4.652
 7199TIP3    H221562   3.308   3.706   4.512
 7200TIP3   OH221563   6.702   5.542   1.769
 7200TIP3    H121564   6.632   5.600   1.740
 7200TIP3    H221565   6.710   5.477   1.699
 7201TIP3   OH221566   5.745   1.346   2.771
 7201TIP3    H121567   5.727   1.439   2.783
 7201TIP3    H221568   5.661   1.308   2.746
 7202TIP3   OH221569   0.921   4.655  -0.032
 7202TIP3    H121570   0.888   4.710   0.039
 7202TIP3    H221571   1.000   4.614   0.004
 7203TIP3   OH221572   6.957   2.243   0.104
 7203TIP3    H121573   6.908   2.256   0.023
 7203TIP3    H221574   7.047   2.229   0.076
 7204TIP3   OH221575   1.822   2.751   5.067
 7204TIP3    H121576   1.889   2.803   5.113
 7204TIP3    H221577   1.825   2.784   4.977
 7205TIP3   OH221578   2.308   0.318   4.970
 7205TIP3    H121579   2.281   0.285   5.055
 7205TIP3    H221580   2.251   0.394   4.954
 7206TIP3   OH221581   0.954   2.175   5.395
 7206TIP3    H121582   0.989   2.164   5.306
 7206TIP3    H221583   0.872   2.223   5.382
 7207TIP3   OH221584   4.368   3.860   0.670
 7207TIP3    H121585   4.378   3.951   0.698
 7207TIP3    H221586   4.381   3.862   0.575
 7208TIP3   OH221587   2.075   5.472   3.485
 7208TIP3    H121588   2.003   5.418   3.453
 7208TIP3    H221589   2.063   5.475   3.580
 7209TIP3   OH221590   3.236   1.388   4.600
 7209TIP3    H121591   3.263   1.459   4.542
 7209TIP3    H221592   3.295   1.396   4.675
 7210TIP3   OH221593   5.423   5.300   5.152
 7210TIP3    H121594   5.380   5.340   5.077
 7210TIP3    H221595   5.516   5.296   5.127
 7211TIP3   OH221596   3.022   6.203   2.652
 7211TIP3    H121597   3.027   6.294   2.622
 7211TIP3    H221598   3.010   6.152   2.572
 7212TIP3   OH221599   5.254   3.205   5.283
 7212TIP3    H121600   5.308   3.180   5.208
 7212TIP3    H221601   5.165   3.180   5.259
 7213TIP3   OH221602   5.962   2.059   3.940
 7213TIP3    H121603   5.882   2.013   3.912
 7213TIP3    H221604   5.973   2.033   4.031
 7214TIP3   OH221605   0.953   2.916   3.066
 7214TIP3    H121606   0.870   2.942   3.107
 7214TIP3    H221607   0.983   2.841   3.117
 7215TIP3   OH221608   4.688   5.505   5.228
 7215TIP3    H121609   4.736   5.490   5.309
 7215TIP3    H221610   4.697   5.599   5.212
 7216TIP3   OH221611   1.510   2.779   2.146
 7216TIP3    H121612   1.566   2.774   2.223
 7216TIP3    H221613   1.421   2.779   2.180
 7217TIP3   OH221614   1.913   2.192   4.635
 7217TIP3    H121615   1.911   2.221   4.544
 7217TIP3    H221616   1.975   2.119   4.635
 7218TIP3   OH221617   1.094   3.008   2.298
 7218TIP3    H121618   1.032   2.985   2.368
 7218TIP3    H221619   1.045   3.070   2.243
 7219TIP3   OH221620   3.490   2.066   0.218
 7219TIP3    H121621   3.478   2.129   0.289
 7219TIP3    H221622   3.539   1.994   0.257
 7220TIP3   OH221623   6.327   4.788   4.349
 7220TIP3    H121624   6.300   4.696   4.344
 7220TIP3    H221625   6.375   4.803   4.267
 7221TIP3   OH221626   2.645   4.128   3.873
 7221TIP3    H121627   2.655   4.101   3.782
 7221TIP3    H221628   2.550   4.123   3.889
 7222TIP3   OH221629   5.303   1.650   3.108
 7222TIP3    H121630   5.292   1.743   3.130
 7222TIP3    H221631   5.273   1.604   3.186
 7223TIP3   OH221632   5.297   5.447   3.707
 7223TIP3    H121633   5.216   5.399   3.687
 7223TIP3    H221634   5.355   5.427   3.634
 7224TIP3   OH221635   2.787   1.387   4.796
 7224TIP3    H121636   2.797   1.310   4.852
 7224TIP3    H221637   2.864   1.440   4.814
 7225TIP3   OH221638   1.318   4.727   5.083
 7225TIP3    H121639   1.254   4.754   5.018
 7225TIP3    H221640   1.282   4.759   5.166
 7226TIP3   OH221641   4.045   4.894   4.095
 7226TIP3    H121642   4.140   4.885   4.081
 7226TIP3    H221643   4.005   4.844   4.024
 7227TIP3   OH221644   0.347   4.913   3.348
 7227TIP3    H121645   0.353   4.828   3.392
 7227TIP3    H221646   0.275   4.958   3.392
 7228TIP3   OH221647   5.038   4.060   2.926
 7228TIP3    H121648   5.017   4.143   2.969
 7228TIP3    H221649   4.968   4.000   2.953
 7229TIP3   OH221650   1.885   2.349   4.135
 7229TIP3    H121651   1.920   2.421   4.084
 7229TIP3    H221652   1.941   2.345   4.213
 7230TIP3   OH221653   5.312   3.197   3.674
 7230TIP3    H121654   5.349   3.278   3.706
 7230TIP3    H221655   5.259   3.164   3.747
 7231TIP3   OH221656   1.521   5.386   4.281
 7231TIP3    H121657   1.591   5.451   4.272
 7231TIP3    H221658   1.553   5.310   4.232
 7232TIP3   OH221659   3.715   2.557   0.541
 7232TIP3    H121660   3.644   2.531   0.600
 7232TIP3    H221661   3.788   2.499   0.564
 7233TIP3   OH221662   5.021   3.594   2.937
 7233TIP3    H121663   4.988   3.554   2.856
 7233TIP3    H221664   4.946   3.590   2.997
 7234TIP3   OH221665   5.075   0.240   2.644
 7234TIP3    H121666   5.087   0.291   2.724
 7234TIP3    H221667   5.070   0.149   2.673
 7235TIP3   OH221668   6.569   5.244   3.865
 7235TIP3    H121669   6.616   5.224   3.784
 7235TIP3    H221670   6.578   5.165   3.919
 7236TIP3   OH221671   0.989   3.682   1.874
 7236TIP3    H121672   1.022   3.755   1.926
 7236TIP3    H221673   1.067   3.637   1.842
 7237TIP3   OH221674   6.788   4.791   1.105
 7237TIP3    H121675   6.713   4.833   1.062
 7237TIP3    H221676   6.771   4.802   1.199
 7238TIP3   OH221677   4.168   5.046   0.766
 7238TIP3    H121678   4.233   5.093   0.713
 7238TIP3    H221679   4.159   4.961   0.724
 7239TIP3   OH221680   6.026   4.018   3.654
 7239TIP3    H121681   5.950   4.076   3.647
 7239TIP3    H221682   5.992   3.931   3.634
 7240TIP3   OH221683   2.046   1.317   1.929
 7240TIP3    H121684   1.973   1.274   1.974
 7240TIP3    H221685   2.065   1.393   1.984
 7241TIP3   OH221686   0.566   6.424   0.625
 7241TIP3    H121687   0.636   6.470   0.672
 7241TIP3    H221688   0.612   6.378   0.554
 7242TIP3   OH221689   1.413   2.024   1.019
 7242TIP3    H121690   1.378   2.029   0.930
 7242TIP3    H221691   1.499   2.064   1.014
 7243TIP3   OH221692   5.868   4.959   1.135
 7243TIP3    H121693   5.950   4.996   1.168
 7243TIP3    H221694   5.891   4.869   1.110
 7244TIP3   OH221695   0.214   1.897   0.354
 7244TIP3    H121696   0.242   1.814   0.393
 7244TIP3    H221697   0.289   1.927   0.304
 7245TIP3   OH221698   0.415   1.713   0.426
 7245TIP3    H121699   0.475   1.769   0.376
 7245TIP3    H221700   0.421   1.745   0.515
 7246TIP3   OH221701   3.667   6.442   1.845
 7246TIP3    H121702   3.628   6.527   1.867
 7246TIP3    H221703   3.681   6.447   1.750
 7247TIP3   OH221704   6.580   3.984   4.185
 7247TIP3    H121705   6.668   3.983   4.147
 7247TIP3    H221706   6.526   3.940   4.119
 7248TIP3   OH221707   0.462   4.867   2.406
 7248TIP3    H121708   0.494   4.918   2.331
 7248TIP3    H221709   0.539   4.819   2.436
 7249TIP3   OH221710   2.462   1.654   1.422
 7249TIP3    H121711   2.410   1.621   1.495
 7249TIP3    H221712   2.517   1.581   1.396
 7250TIP3   OH221713   0.896   6.270   1.052
 7250TIP3    H121714   0.900   6.287   1.146
 7250TIP3    H221715   0.888   6.356   1.012
 7251TIP3   OH221716   0.273   0.141   3.871
 7251TIP3    H121717   0.242   0.219   3.917
 7251TIP3    H221718   0.346   0.173   3.817
 7252TIP3   OH221719   0.296   5.992   5.528
 7252TIP3    H121720   0.271   5.960   5.441
 7252TIP3    H221721   0.374   5.942   5.551
 7253TIP3   OH221722   1.486   4.640   0.363
 7253TIP3    H121723   1.566   4.683   0.395
 7253TIP3    H221724   1.500   4.632   0.269
 7254TIP3   OH221725   5.826   0.002   3.812
 7254TIP3    H121726   5.863   0.063   3.876
 7254TIP3    H221727   5.900  -0.021   3.755
 7255TIP3   OH221728   7.017   0.459   5.515
 7255TIP3    H121729   7.023   0.369   5.481
 7255TIP3    H221730   7.088   0.465   5.579
 7256TIP3   OH221731   4.545   4.600   0.024
 7256TIP3    H121732   4.546   4.636   0.112
 7256TIP3    H221733   4.509   4.670  -0.030
 7257TIP3   OH221734   0.797   5.646   1.712
 7257TIP3    H121735   0.704   5.625   1.724
 7257TIP3    H221736   0.816   5.618   1.623
 7258TIP3   OH221737   4.126   4.181   4.007
 7258TIP3    H121738   4.121   4.230   3.926
 7258TIP3    H221739   4.056   4.116   4.000
 7259TIP3   OH221740   6.399   2.589   5.473
 7259TIP3    H121741   6.470   2.531   5.447
 7259TIP3    H221742   6.388   2.574   5.567
 7260TIP3   OH221743   4.088   1.424   2.730
 7260TIP3    H121744   4.088   1.384   2.817
 7260TIP3    H221745   4.171   1.399   2.692
 7261TIP3   OH221746   5.453   6.123   3.477
 7261TIP3    H121747   5.369   6.103   3.519
 7261TIP3    H221748   5.504   6.166   3.546
 7262TIP3   OH221749   2.015   6.742   1.341
 7262TIP3    H121750   2.051   6.794   1.269
 7262TIP3    H221751   2.085   6.681   1.364
 7263TIP3   OH221752   0.834   0.890   2.949
 7263TIP3    H121753   0.841   0.818   2.887
 7263TIP3    H221754   0.862   0.853   3.032
 7264TIP3   OH221755   6.798   5.844   0.909
 7264TIP3    H121756   6.817   5.936   0.889
 7264TIP3    H221757   6.710   5.846   0.947
 7265TIP3   OH221758   6.571   6.118   2.998
 7265TIP3    H121759   6.601   6.204   2.968
 7265TIP3    H221760   6.484   6.135   3.035
 7266TIP3   OH221761   0.869   4.641   3.757
 7266TIP3    H121762   0.834   4.728   3.776
 7266TIP3    H221763   0.897   4.608   3.843
 7267TIP3   OH221764   1.885   4.103   2.468
 7267TIP3    H121765   1.868   4.107   2.562
 7267TIP3    H221766   1.814   4.153   2.428
 7268TIP3   OH221767   1.358   4.149   3.808
 7268TIP3    H121768   1.269   4.184   3.814
 7268TIP3    H221769   1.381   4.125   3.898
 7269TIP3   OH221770   2.729   4.132   2.187
 7269TIP3    H121771   2.672   4.134   2.111
 7269TIP3    H221772   2.796   4.067   2.166
 7270TIP3   OH221773   2.841   4.025   1.565
 7270TIP3    H121774   2.775   4.054   1.502
 7270TIP3    H221775   2.848   4.097   1.628
 7271TIP3   OH221776   2.901   0.806   0.331
 7271TIP3    H121777   2.870   0.721   0.363
 7271TIP3    H221778   2.977   0.826   0.385
 7272TIP3   OH221779   3.258   4.337   2.811
 7272TIP3    H121780   3.191   4.314   2.746
 7272TIP3    H221781   3.300   4.415   2.774
 7273TIP3   OH221782   1.932   2.193   5.374
 7273TIP3    H121783   1.991   2.228   5.307
 7273TIP3    H221784   1.844   2.207   5.339
 7274TIP3   OH221785   1.197   6.311   5.495
 7274TIP3    H121786   1.253   6.234   5.485
 7274TIP3    H221787   1.233   6.375   5.433
 7275TIP3   OH221788   6.213   2.385   0.676
 7275TIP3    H121789   6.245   2.300   0.644
 7275TIP3    H221790   6.200   2.437   0.597
 7276TIP3   OH221791   2.837   5.509   5.716
 7276TIP3    H121792   2.852   5.554   5.800
 7276TIP3    H221793   2.869   5.570   5.650
 7277TIP3   OH221794   2.352   2.877   0.937
 7277TIP3    H121795   2.287   2.808   0.945
 7277TIP3    H221796   2.381   2.893   1.027
 7278TIP3   OH221797   0.702   3.239   5.382
 7278TIP3    H121798   0.701   3.331   5.409
 7278TIP3    H221799   0.765   3.236   5.310
 7279TIP3   OH221800   5.885   6.118   3.532
 7279TIP3    H121801   5.876   6.093   3.440
 7279TIP3    H221802   5.881   6.035   3.580
 7280TIP3   OH221803   2.432   6.621   4.311
 7280TIP3    H121804   2.453   6.688   4.247
 7280TIP3    H221805   2.411   6.669   4.391
 7281TIP3   OH221806   4.687   1.589   3.621
 7281TIP3    H121807   4.664   1.640   3.699
 7281TIP3    H221808   4.619   1.612   3.557
 7282TIP3   OH221809   2.165   0.381   5.420
 7282TIP3    H121810   2.154   0.287   5.405
 7282TIP3    H221811   2.259   0.396   5.408
 7283TIP3   OH221812   0.594   0.585   1.970
 7283TIP3    H121813   0.665   0.598   2.033
 7283TIP3    H221814   0.617   0.642   1.897
 7284TIP3   OH221815   1.580   5.096   4.780
 7284TIP3    H121816   1.552   5.178   4.739
 7284TIP3    H221817   1.574   5.112   4.874
 7285TIP3   OH221818   6.122   3.124   1.690
 7285TIP3    H121819   6.051   3.188   1.685
 7285TIP3    H221820   6.199   3.176   1.711
 7286TIP3   OH221821   0.330   0.902   0.290
 7286TIP3    H121822   0.422   0.923   0.272
 7286TIP3    H221823   0.283   0.935   0.214
 7287TIP3   OH221824   4.371   4.457   0.741
 7287TIP3    H121825   4.301   4.403   0.706
 7287TIP3    H221826   4.341   4.481   0.829
 7288TIP3   OH221827   3.935  -0.018   2.188
 7288TIP3    H121828   3.844  -0.028   2.161
 7288TIP3    H221829   3.977   0.028   2.115
 7289TIP3   OH221830   3.561   3.381   5.653
 7289TIP3    H121831   3.647   3.342   5.665
 7289TIP3    H221832   3.548   3.435   5.731
 7290TIP3   OH221833   5.303   3.475   3.121
 7290TIP3    H121834   5.292   3.569   3.105
 7290TIP3    H221835   5.362   3.445   3.052
 7291TIP3   OH221836   2.655   5.770   2.154
 7291TIP3    H121837   2.642   5.695   2.097
 7291TIP3    H221838   2.624   5.741   2.240
 7292TIP3   OH221839   2.250   2.858   2.349
 7292TIP3    H121840   2.191   2.923   2.386
 7292TIP3    H221841   2.198   2.777   2.345
 7293TIP3   OH221842   5.428   2.298   3.327
 7293TIP3    H121843   5.349   2.298   3.381
 7293TIP3    H221844   5.399   2.330   3.242
 7294TIP3   OH221845   6.725   2.486   3.823
 7294TIP3    H121846   6.807   2.477   3.872
 7294TIP3    H221847   6.675   2.553   3.870
 7295TIP3   OH221848   4.478   5.100   2.808
 7295TIP3    H121849   4.426   5.180   2.799
 7295TIP3    H221850   4.550   5.125   2.865
 7296TIP3   OH221851   1.451   5.746   1.029
 7296TIP3    H121852   1.385   5.709   1.089
 7296TIP3    H221853   1.499   5.809   1.083
 7297TIP3   OH221854   0.404   1.310   0.232
 7297TIP3    H121855   0.311   1.310   0.209
 7297TIP3    H221856   0.442   1.377   0.175
 7298TIP3   OH221857   4.618   6.247   0.324
 7298TIP3    H121858   4.564   6.315   0.363
 7298TIP3    H221859   4.561   6.170   0.321
 7299TIP3   OH221860   5.014   0.912   4.101
 7299TIP3    H121861   4.926   0.904   4.135
 7299TIP3    H221862   5.017   0.852   4.026
 7300TIP3   OH221863   2.753   0.465   1.260
 7300TIP3    H121864   2.752   0.499   1.171
 7300TIP3    H221865   2.713   0.379   1.254
 7301TIP3   OH221866   1.656   4.002   5.460
 7301TIP3    H121867   1.735   3.979   5.411
 7301TIP3    H221868   1.607   3.920   5.466
 7302TIP3   OH221869   6.456   1.024   1.802
 7302TIP3    H121870   6.527   0.979   1.757
 7302TIP3    H221871   6.381   1.014   1.743
 7303TIP3   OH221872   5.691   1.402   3.229
 7303TIP3    H121873   5.643   1.457   3.166
 7303TIP3    H221874   5.753   1.353   3.175
 7304TIP3   OH221875   2.866   6.299   1.820
 7304TIP3    H121876   2.841   6.263   1.735
 7304TIP3    H221877   2.792   6.354   1.845
 7305TIP3   OH221878   3.832   5.016   4.221
 7305TIP3    H121879   3.904   4.968   4.180
 7305TIP3    H221880   3.760   4.953   4.225
 7306TIP3   OH221881   0.622   3.589   0.355
 7306TIP3    H121882   0.648   3.593   0.263
 7306TIP3    H221883   0.531   3.558   0.352
 7307TIP3   OH221884   5.680   4.781   4.014
 7307TIP3    H121885   5.659   4.857   4.069
 7307TIP3    H221886   5.676   4.706   4.073
 7308TIP3   OH221887   0.779   6.668   2.102
 7308TIP3    H121888   0.773   6.635   2.192
 7308TIP3    H221889   0.748   6.758   2.107
 7309TIP3   OH221890   7.141   4.412   1.182
 7309TIP3    H121891   7.051   4.381   1.172
 7309TIP3    H221892   7.173   4.423   1.092
 7310TIP3   OH221893   3.524   0.853   5.264
 7310TIP3    H121894   3.429   0.857   5.277
 7310TIP3    H221895   3.553   0.781   5.320
 7311TIP3   OH221896   1.225   2.511   1.334
 7311TIP3    H121897   1.206   2.418   1.324
 7311TIP3    H221898   1.155   2.555   1.286
 7312TIP3   OH221899   1.709   4.127   3.063
 7312TIP3    H121900   1.782   4.091   3.113
 7312TIP3    H221901   1.665   4.187   3.124
 7313TIP3   OH221902   1.984   3.222   1.855
 7313TIP3    H121903   2.053   3.227   1.788
 7313TIP3    H221904   1.906   3.194   1.806
 7314TIP3   OH221905   5.455   6.447   4.135
 7314TIP3    H121906   5.491   6.434   4.222
 7314TIP3    H221907   5.513   6.512   4.095
 7315TIP3   OH221908   6.315   4.364   2.220
 7315TIP3    H121909   6.264   4.443   2.199
 7315TIP3    H221910   6.356   4.340   2.137
 7316TIP3   OH221911   0.404   2.162   4.078
 7316TIP3    H121912   0.410   2.183   3.985
 7316TIP3    H221913   0.326   2.208   4.108
 7317TIP3   OH221914   0.323   4.509   1.793
 7317TIP3    H121915   0.264   4.518   1.718
 7317TIP3    H221916   0.289   4.571   1.858
 7318TIP3   OH221917   4.231   2.405   5.269
 7318TIP3    H121918   4.161   2.343   5.248
 7318TIP3    H221919   4.189   2.470   5.326
 7319TIP3   OH221920   1.078   1.208   2.162
 7319TIP3    H121921   1.148   1.196   2.098
 7319TIP3    H221922   0.997   1.192   2.112
 7320TIP3   OH221923   2.493   4.785   5.092
 7320TIP3    H121924   2.463   4.699   5.121
 7320TIP3    H221925   2.453   4.797   5.006
 7321TIP3   OH221926   6.910   3.167   2.284
 7321TIP3    H121927   6.816   3.173   2.266
 7321TIP3    H221928   6.920   3.086   2.333
 7322TIP3   OH221929   0.545   1.223   2.648
 7322TIP3    H121930   0.555   1.307   2.694
 7322TIP3    H221931   0.455   1.195   2.668
 7323TIP3   OH221932   5.933   4.742   4.333
 7323TIP3    H121933   5.921   4.832   4.303
 7323TIP3    H221934   5.864   4.693   4.289
 7324TIP3   OH221935   3.409   5.696   5.701
 7324TIP3    H121936   3.456   5.618   5.670
 7324TIP3    H221937   3.467   5.735   5.766
 7325TIP3   OH221938   0.335   3.130   2.573
 7325TIP3    H121939   0.408   3.082   2.536
 7325TIP3    H221940   0.351   3.221   2.548
 7326TIP3   OH221941   4.248   1.174   4.254
 7326TIP3    H121942   4.322   1.128   4.294
 7326TIP3    H221943   4.289   1.235   4.193
 7327TIP3   OH221944   4.921   3.858   1.538
 7327TIP3    H121945   4.964   3.867   1.453
 7327TIP3    H221946   4.915   3.947   1.571
 7328TIP3   OH221947   3.908   3.988   3.005
 7328TIP3    H121948   3.831   4.031   3.042
 7328TIP3    H221949   3.982   4.038   3.040
 7329TIP3   OH221950   3.911   0.278   2.578
 7329TIP3    H121951   3.855   0.226   2.635
 7329TIP3    H221952   3.933   0.355   2.630
 7330TIP3   OH221953   2.404   6.711   4.881
 7330TIP3    H121954   2.424   6.695   4.973
 7330TIP3    H221955   2.450   6.791   4.859
 7331TIP3   OH221956   5.973   3.838   1.398
 7331TIP3    H121957   5.888   3.883   1.399
 7331TIP3    H221958   5.995   3.828   1.491
 7332TIP3   OH221959   6.682   6.275   5.700
 7332TIP3    H121960   6.743   6.209   5.666
 7332TIP3    H221961   6.738   6.349   5.723
 7333TIP3   OH221962   3.035   5.764   5.266
 7333TIP3    H121963   3.061   5.736   5.353
 7333TIP3    H221964   3.058   5.690   5.209
 7334TIP3   OH221965   3.566   2.042   3.248
 7334TIP3    H121966   3.616   2.059   3.168
 7334TIP3    H221967   3.548   2.129   3.284
 7335TIP3   OH221968   5.171   5.435   0.542
 7335TIP3    H121969   5.131   5.350   0.561
 7335TIP3    H221970   5.234   5.417   0.472
 7336TIP3   OH221971   4.469   5.875   4.285
 7336TIP3    H121972   4.394   5.928   4.313
 7336TIP3    H221973   4.447   5.786   4.315
 7337TIP3   OH221974   6.040   5.691   1.718
 7337TIP3    H121975   6.002   5.752   1.656
 7337TIP3    H221976   5.967   5.636   1.746
 7338TIP3   OH221977   3.081   6.717   2.453
 7338TIP3    H121978   3.100   6.736   2.362
 7338TIP3    H221979   3.164   6.732   2.499
 7339TIP3   OH221980   5.857   2.557   5.423
 7339TIP3    H121981   5.781   2.521   5.378
 7339TIP3    H221982   5.908   2.481   5.450
 7340TIP3   OH221983   1.640   3.764   3.298
 7340TIP3    H121984   1.697   3.691   3.276
 7340TIP3    H221985   1.616   3.750   3.389
 7341TIP3   OH221986   2.164   1.299   4.348
 7341TIP3    H121987   2.077   1.315   4.383
 7341TIP3    H221988   2.214   1.265   4.422
 7342TIP3   OH221989   0.691   1.794   1.649
 7342TIP3    H121990   0.615   1.825   1.600
 7342TIP3    H221991   0.700   1.857   1.721
 7343TIP3   OH221992   7.067   4.757   3.716
 7343TIP3    H121993   6.998   4.816   3.687
 7343TIP3    H221994   7.134   4.815   3.753
 7344TIP3   OH221995   5.414   5.882   0.091
 7344TIP3    H121996   5.422   5.962   0.039
 7344TIP3    H221997   5.440   5.811   0.032
 7345TIP3   OH221998   2.110   0.036   0.322
 7345TIP3    H121999   2.109  -0.056   0.349
 7345TIP3    H222000   2.070   0.083   0.394
 7346TIP3   OH222001   0.491   5.538   1.047
 7346TIP3    H122002   0.507   5.537   0.952
 7346TIP3    H222003   0.400   5.508   1.056
 7347TIP3   OH222004   3.019   0.252   2.769
 7347TIP3    H122005   2.995   0.316   2.836
 7347TIP3    H222006   3.100   0.286   2.731
 7348TIP3   OH222007   5.146   4.223   1.421
 7348TIP3    H122008   5.094   4.302   1.410
 7348TIP3    H222009   5.088   4.162   1.466
 7349TIP3   OH222010   4.660   2.193   4.932
 7349TIP3    H122011   4.740   2.199   4.881
 7349TIP3    H222012   4.686   2.217   5.021
 7350TIP3   OH222013   0.980   5.676   0.847
 7350TIP3    H122014   0.995   5.629   0.764
 7350TIP3    H222015   1.062   5.722   0.864
 7351TIP3   OH222016   5.264   4.879   1.284
 7351TIP3    H122017   5.342   4.839   1.323
 7351TIP3    H222018   5.297   4.923   1.205
 7352TIP3   OH222019   5.043   2.407   5.521
 7352TIP3    H122020   5.052   2.468   5.594
 7352TIP3    H222021   5.037   2.463   5.443
 7353TIP3   OH222022   0.980   1.502   0.169
 7353TIP3    H122023   1.017   1.453   0.095
 7353TIP3    H222024   1.048   1.497   0.237
 7354TIP3   OH222025   1.862   6.668   5.090
 7354TIP3    H122026   1.769   6.663   5.069
 7354TIP3    H222027   1.905   6.612   5.026
 7355TIP3   OH222028   1.695   4.608   5.091
 7355TIP3    H122029   1.719   4.530   5.141
 7355TIP3    H222030   1.763   4.671   5.110
 7356TIP3   OH222031   2.309   0.173   2.641
 7356TIP3    H122032   2.358   0.204   2.717
 7356TIP3    H222033   2.219   0.165   2.671
 7357TIP3   OH222034   1.667   0.756   2.886
 7357TIP3    H122035   1.709   0.727   2.805
 7357TIP3    H222036   1.586   0.705   2.891
 7358TIP3   OH222037   0.869   6.004   2.376
 7358TIP3    H122038   0.777   5.985   2.393
 7358TIP3    H222039   0.869   6.086   2.327
 7359TIP3   OH222040   3.561   0.202   5.095
 7359TIP3    H122041   3.469   0.191   5.071
 7359TIP3    H222042   3.568   0.159   5.180
 7360TIP3   OH222043   6.131   0.415   2.190
 7360TIP3    H122044   6.068   0.390   2.258
 7360TIP3    H222045   6.216   0.407   2.232
 7361TIP3   OH222046   7.216   3.463   5.173
 7361TIP3    H122047   7.128   3.449   5.139
 7361TIP3    H222048   7.261   3.380   5.159
 7362TIP3   OH222049   0.228   4.359   5.657
 7362TIP3    H122050   0.272   4.343   5.741
 7362TIP3    H222051   0.190   4.274   5.633
 7363TIP3   OH222052   1.928   2.119   0.267
 7363TIP3    H122053   1.911   2.032   0.231
 7363TIP3    H222054   1.986   2.104   0.341
 7364TIP3   OH222055   7.186   5.610   4.552
 7364TIP3    H122056   7.140   5.533   4.519
 7364TIP3    H222057   7.230   5.580   4.632
 7365TIP3   OH222058   5.891   6.759   1.412
 7365TIP3    H122059   5.843   6.813   1.349
 7365TIP3    H222060   5.862   6.792   1.497
 7366TIP3   OH222061   7.162   6.725   3.775
 7366TIP3    H122062   7.076   6.685   3.788
 7366TIP3    H222063   7.161   6.801   3.834
 7367TIP3   OH222064   4.817   2.494   5.836
 7367TIP3    H122065   4.822   2.585   5.807
 7367TIP3    H222066   4.863   2.494   5.920
 7368TIP3   OH222067   3.380   0.244   2.016
 7368TIP3    H122068   3.400   0.265   1.925
 7368TIP3    H222069   3.449   0.183   2.043
 7369TIP3   OH222070   3.301   6.088   2.629
 7369TIP3    H122071   3.313   6.081   2.723
 7369TIP3    H222072   3.239   6.018   2.607
 7370TIP3   OH222073   1.178   5.615   2.369
 7370TIP3    H122074   1.208   5.697   2.330
 7370TIP3    H222075   1.129   5.572   2.298
 7371TIP3   OH222076   3.106   4.133   2.226
 7371TIP3    H122077   3.196   4.165   2.230
 7371TIP3    H222078   3.054   4.204   2.263
 7372TIP3   OH222079   2.892   0.586   5.283
 7372TIP3    H122080   2.805   0.566   5.319
 7372TIP3    H222081   2.873   0.635   5.202
 7373TIP3   OH222082   5.636   3.244   4.489
 7373TIP3    H122083   5.648   3.208   4.577
 7373TIP3    H222084   5.663   3.335   4.496
 7374TIP3   OH222085   5.043   6.846   0.604
 7374TIP3    H122086   5.074   6.771   0.655
 7374TIP3    H222087   5.005   6.905   0.669
 7375TIP3   OH222088   6.503   4.623   0.834
 7375TIP3    H122089   6.492   4.593   0.924
 7375TIP3    H222090   6.442   4.570   0.784
 7376TIP3   OH222091   5.167   3.017   1.917
 7376TIP3    H122092   5.183   3.063   1.999
 7376TIP3    H222093   5.088   3.059   1.881
 7377TIP3   OH222094   5.420   1.293   1.417
 7377TIP3    H122095   5.470   1.331   1.345
 7377TIP3    H222096   5.354   1.239   1.374
 7378TIP3   OH222097   6.183   5.625   3.558
 7378TIP3    H122098   6.167   5.547   3.505
 7378TIP3    H222099   6.102   5.639   3.607
 7379TIP3   OH222100   1.580   4.422   0.536
 7379TIP3    H122101   1.494   4.395   0.570
 7379TIP3    H222102   1.560   4.493   0.475
 7380TIP3   OH222103   3.860   5.631   2.120
 7380TIP3    H122104   3.794   5.611   2.053
 7380TIP3    H222105   3.812   5.627   2.203
 7381TIP3   OH222106   5.392   5.733   2.841
 7381TIP3    H122107   5.387   5.651   2.792
 7381TIP3    H222108   5.441   5.792   2.785
 7382TIP3   OH222109   3.250   4.102   1.033
 7382TIP3    H122110   3.193   4.127   0.961
 7382TIP3    H222111   3.244   4.006   1.036
 7383TIP3   OH222112   0.381   1.782   4.344
 7383TIP3    H122113   0.411   1.865   4.307
 7383TIP3    H222114   0.454   1.753   4.399
 7384TIP3   OH222115   5.561   4.463   3.644
 7384TIP3    H122116   5.516   4.448   3.561
 7384TIP3    H222117   5.644   4.416   3.636
 7385TIP3   OH222118   4.244   3.786   2.519
 7385TIP3    H122119   4.334   3.771   2.549
 7385TIP3    H222120   4.211   3.698   2.500
 7386TIP3   OH222121   0.278   1.477   4.564
 7386TIP3    H122122   0.299   1.425   4.641
 7386TIP3    H222123   0.189   1.509   4.580
 7387TIP3   OH222124   4.923   3.769   0.224
 7387TIP3    H122125   5.009   3.810   0.234
 7387TIP3    H222126   4.916   3.709   0.298
 7388TIP3   OH222127   3.777   5.701   5.622
 7388TIP3    H122128   3.796   5.638   5.552
 7388TIP3    H222129   3.819   5.664   5.699
 7389TIP3   OH222130   0.051   1.638   2.604
 7389TIP3    H122131   0.014   1.722   2.633
 7389TIP3    H222132   0.144   1.643   2.627
 7390TIP3   OH222133   5.068   2.411   1.062
 7390TIP3    H122134   5.114   2.417   1.146
 7390TIP3    H222135   5.078   2.499   1.024
 7391TIP3   OH222136   4.823   5.616   2.075
 7391TIP3    H122137   4.874   5.612   2.156
 7391TIP3    H222138   4.791   5.706   2.072
 7392TIP3   OH222139   1.650   1.546   1.131
 7392TIP3    H122140   1.705   1.622   1.113
 7392TIP3    H222141   1.707   1.470   1.118
 7393TIP3   OH222142   5.420   6.606   0.380
 7393TIP3    H122143   5.493   6.590   0.441
 7393TIP3    H222144   5.460   6.654   0.308
 7394TIP3   OH222145   4.666   1.754   3.334
 7394TIP3    H122146   4.744   1.785   3.381
 7394TIP3    H222147   4.595   1.809   3.368
 7395TIP3   OH222148   2.259   5.050   3.028
 7395TIP3    H122149   2.261   5.062   2.933
 7395TIP3    H222150   2.318   4.977   3.045
 7396TIP3   OH222151   2.743   0.395   3.961
 7396TIP3    H122152   2.709   0.470   3.913
 7396TIP3    H222153   2.816   0.432   4.012
 7397TIP3   OH222154   4.416   2.403   0.574
 7397TIP3    H122155   4.434   2.309   0.576
 7397TIP3    H222156   4.347   2.415   0.639
 7398TIP3   OH222157   6.799   2.774   0.918
 7398TIP3    H122158   6.877   2.740   0.874
 7398TIP3    H222159   6.735   2.788   0.848
 7399TIP3   OH222160   2.553   0.625   0.774
 7399TIP3    H122161   2.528   0.566   0.703
 7399TIP3    H222162   2.500   0.596   0.849
 7400TIP3   OH222163   4.136   5.656   5.695
 7400TIP3    H122164   4.212   5.693   5.651
 7400TIP3    H222165   4.110   5.723   5.758
 7401TIP3   OH222166   0.151   0.541   2.692
 7401TIP3    H122167   0.199   0.595   2.755
 7401TIP3    H222168   0.119   0.602   2.626
 7402TIP3   OH222169   4.013   4.123   5.846
 7402TIP3    H122170   3.932   4.170   5.827
 7402TIP3    H222171   3.987   4.055   5.909
 7403TIP3   OH222172   6.945   5.872   4.775
 7403TIP3    H122173   6.879   5.812   4.741
 7403TIP3    H222174   7.007   5.884   4.703
 7404TIP3   OH222175   1.697   5.457   1.114
 7404TIP3    H122176   1.632   5.499   1.171
 7404TIP3    H222177   1.673   5.365   1.114
 7405TIP3   OH222178   2.868   1.921   5.105
 7405TIP3    H122179   2.792   1.961   5.148
 7405TIP3    H222180   2.837   1.835   5.076
 7406TIP3   OH222181   5.597   0.254   2.538
 7406TIP3    H122182   5.630   0.339   2.567
 7406TIP3    H222183   5.636   0.242   2.451
 7407TIP3   OH222184   1.609   0.283   5.286
 7407TIP3    H122185   1.704   0.271   5.298
 7407TIP3    H222186   1.595   0.272   5.192
 7408TIP3   OH222187   1.127   0.074   4.467
 7408TIP3    H122188   1.093   0.162   4.449
 7408TIP3    H222189   1.139   0.072   4.562
 7409TIP3   OH222190   3.047   3.486   3.818
 7409TIP3    H122191   3.050   3.582   3.813
 7409TIP3    H222192   3.045   3.467   3.912
 7410TIP3   OH222193   4.428   0.736   1.647
 7410TIP3    H122194   4.435   0.673   1.719
 7410TIP3    H222195   4.335   0.734   1.623
 7411TIP3   OH222196   4.570   2.010   3.091
 7411TIP3    H122197   4.521   2.035   3.012
 7411TIP3    H222198   4.511   2.032   3.163
 7412TIP3   OH222199   2.546   4.121   4.978
 7412TIP3    H122200   2.628   4.149   4.937
 7412TIP3    H222201   2.506   4.202   5.009
 7413TIP3   OH222202   5.423   5.495   3.031
 7413TIP3    H122203   5.353   5.493   3.096
 7413TIP3    H222204   5.458   5.584   3.036
 7414TIP3   OH222205   5.357   6.383   3.689
 7414TIP3    H122206   5.349   6.432   3.770
 7414TIP3    H222207   5.443   6.340   3.695
 7415TIP3   OH222208   6.225   4.650   0.962
 7415TIP3    H122209   6.235   4.574   0.905
 7415TIP3    H222210   6.310   4.661   1.005
 7416TIP3   OH222211   4.360   0.633   1.286
 7416TIP3    H122212   4.296   0.696   1.321
 7416TIP3    H222213   4.345   0.553   1.336
 7417TIP3   OH222214   5.685   2.661   0.945
 7417TIP3    H122215   5.741   2.591   0.979
 7417TIP3    H222216   5.728   2.742   0.972
 7418TIP3   OH222217   5.583   1.484   1.204
 7418TIP3    H122218   5.671   1.500   1.169
 7418TIP3    H222219   5.562   1.563   1.253
 7419TIP3   OH222220   6.099   5.906   5.090
 7419TIP3    H122221   6.104   5.944   5.002
 7419TIP3    H222222   6.014   5.934   5.124
 7420TIP3   OH222223   6.130   0.162   1.955
 7420TIP3    H122224   6.190   0.194   2.022
 7420TIP3    H222225   6.179   0.170   1.873
 7421TIP3   OH222226   0.081   5.718   1.304
 7421TIP3    H122227   0.079   5.779   1.230
 7421TIP3    H222228   0.043   5.767   1.377
 7422TIP3   OH222229   1.073   2.804   4.738
 7422TIP3    H122230   1.120   2.815   4.820
 7422TIP3    H222231   1.142   2.798   4.671
 7423TIP3   OH222232  -0.021   6.280   4.625
 7423TIP3    H122233   0.016   6.197   4.594
 7423TIP3    H222234  -0.031   6.267   4.720
 7424TIP3   OH222235   6.495   5.979   3.299
 7424TIP3    H122236   6.407   6.002   3.269
 7424TIP3    H222237   6.551   6.045   3.259
 7425TIP3   OH222238   0.296   4.312   5.232
 7425TIP3    H122239   0.276   4.348   5.146
 7425TIP3    H222240   0.222   4.254   5.251
 7426TIP3   OH222241   0.825   0.561   3.804
 7426TIP3    H122242   0.896   0.611   3.763
 7426TIP3    H222243   0.780   0.625   3.859
 7427TIP3   OH222244   1.112   2.271   4.222
 7427TIP3    H122245   1.111   2.320   4.139
 7427TIP3    H222246   1.068   2.188   4.201
 7428TIP3   OH222247   5.890   4.103   4.829
 7428TIP3    H122248   5.952   4.085   4.900
 7428TIP3    H222249   5.848   4.185   4.855
 7429TIP3   OH222250   4.911   0.677   5.415
 7429TIP3    H122251   5.003   0.706   5.410
 7429TIP3    H222252   4.911   0.612   5.485
 7430TIP3   OH222253   6.903   1.109   3.283
 7430TIP3    H122254   6.977   1.050   3.273
 7430TIP3    H222255   6.900   1.129   3.377
 7431TIP3   OH222256   5.993   4.066   5.614
 7431TIP3    H122257   6.027   4.145   5.657
 7431TIP3    H222258   5.944   4.021   5.683
 7432TIP3   OH222259   4.666   5.806   4.493
 7432TIP3    H122260   4.605   5.750   4.447
 7432TIP3    H222261   4.623   5.892   4.496
 7433TIP3   OH222262   6.803   6.676   4.066
 7433TIP3    H122263   6.738   6.710   4.127
 7433TIP3    H222264   6.855   6.614   4.117
 7434TIP3   OH222265   5.788   2.323   3.900
 7434TIP3    H122266   5.752   2.411   3.892
 7434TIP3    H222267   5.871   2.326   3.852
 7435TIP3   OH222268   4.072   0.978   3.901
 7435TIP3    H122269   4.147   0.957   3.845
 7435TIP3    H222270   4.002   0.920   3.871
 7436TIP3   OH222271   6.539   3.717   4.416
 7436TIP3    H122272   6.548   3.624   4.438
 7436TIP3    H222273   6.466   3.721   4.355
 7437TIP3   OH222274   1.423   0.214   0.622
 7437TIP3    H122275   1.499   0.272   0.629
 7437TIP3    H222276   1.428   0.180   0.533
 7438TIP3   OH222277   0.512   3.926   2.919
 7438TIP3    H122278   0.520   3.842   2.874
 7438TIP3    H222279   0.477   3.986   2.853
 7439TIP3   OH222280   4.867   1.383   1.868
 7439TIP3    H122281   4.812   1.305   1.870
 7439TIP3    H222282   4.943   1.361   1.921
 7440TIP3   OH222283   3.332   4.590   2.745
 7440TIP3    H122284   3.280   4.661   2.707
 7440TIP3    H222285   3.356   4.623   2.832
 7441TIP3   OH222286   3.953   1.267   0.304
 7441TIP3    H122287   3.887   1.200   0.285
 7441TIP3    H222288   3.913   1.349   0.273
 7442TIP3   OH222289   2.657   5.696   4.087
 7442TIP3    H122290   2.601   5.629   4.127
 7442TIP3    H222291   2.602   5.733   4.017
 7443TIP3   OH222292   7.098   6.531   5.816
 7443TIP3    H122293   7.126   6.536   5.725
 7443TIP3    H222294   7.155   6.465   5.855
 7444TIP3   OH222295   4.413   3.449   5.430
 7444TIP3    H122296   4.461   3.523   5.393
 7444TIP3    H222297   4.403   3.471   5.523
 7445TIP3   OH222298   0.690   5.684   3.962
 7445TIP3    H122299   0.660   5.715   4.047
 7445TIP3    H222300   0.776   5.725   3.950
 7446TIP3   OH222301   5.975   0.656   0.539
 7446TIP3    H122302   5.938   0.591   0.599
 7446TIP3    H222303   6.052   0.614   0.502
 7447TIP3   OH222304   4.452   6.759   5.306
 7447TIP3    H122305   4.404   6.696   5.359
 7447TIP3    H222306   4.475   6.830   5.367
 7448TIP3   OH222307   2.842   3.243   0.324
 7448TIP3    H122308   2.771   3.243   0.259
 7448TIP3    H222309   2.855   3.335   0.345
 7449TIP3   OH222310   0.194   3.245   0.905
 7449TIP3    H122311   0.169   3.332   0.935
 7449TIP3    H222312   0.288   3.239   0.924
 7450TIP3   OH222313   3.404   5.615   3.403
 7450TIP3    H122314   3.318   5.600   3.364
 7450TIP3    H222315   3.465   5.572   3.343
 7451TIP3   OH222316   0.292   4.611   1.083
 7451TIP3    H122317   0.318   4.680   1.021
 7451TIP3    H222318   0.218   4.568   1.040
 7452TIP3   OH222319   0.573   0.313   3.016
 7452TIP3    H122320   0.577   0.409   3.011
 7452TIP3    H222321   0.661   0.286   3.041
 7453TIP3   OH222322   3.029   3.654   2.426
 7453TIP3    H122323   3.075   3.737   2.413
 7453TIP3    H222324   2.955   3.657   2.364
 7454TIP3   OH222325   6.520   2.697   0.816
 7454TIP3    H122326   6.511   2.777   0.764
 7454TIP3    H222327   6.432   2.659   0.817
 7455TIP3   OH222328   2.133   0.373   2.991
 7455TIP3    H122329   2.207   0.341   3.043
 7455TIP3    H222330   2.108   0.300   2.935
 7456TIP3   OH222331   7.151   3.610   2.201
 7456TIP3    H122332   7.243   3.637   2.209
 7456TIP3    H222333   7.156   3.514   2.194
 7457TIP3   OH222334   6.761   0.776   0.544
 7457TIP3    H122335   6.724   0.858   0.511
 7457TIP3    H222336   6.699   0.709   0.517
 7458TIP3   OH222337   0.869   4.825   4.817
 7458TIP3    H122338   0.814   4.857   4.745
 7458TIP3    H222339   0.874   4.730   4.803
 7459TIP3   OH222340   5.674   3.440   1.564
 7459TIP3    H122341   5.681   3.365   1.624
 7459TIP3    H222342   5.725   3.414   1.488
 7460TIP3   OH222343   4.510   1.939   3.531
 7460TIP3    H122344   4.510   1.846   3.553
 7460TIP3    H222345   4.474   1.981   3.609
 7461TIP3   OH222346   3.563   5.702   3.779
 7461TIP3    H122347   3.638   5.686   3.722
 7461TIP3    H222348   3.493   5.648   3.743
 7462TIP3   OH222349   5.264   5.566   4.394
 7462TIP3    H122350   5.177   5.605   4.382
 7462TIP3    H222351   5.259   5.481   4.351
 7463TIP3   OH222352   3.820   0.332   5.661
 7463TIP3    H122353   3.825   0.310   5.754
 7463TIP3    H222354   3.903   0.301   5.624
 7464TIP3   OH222355   7.024   2.624   3.289
 7464TIP3    H122356   6.960   2.663   3.231
 7464TIP3    H222357   6.981   2.620   3.374
 7465TIP3   OH222358   2.308   3.946   0.855
 7465TIP3    H122359   2.216   3.922   0.849
 7465TIP3    H222360   2.308   4.039   0.876
 7466TIP3   OH222361   6.746   3.009   3.834
 7466TIP3    H122362   6.755   3.098   3.802
 7466TIP3    H222363   6.664   3.009   3.884
 7467TIP3   OH222364   6.637   3.245   2.301
 7467TIP3    H122365   6.569   3.278   2.243
 7467TIP3    H222366   6.595   3.237   2.386
 7468TIP3   OH222367   2.266   1.236   0.314
 7468TIP3    H122368   2.352   1.206   0.345
 7468TIP3    H222369   2.207   1.220   0.387
 7469TIP3   OH222370   4.723   3.656   2.005
 7469TIP3    H122371   4.765   3.671   1.920
 7469TIP3    H222372   4.786   3.604   2.054
 7470TIP3   OH222373   6.512   4.277   2.446
 7470TIP3    H122374   6.442   4.285   2.510
 7470TIP3    H222375   6.470   4.296   2.362
 7471TIP3   OH222376   2.622   2.765   1.067
 7471TIP3    H122377   2.668   2.705   1.127
 7471TIP3    H222378   2.665   2.752   0.983
 7472TIP3   OH222379   3.056   6.678   0.215
 7472TIP3    H122380   3.144   6.661   0.181
 7472TIP3    H222381   3.027   6.758   0.171
 7473TIP3   OH222382   1.819   4.069   2.741
 7473TIP3    H122383   1.886   4.007   2.771
 7473TIP3    H222384   1.737   4.032   2.773
 7474TIP3   OH222385   0.749   1.394   1.139
 7474TIP3    H122386   0.718   1.412   1.050
 7474TIP3    H222387   0.678   1.426   1.196
 7475TIP3   OH222388   2.542   1.527   4.832
 7475TIP3    H122389   2.624   1.477   4.820
 7475TIP3    H222390   2.492   1.509   4.752
 7476TIP3   OH222391   0.268   3.660   1.952
 7476TIP3    H122392   0.230   3.583   1.995
 7476TIP3    H222393   0.223   3.734   1.993
 7477TIP3   OH222394   1.492   1.452   3.952
 7477TIP3    H122395   1.510   1.446   4.046
 7477TIP3    H222396   1.578   1.472   3.913
 7478TIP3   OH222397   3.065   2.868   1.241
 7478TIP3    H122398   3.070   2.887   1.334
 7478TIP3    H222399   3.050   2.953   1.200
 7479TIP3   OH222400   5.308   3.821   1.093
 7479TIP3    H122401   5.402   3.803   1.091
 7479TIP3    H222402   5.271   3.763   1.026
 7480TIP3   OH222403   4.633   4.957   0.892
 7480TIP3    H122404   4.631   4.887   0.827
 7480TIP3    H222405   4.674   4.918   0.969
 7481TIP3   OH222406   4.542   3.180   4.138
 7481TIP3    H122407   4.624   3.136   4.115
 7481TIP3    H222408   4.483   3.161   4.066
 7482TIP3   OH222409   1.301   4.077   2.470
 7482TIP3    H122410   1.333   4.019   2.401
 7482TIP3    H222411   1.283   4.018   2.544
 7483TIP3   OH222412   6.515   6.154   5.317
 7483TIP3    H122413   6.499   6.197   5.233
 7483TIP3    H222414   6.445   6.088   5.324
 7484TIP3   OH222415   0.631   5.425   1.956
 7484TIP3    H122416   0.582   5.412   1.875
 7484TIP3    H222417   0.565   5.458   2.018
 7485TIP3   OH222418   6.898   4.107   3.565
 7485TIP3    H122419   6.893   4.150   3.650
 7485TIP3    H222420   6.992   4.099   3.547
 7486TIP3   OH222421   1.808   1.070   2.775
 7486TIP3    H122422   1.838   0.979   2.783
 7486TIP3    H222423   1.886   1.122   2.795
 7487TIP3   OH222424   1.456   0.022   0.826
 7487TIP3    H122425   1.462   0.062   0.913
 7487TIP3    H222426   1.431   0.095   0.768
 7488TIP3   OH222427   0.914   6.510   1.163
 7488TIP3    H122428   0.880   6.584   1.213
 7488TIP3    H222429   1.005   6.503   1.190
 7489TIP3   OH222430   6.861   5.660   2.135
 7489TIP3    H122431   6.852   5.565   2.131
 7489TIP3    H222432   6.944   5.675   2.180
 7490TIP3   OH222433   5.985   3.589   4.974
 7490TIP3    H122434   5.988   3.676   4.933
 7490TIP3    H222435   5.931   3.600   5.052
 7491TIP3   OH222436   5.025   0.467   3.912
 7491TIP3    H122437   5.083   0.415   3.967
 7491TIP3    H222438   5.077   0.489   3.835
 7492TIP3   OH222439   2.731   2.201   4.482
 7492TIP3    H122440   2.768   2.113   4.485
 7492TIP3    H222441   2.685   2.212   4.565
 7493TIP3   OH222442   5.218   1.785   2.128
 7493TIP3    H122443   5.259   1.819   2.048
 7493TIP3    H222444   5.197   1.695   2.107
 7494TIP3   OH222445   5.927   5.948   4.243
 7494TIP3    H122446   5.881   5.922   4.163
 7494TIP3    H222447   6.020   5.938   4.222
 7495TIP3   OH222448   2.561   3.318   2.338
 7495TIP3    H122449   2.584   3.388   2.399
 7495TIP3    H222450   2.522   3.250   2.394
 7496TIP3   OH222451   6.781   5.244   4.399
 7496TIP3    H122452   6.714   5.196   4.351
 7496TIP3    H222453   6.862   5.195   4.383
 7497TIP3   OH222454   3.499   3.736   2.376
 7497TIP3    H122455   3.461   3.657   2.336
 7497TIP3    H222456   3.548   3.778   2.305
 7498TIP3   OH222457   6.409   1.697   1.564
 7498TIP3    H122458   6.378   1.634   1.629
 7498TIP3    H222459   6.338   1.703   1.501
 7499TIP3   OH222460   2.373   0.489   1.239
 7499TIP3    H122461   2.404   0.418   1.295
 7499TIP3    H222462   2.446   0.552   1.237
 7500TIP3   OH222463   5.026   5.104   4.243
 7500TIP3    H122464   4.961   5.119   4.312
 7500TIP3    H222465   5.051   5.192   4.214
 7501TIP3   OH222466   3.458   3.398   3.549
 7501TIP3    H122467   3.521   3.336   3.585
 7501TIP3    H222468   3.373   3.367   3.580
 7502TIP3   OH222469   0.258   2.115   5.107
 7502TIP3    H122470   0.238   2.186   5.168
 7502TIP3    H222471   0.233   2.035   5.154
 7503TIP3   OH222472   4.054   4.007   1.301
 7503TIP3    H122473   3.999   3.929   1.306
 7503TIP3    H222474   4.132   3.977   1.254
 7504TIP3   OH222475   6.668   3.845   2.226
 7504TIP3    H122476   6.762   3.862   2.227
 7504TIP3    H222477   6.635   3.900   2.154
 7505TIP3   OH222478   5.209   3.375   4.069
 7505TIP3    H122479   5.134   3.426   4.102
 7505TIP3    H222480   5.169   3.308   4.014
 7506TIP3   OH222481   0.996   1.229   4.945
 7506TIP3    H122482   1.047   1.151   4.922
 7506TIP3    H222483   1.018   1.247   5.036
 7507TIP3   OH222484   4.208   1.254   0.223
 7507TIP3    H122485   4.186   1.190   0.156
 7507TIP3    H222486   4.124   1.290   0.250
 7508TIP3   OH222487   1.125   0.084   5.450
 7508TIP3    H122488   1.202   0.131   5.418
 7508TIP3    H222489   1.065   0.154   5.478
 7509TIP3   OH222490   3.374   0.642   1.389
 7509TIP3    H122491   3.309   0.667   1.455
 7509TIP3    H222492   3.336   0.566   1.345
 7510TIP3   OH222493   0.658   0.314   4.890
 7510TIP3    H122494   0.708   0.238   4.920
 7510TIP3    H222495   0.571   0.301   4.927
 7511TIP3   OH222496   5.872   6.664   4.261
 7511TIP3    H122497   5.903   6.724   4.329
 7511TIP3    H222498   5.889   6.577   4.297
 7512TIP3   OH222499   3.276   4.750   5.297
 7512TIP3    H122500   3.302   4.836   5.264
 7512TIP3    H222501   3.182   4.758   5.312
 7513TIP3   OH222502   5.831   4.439   3.167
 7513TIP3    H122503   5.787   4.515   3.130
 7513TIP3    H222504   5.784   4.364   3.131
 7514TIP3   OH222505   3.679   3.192   1.644
 7514TIP3    H122506   3.770   3.166   1.660
 7514TIP3    H222507   3.628   3.115   1.669
 7515TIP3   OH222508   7.147   0.943   3.914
 7515TIP3    H122509   7.127   0.855   3.882
 7515TIP3    H222510   7.064   0.990   3.904
 7516TIP3   OH222511   1.769   2.340   0.194
 7516TIP3    H122512   1.828   2.415   0.196
 7516TIP3    H222513   1.828   2.264   0.195
 7517TIP3   OH222514   2.575   5.576   1.494
 7517TIP3    H122515   2.529   5.501   1.457
 7517TIP3    H222516   2.534   5.652   1.454
 7518TIP3   OH222517   4.061   4.405   5.165
 7518TIP3    H122518   3.995   4.340   5.140
 7518TIP3    H222519   4.145   4.365   5.142
 7519TIP3   OH222520   0.046   1.006   5.296
 7519TIP3    H122521   0.121   1.033   5.349
 7519TIP3    H222522   0.019   1.086   5.250
 7520TIP3   OH222523   1.130   2.724   1.139
 7520TIP3    H122524   1.096   2.814   1.132
 7520TIP3    H222525   1.225   2.735   1.138
 7521TIP3   OH222526   3.540   2.211   2.724
 7521TIP3    H122527   3.562   2.255   2.642
 7521TIP3    H222528   3.625   2.193   2.765
 7522TIP3   OH222529   6.045   1.601   1.644
 7522TIP3    H122530   5.971   1.548   1.613
 7522TIP3    H222531   6.080   1.642   1.564
 7523TIP3   OH222532   5.595   3.556   3.699
 7523TIP3    H122533   5.666   3.513   3.651
 7523TIP3    H222534   5.561   3.487   3.757
 7524TIP3   OH222535   0.622   4.868   5.348
 7524TIP3    H122536   0.565   4.854   5.273
 7524TIP3    H222537   0.576   4.932   5.402
 7525TIP3   OH222538   3.649   0.665   4.440
 7525TIP3    H122539   3.714   0.596   4.443
 7525TIP3    H222540   3.572   0.624   4.401
 7526TIP3   OH222541   1.503   1.868   2.342
 7526TIP3    H122542   1.423   1.865   2.393
 7526TIP3    H222543   1.562   1.925   2.392
 7527TIP3   OH222544   4.739   2.701   1.565
 7527TIP3    H122545   4.665   2.760   1.573
 7527TIP3    H222546   4.700   2.614   1.558
 7528TIP3   OH222547   5.416   5.502   1.600
 7528TIP3    H122548   5.389   5.519   1.509
 7528TIP3    H222549   5.336   5.510   1.651
 7529TIP3   OH222550   2.422   3.140   2.524
 7529TIP3    H122551   2.336   3.097   2.521
 7529TIP3    H222552   2.483   3.074   2.491
 7530TIP3   OH222553   0.323   5.061   5.371
 7530TIP3    H122554   0.290   5.027   5.288
 7530TIP3    H222555   0.268   5.020   5.438
 7531TIP3   OH222556   2.097   4.202   0.586
 7531TIP3    H122557   2.036   4.248   0.528
 7531TIP3    H222558   2.053   4.120   0.607
 7532TIP3   OH222559   6.763   0.955   5.245
 7532TIP3    H122560   6.714   0.950   5.328
 7532TIP3    H222561   6.739   0.875   5.198
 7533TIP3   OH222562   2.530   5.807   3.883
 7533TIP3    H122563   2.454   5.819   3.941
 7533TIP3    H222564   2.526   5.882   3.823
 7534TIP3   OH222565   6.715   5.611   2.480
 7534TIP3    H122566   6.697   5.628   2.572
 7534TIP3    H222567   6.711   5.697   2.438
 7535TIP3   OH222568   1.529   1.655   2.859
 7535TIP3    H122569   1.451   1.602   2.843
 7535TIP3    H222570   1.579   1.607   2.924
 7536TIP3   OH222571   2.020   3.286   4.764
 7536TIP3    H122572   1.964   3.254   4.834
 7536TIP3    H222573   1.973   3.360   4.727
 7537TIP3   OH222574   1.530   6.583   3.773
 7537TIP3    H122575   1.548   6.671   3.806
 7537TIP3    H222576   1.602   6.565   3.713
 7538TIP3   OH222577   1.302   4.383   2.815
 7538TIP3    H122578   1.372   4.325   2.845
 7538TIP3    H222579   1.331   4.471   2.840
 7539TIP3   OH222580   6.265   0.133   5.134
 7539TIP3    H122581   6.176   0.143   5.101
 7539TIP3    H222582   6.319   0.179   5.070
 7540TIP3   OH222583   6.028   2.956   3.221
 7540TIP3    H122584   5.961   2.888   3.210
 7540TIP3    H222585   5.984   3.037   3.196
 7541TIP3   OH222586  -0.039   0.737   1.397
 7541TIP3    H122587  -0.057   0.676   1.468
 7541TIP3    H222588   0.052   0.718   1.371
 7542TIP3   OH222589   2.057   4.387   4.315
 7542TIP3    H122590   2.040   4.325   4.386
 7542TIP3    H222591   2.116   4.452   4.353
 7543TIP3   OH222592   0.545   3.912   0.601
 7543TIP3    H122593   0.477   3.973   0.630
 7543TIP3    H222594   0.536   3.910   0.506
 7544TIP3   OH222595   4.618   0.684   3.055
 7544TIP3    H122596   4.638   0.721   3.141
 7544TIP3    H222597   4.694   0.705   3.001
 7545TIP3   OH222598   2.044   2.582   2.438
 7545TIP3    H122599   1.969   2.524   2.443
 7545TIP3    H222600   2.111   2.531   2.392
 7546TIP3   OH222601   3.787   4.975   1.630
 7546TIP3    H122602   3.706   4.928   1.649
 7546TIP3    H222603   3.764   5.067   1.642
 7547TIP3   OH222604   2.142   0.266   1.218
 7547TIP3    H122605   2.235   0.288   1.208
 7547TIP3    H222606   2.120   0.297   1.306
 7548TIP3   OH222607   4.060   3.848   0.498
 7548TIP3    H122608   4.149   3.874   0.522
 7548TIP3    H222609   4.006   3.876   0.571
 7549TIP3   OH222610   0.664   2.309   2.080
 7549TIP3    H122611   0.626   2.294   2.166
 7549TIP3    H222612   0.754   2.334   2.097
 7550TIP3   OH222613   4.341   2.786   4.733
 7550TIP3    H122614   4.268   2.787   4.796
 7550TIP3    H222615   4.417   2.761   4.786
 7551TIP3   OH222616   5.873   1.954   1.073
 7551TIP3    H122617   5.853   2.030   1.018
 7551TIP3    H222618   5.951   1.981   1.123
 7552TIP3   OH222619   1.491   1.461   2.207
 7552TIP3    H122620   1.456   1.384   2.253
 7552TIP3    H222621   1.479   1.533   2.268
 7553TIP3   OH222622   1.823   2.881   2.232
 7553TIP3    H122623   1.752   2.833   2.273
 7553TIP3    H222624   1.781   2.930   2.161
 7554TIP3   OH222625   2.666   6.434   4.353
 7554TIP3    H122626   2.584   6.460   4.395
 7554TIP3    H222627   2.651   6.343   4.327
 7555TIP3   OH222628   5.000   0.993   2.229
 7555TIP3    H122629   4.943   0.917   2.242
 7555TIP3    H222630   5.084   0.967   2.267
 7556TIP3   OH222631   0.954   0.465   1.896
 7556TIP3    H122632   0.902   0.397   1.853
 7556TIP3    H222633   0.947   0.541   1.838
 7557TIP3   OH222634   6.472   6.685   5.154
 7557TIP3    H122635   6.521   6.744   5.097
 7557TIP3    H222636   6.511   6.697   5.240
 7558TIP3   OH222637   6.671   3.103   0.026
 7558TIP3    H122638   6.691   3.048  -0.050
 7558TIP3    H222639   6.576   3.098   0.036
 7559TIP3   OH222640   2.388   0.554   5.211
 7559TIP3    H122641   2.383   0.594   5.298
 7559TIP3    H222642   2.429   0.469   5.226
 7560TIP3   OH222643   1.018   3.164   2.579
 7560TIP3    H122644   0.964   3.136   2.652
 7560TIP3    H222645   1.093   3.104   2.580
 7561TIP3   OH222646   6.146   4.192   0.306
 7561TIP3    H122647   6.100   4.231   0.232
 7561TIP3    H222648   6.217   4.141   0.267
 7562TIP3   OH222649   0.446   0.001   0.121
 7562TIP3    H122650   0.480   0.053   0.048
 7562TIP3    H222651   0.517   0.002   0.185
 7563TIP3   OH222652   1.840   4.502   3.395
 7563TIP3    H122653   1.768   4.455   3.436
 7563TIP3    H222654   1.865   4.448   3.320
 7564TIP3   OH222655   0.685   1.784   5.538
 7564TIP3    H122656   0.599   1.825   5.541
 7564TIP3    H222657   0.745   1.854   5.564
 7565TIP3   OH222658   4.106   1.729   2.968
 7565TIP3    H122659   4.015   1.705   2.987
 7565TIP3    H222660   4.155   1.699   3.044
 7566TIP3   OH222661   2.033   4.635   2.644
 7566TIP3    H122662   2.066   4.574   2.710
 7566TIP3    H222663   1.938   4.638   2.660
 7567TIP3   OH222664   6.026   1.682   4.275
 7567TIP3    H122665   5.998   1.697   4.365
 7567TIP3    H222666   6.121   1.675   4.280
 7568TIP3   OH222667   3.062   6.390   4.451
 7568TIP3    H122668   2.979   6.367   4.493
 7568TIP3    H222669   3.038   6.412   4.360
 7569TIP3   OH222670   4.441   4.530   4.478
 7569TIP3    H122671   4.521   4.539   4.530
 7569TIP3    H222672   4.371   4.553   4.539
 7570TIP3   OH222673   3.091   6.800   5.425
 7570TIP3    H122674   3.138   6.848   5.492
 7570TIP3    H222675   3.019   6.757   5.472
 7571TIP3   OH222676   3.439   0.352   0.637
 7571TIP3    H122677   3.472   0.351   0.726
 7571TIP3    H222678   3.468   0.269   0.599
 7572TIP3   OH222679   2.350   3.648   1.892
 7572TIP3    H122680   2.425   3.700   1.863
 7572TIP3    H222681   2.389   3.578   1.945
 7573TIP3   OH222682   4.961   3.610   3.886
 7573TIP3    H122683   4.969   3.704   3.901
 7573TIP3    H222684   4.974   3.571   3.973
 7574TIP3   OH222685   1.819   2.011   5.100
 7574TIP3    H122686   1.864   1.967   5.172
 7574TIP3    H222687   1.726   2.008   5.125
 7575TIP3   OH222688   1.019   0.638   5.321
 7575TIP3    H122689   1.019   0.721   5.273
 7575TIP3    H222690   1.102   0.596   5.296
 7576TIP3   OH222691  -0.012   4.203   5.466
 7576TIP3    H122692  -0.069   4.277   5.447
 7576TIP3    H222693  -0.071   4.134   5.494
 7577TIP3   OH222694   6.328   5.948   2.108
 7577TIP3    H122695   6.349   6.040   2.126
 7577TIP3    H222696   6.401   5.916   2.057
 7578TIP3   OH222697   1.258   4.384   5.329
 7578TIP3    H122698   1.350   4.405   5.310
 7578TIP3    H222699   1.246   4.408   5.421
 7579TIP3   OH222700   7.170   4.352   5.789
 7579TIP3    H122701   7.222   4.373   5.711
 7579TIP3    H222702   7.169   4.256   5.792
 7580TIP3   OH222703   5.609   3.890   3.247
 7580TIP3    H122704   5.677   3.824   3.258
 7580TIP3    H222705   5.642   3.947   3.178
 7581TIP3   OH222706   0.395   5.904   1.924
 7581TIP3    H122707   0.345   5.833   1.883
 7581TIP3    H222708   0.330   5.965   1.957
 7582TIP3   OH222709   2.860   2.952   4.940
 7582TIP3    H122710   2.922   2.966   4.869
 7582TIP3    H222711   2.828   2.863   4.927
 7583TIP3   OH222712   0.816   3.267   5.090
 7583TIP3    H122713   0.855   3.196   5.039
 7583TIP3    H222714   0.888   3.328   5.107
 7584TIP3   OH222715   3.128   5.574   5.564
 7584TIP3    H122716   3.131   5.669   5.559
 7584TIP3    H222717   3.189   5.552   5.634
 7585TIP3   OH222718   3.841   0.388   3.626
 7585TIP3    H122719   3.906   0.356   3.564
 7585TIP3    H222720   3.881   0.375   3.712
 7586TIP3   OH222721   3.121   0.899   4.315
 7586TIP3    H122722   3.100   0.947   4.396
 7586TIP3    H222723   3.046   0.840   4.302
 7587TIP3   OH222724   4.361   5.481   1.402
 7587TIP3    H122725   4.397   5.399   1.370
 7587TIP3    H222726   4.285   5.456   1.454
 7588TIP3   OH222727   3.342   3.682   4.852
 7588TIP3    H122728   3.379   3.599   4.883
 7588TIP3    H222729   3.336   3.736   4.930
 7589TIP3   OH222730   1.682   5.773   0.838
 7589TIP3    H122731   1.750   5.799   0.900
 7589TIP3    H222732   1.600   5.796   0.881
 7590TIP3   OH222733   0.642   5.766   4.228
 7590TIP3    H122734   0.546   5.758   4.230
 7590TIP3    H222735   0.660   5.851   4.266
 7591TIP3   OH222736   2.720   1.479   3.476
 7591TIP3    H122737   2.712   1.388   3.505
 7591TIP3    H222738   2.717   1.530   3.557
 7592TIP3   OH222739   6.900   0.857   1.406
 7592TIP3    H122740   6.895   0.903   1.323
 7592TIP3    H222741   6.994   0.848   1.423
 7593TIP3   OH222742   6.864   6.703   5.672
 7593TIP3    H122743   6.927   6.740   5.734
 7593TIP3    H222744   6.815   6.638   5.724
 7594TIP3   OH222745   0.918   0.371   2.849
 7594TIP3    H122746   0.902   0.284   2.886
 7594TIP3    H222747   0.959   0.353   2.764
 7595TIP3   OH222748   5.365   4.523   1.213
 7595TIP3    H122749   5.429   4.579   1.257
 7595TIP3    H222750   5.372   4.547   1.121
 7596TIP3   OH222751   5.736   4.809   1.617
 7596TIP3    H122752   5.749   4.894   1.659
 7596TIP3    H222753   5.722   4.748   1.689
 7597TIP3   OH222754   6.488   6.117   2.668
 7597TIP3    H122755   6.551   6.188   2.683
 7597TIP3    H222756   6.503   6.092   2.577
 7598TIP3   OH222757   5.684   0.467   2.698
 7598TIP3    H122758   5.699   0.561   2.699
 7598TIP3    H222759   5.638   0.449   2.780
 7599TIP3   OH222760   2.037   5.244   4.400
 7599TIP3    H122761   1.969   5.180   4.382
 7599TIP3    H222762   2.018   5.317   4.342
 7600TIP3   OH222763   0.541   5.435   4.288
 7600TIP3    H122764   0.560   5.451   4.380
 7600TIP3    H222765   0.625   5.411   4.249
 7601TIP3   OH222766   6.346   2.491   5.154
 7601TIP3    H122767   6.306   2.406   5.170
 7601TIP3    H222768   6.297   2.527   5.080
 7602TIP3   OH222769   5.959   3.452   1.917
 7602TIP3    H122770   5.892   3.444   1.985
 7602TIP3    H222771   6.009   3.530   1.941
 7603TIP3   OH222772   0.019   4.077   4.738
 7603TIP3    H122773   0.048   4.047   4.652
 7603TIP3    H222774   0.054   4.013   4.800
 7604TIP3   OH222775   0.859   0.108   2.612
 7604TIP3    H122776   0.912   0.120   2.691
 7604TIP3    H222777   0.872   0.015   2.589
 7605TIP3   OH222778   3.324   0.209   3.335
 7605TIP3    H122779   3.313   0.213   3.240
 7605TIP3    H222780   3.409   0.167   3.348
 7606TIP3   OH222781   2.536   3.430   1.303
 7606TIP3    H122782   2.581   3.489   1.363
 7606TIP3    H222783   2.453   3.411   1.347
 7607TIP3   OH222784   5.756   2.673   4.489
 7607TIP3    H122785   5.788   2.643   4.405
 7607TIP3    H222786   5.676   2.722   4.469
 7608TIP3   OH222787   4.633   0.740   0.763
 7608TIP3    H122788   4.591   0.818   0.798
 7608TIP3    H222789   4.725   0.749   0.790
 7609TIP3   OH222790   0.937   0.878   2.043
 7609TIP3    H122791   0.876   0.804   2.043
 7609TIP3    H222792   0.950   0.898   2.136
 7610TIP3   OH222793   4.297   2.293   5.827
 7610TIP3    H122794   4.378   2.343   5.828
 7610TIP3    H222795   4.316   2.218   5.771
 7611TIP3   OH222796   5.357   6.772   3.542
 7611TIP3    H122797   5.287   6.745   3.601
 7611TIP3    H222798   5.376   6.693   3.491
 7612TIP3   OH222799   3.852   6.695   4.051
 7612TIP3    H122800   3.855   6.624   3.987
 7612TIP3    H222801   3.772   6.743   4.031
 7613TIP3   OH222802   3.181   6.475   0.508
 7613TIP3    H122803   3.215   6.564   0.496
 7613TIP3    H222804   3.233   6.421   0.448
 7614TIP3   OH222805   6.081   3.832   0.806
 7614TIP3    H122806   6.074   3.744   0.842
 7614TIP3    H222807   6.037   3.827   0.720
 7615TIP3   OH222808   5.587   5.294   4.599
 7615TIP3    H122809   5.528   5.369   4.609
 7615TIP3    H222810   5.533   5.225   4.563
 7616TIP3   OH222811   2.661   5.163   1.340
 7616TIP3    H122812   2.747   5.164   1.381
 7616TIP3    H222813   2.678   5.137   1.249
 7617TIP3   OH222814   6.930   4.727   0.687
 7617TIP3    H122815   7.009   4.726   0.633
 7617TIP3    H222816   6.944   4.799   0.749
 7618TIP3   OH222817   5.963   0.130   0.600
 7618TIP3    H122818   5.916   0.057   0.559
 7618TIP3    H222819   5.895   0.180   0.645
 7619TIP3   OH222820   4.832   4.291   1.172
 7619TIP3    H122821   4.876   4.363   1.217
 7619TIP3    H222822   4.771   4.257   1.237
 7620TIP3   OH222823   2.362   0.066   0.185
 7620TIP3    H122824   2.285   0.072   0.242
 7620TIP3    H222825   2.335   0.110   0.105
 7621TIP3   OH222826   4.824   2.218   0.191
 7621TIP3    H122827   4.853   2.144   0.139
 7621TIP3    H222828   4.750   2.255   0.143
 7622TIP3   OH222829   4.164   0.122   0.100
 7622TIP3    H122830   4.237   0.063   0.119
 7622TIP3    H222831   4.127   0.089   0.018
 7623TIP3   OH222832   3.119   3.722   4.475
 7623TIP3    H122833   3.074   3.791   4.523
 7623TIP3    H222834   3.135   3.759   4.388
 7624TIP3   OH222835   1.498   0.588   3.371
 7624TIP3    H122836   1.445   0.573   3.449
 7624TIP3    H222837   1.490   0.682   3.354
 7625TIP3   OH222838   1.694   1.287   0.224
 7625TIP3    H122839   1.605   1.284   0.260
 7625TIP3    H222840   1.745   1.230   0.280
 7626TIP3   OH222841   4.217   1.687   4.842
 7626TIP3    H122842   4.275   1.720   4.774
 7626TIP3    H222843   4.170   1.765   4.873
 7627TIP3   OH222844   5.285   1.428   0.369
 7627TIP3    H122845   5.302   1.507   0.420
 7627TIP3    H222846   5.190   1.422   0.364
 7628TIP3   OH222847   3.486   5.091   2.070
 7628TIP3    H122848   3.445   5.176   2.054
 7628TIP3    H222849   3.413   5.029   2.071
 7629TIP3   OH222850   4.914   3.729   4.312
 7629TIP3    H122851   4.929   3.739   4.406
 7629TIP3    H222852   4.970   3.796   4.272
 7630TIP3   OH222853   1.763   0.626   3.773
 7630TIP3    H122854   1.752   0.584   3.688
 7630TIP3    H222855   1.815   0.704   3.755
 7631TIP3   OH222856   1.930   6.615   0.414
 7631TIP3    H122857   1.960   6.653   0.332
 7631TIP3    H222858   1.851   6.565   0.390
 7632TIP3   OH222859   4.251   2.071   3.149
 7632TIP3    H122860   4.188   2.040   3.213
 7632TIP3    H222861   4.330   2.089   3.201
 7633TIP3   OH222862   5.852   5.219   0.918
 7633TIP3    H122863   5.929   5.266   0.949
 7633TIP3    H222864   5.835   5.257   0.831
 7634TIP3   OH222865   3.769   2.582   0.172
 7634TIP3    H122866   3.852   2.592   0.126
 7634TIP3    H222867   3.714   2.653   0.138
 7635TIP3   OH222868   0.946   6.268   1.318
 7635TIP3    H122869   0.914   6.214   1.390
 7635TIP3    H222870   1.006   6.329   1.359
 7636TIP3   OH222871   0.349   1.669   5.366
 7636TIP3    H122872   0.356   1.574   5.377
 7636TIP3    H222873   0.421   1.691   5.307
 7637TIP3   OH222874   2.052   0.633   5.327
 7637TIP3    H122875   2.101   0.558   5.362
 7637TIP3    H222876   1.981   0.647   5.389
 7638TIP3   OH222877   3.882   0.484   4.473
 7638TIP3    H122878   3.808   0.428   4.498
 7638TIP3    H222879   3.885   0.551   4.541
 7639TIP3   OH222880   3.868   1.782   0.759
 7639TIP3    H122881   3.806   1.738   0.701
 7639TIP3    H222882   3.953   1.771   0.716
 7640TIP3   OH222883   4.400   2.209   0.274
 7640TIP3    H122884   4.432   2.285   0.226
 7640TIP3    H222885   4.397   2.139   0.210
 7641TIP3   OH222886   5.588   3.852   5.040
 7641TIP3    H122887   5.679   3.852   5.069
 7641TIP3    H222888   5.540   3.890   5.113
 7642TIP3   OH222889   1.426   4.017   4.727
 7642TIP3    H122890   1.396   4.031   4.638
 7642TIP3    H222891   1.347   4.022   4.780
 7643TIP3   OH222892   1.261   4.635   2.183
 7643TIP3    H122893   1.207   4.714   2.171
 7643TIP3    H222894   1.249   4.612   2.275
 7644TIP3   OH222895   2.598   5.371   2.125
 7644TIP3    H122896   2.677   5.319   2.137
 7644TIP3    H222897   2.597   5.394   2.033
 7645TIP3   OH222898   1.517   3.287   3.221
 7645TIP3    H122899   1.488   3.281   3.312
 7645TIP3    H222900   1.442   3.257   3.170
 7646TIP3   OH222901   0.259   6.289  -0.023
 7646TIP3    H122902   0.248   6.266   0.069
 7646TIP3    H222903   0.209   6.222  -0.071
 7647TIP3   OH222904   3.338   5.665   2.814
 7647TIP3    H122905   3.361   5.663   2.721
 7647TIP3    H222906   3.420   5.646   2.859
 7648TIP3   OH222907   2.359   0.248   1.957
 7648TIP3    H122908   2.321   0.270   2.042
 7648TIP3    H222909   2.353   0.152   1.952
 7649TIP3   OH222910   2.493   6.589   3.560
 7649TIP3    H122911   2.561   6.608   3.495
 7649TIP3    H222912   2.514   6.501   3.592
 7650TIP3   OH222913   6.114   5.336   0.796
 7650TIP3    H122914   6.032   5.339   0.746
 7650TIP3    H222915   6.088   5.357   0.885
 7651TIP3   OH222916   5.832   0.092   4.258
 7651TIP3    H122917   5.782   0.012   4.270
 7651TIP3    H222918   5.867   0.111   4.346
 7652TIP3   OH222919   4.177   3.312   2.726
 7652TIP3    H122920   4.205   3.227   2.693
 7652TIP3    H222921   4.085   3.299   2.750
 7653TIP3   OH222922   6.584   2.403   5.329
 7653TIP3    H122923   6.580   2.310   5.308
 7653TIP3    H222924   6.518   2.444   5.273
 7654TIP3   OH222925   6.653   2.629   4.320
 7654TIP3    H122926   6.695   2.712   4.301
 7654TIP3    H222927   6.568   2.635   4.275
 7655TIP3   OH222928   1.530   0.543   4.331
 7655TIP3    H122929   1.451   0.489   4.330
 7655TIP3    H222930   1.524   0.597   4.252
 7656TIP3   OH222931   0.637   0.933   3.314
 7656TIP3    H122932   0.590   0.866   3.265
 7656TIP3    H222933   0.573   1.003   3.326
 7657TIP3   OH222934   1.101   6.696   4.328
 7657TIP3    H122935   1.048   6.669   4.253
 7657TIP3    H222936   1.056   6.659   4.404
 7658TIP3   OH222937   5.248   1.306   5.068
 7658TIP3    H122938   5.316   1.296   5.134
 7658TIP3    H222939   5.280   1.377   5.012
 7659TIP3   OH222940   3.960   0.975   3.040
 7659TIP3    H122941   3.879   0.987   2.991
 7659TIP3    H222942   4.029   1.012   2.984
 7660TIP3   OH222943   4.534   0.299   2.325
 7660TIP3    H122944   4.455   0.246   2.325
 7660TIP3    H222945   4.566   0.295   2.235
 7661TIP3   OH222946   5.414   6.503   3.454
 7661TIP3    H122947   5.498   6.469   3.424
 7661TIP3    H222948   5.393   6.451   3.532
 7662TIP3   OH222949   6.096   6.585   2.170
 7662TIP3    H122950   6.044   6.538   2.235
 7662TIP3    H222951   6.064   6.675   2.173
 7663TIP3   OH222952   2.803   4.691   0.452
 7663TIP3    H122953   2.859   4.768   0.448
 7663TIP3    H222954   2.848   4.632   0.513
 7664TIP3   OH222955   0.428   5.776   1.158
 7664TIP3    H122956   0.471   5.715   1.100
 7664TIP3    H222957   0.420   5.730   1.241
 7665TIP3   OH222958   3.118   5.647   0.581
 7665TIP3    H122959   3.185   5.609   0.638
 7665TIP3    H222960   3.163   5.715   0.532
 7666TIP3   OH222961   0.204   5.044   2.357
 7666TIP3    H122962   0.237   5.114   2.413
 7666TIP3    H222963   0.192   4.969   2.416
 7667TIP3   OH222964   3.589   3.754   3.665
 7667TIP3    H122965   3.561   3.704   3.741
 7667TIP3    H222966   3.648   3.821   3.701
 7668TIP3   OH222967   7.031   4.070   4.485
 7668TIP3    H122968   7.124   4.081   4.504
 7668TIP3    H222969   7.026   4.072   4.389
 7669TIP3   OH222970   5.787   1.847   5.555
 7669TIP3    H122971   5.835   1.784   5.501
 7669TIP3    H222972   5.856   1.902   5.593
 7670TIP3   OH222973   3.296   6.456   4.622
 7670TIP3    H122974   3.255   6.400   4.687
 7670TIP3    H222975   3.240   6.449   4.545
 7671TIP3   OH222976   3.671   4.327   0.245
 7671TIP3    H122977   3.583   4.291   0.240
 7671TIP3    H222978   3.676   4.366   0.332
 7672TIP3   OH222979   6.114   1.777   1.471
 7672TIP3    H122980   6.130   1.740   1.384
 7672TIP3    H222981   6.162   1.860   1.471
 7673TIP3   OH222982   3.544   4.734   3.002
 7673TIP3    H122983   3.508   4.822   3.001
 7673TIP3    H222984   3.633   4.744   2.967
 7674TIP3   OH222985   4.597   2.861   4.045
 7674TIP3    H122986   4.666   2.847   3.980
 7674TIP3    H222987   4.516   2.844   3.997
 7675TIP3   OH222988   4.673   2.742   1.995
 7675TIP3    H122989   4.643   2.660   1.956
 7675TIP3    H222990   4.623   2.810   1.950
 7676TIP3   OH222991   0.515   2.190   2.798
 7676TIP3    H122992   0.420   2.189   2.814
 7676TIP3    H222993   0.524   2.229   2.711
 7677TIP3   OH222994   2.328   2.585   3.814
 7677TIP3    H122995   2.379   2.601   3.894
 7677TIP3    H222996   2.292   2.497   3.826
 7678TIP3   OH222997   4.087   3.636   2.115
 7678TIP3    H122998   4.077   3.730   2.130
 7678TIP3    H222999   4.119   3.629   2.025
 7679TIP3   OH223000   6.813   0.747   2.229
 7679TIP3    H123001   6.787   0.676   2.171
 7679TIP3    H223002   6.742   0.755   2.292
 7680TIP3   OH223003   6.308   4.993   2.250
 7680TIP3    H123004   6.392   5.017   2.290
 7680TIP3    H223005   6.311   5.032   2.163
 7681TIP3   OH223006   0.529   1.467   1.283
 7681TIP3    H123007   0.553   1.471   1.375
 7681TIP3    H223008   0.450   1.413   1.281
 7682TIP3   OH223009   0.758   3.210   0.616
 7682TIP3    H123010   0.834   3.258   0.647
 7682TIP3    H223011   0.786   3.119   0.614
 7683TIP3   OH223012   6.868   4.145   5.020
 7683TIP3    H123013   6.784   4.118   5.056
 7683TIP3    H223014   6.852   4.157   4.926
 7684TIP3   OH223015   0.325   1.302   2.304
 7684TIP3    H123016   0.420   1.302   2.314
 7684TIP3    H223017   0.299   1.393   2.323
 7685TIP3   OH223018   0.357   3.314   0.438
 7685TIP3    H123019   0.344   3.408   0.424
 7685TIP3    H223020   0.397   3.308   0.524
 7686TIP3   OH223021   1.506   4.373   2.205
 7686TIP3    H123022   1.514   4.348   2.113
 7686TIP3    H223023   1.417   4.347   2.229
 7687TIP3   OH223024   3.322   2.443   5.856
 7687TIP3    H123025   3.413   2.473   5.866
 7687TIP3    H223026   3.300   2.464   5.765
 7688TIP3   OH223027   4.619   6.248   4.304
 7688TIP3    H123028   4.542   6.194   4.287
 7688TIP3    H223029   4.693   6.189   4.292
 7689TIP3   OH223030   0.858   3.429   1.842
 7689TIP3    H123031   0.863   3.446   1.748
 7689TIP3    H223032   0.917   3.493   1.881
 7690TIP3   OH223033   5.474   0.842   1.225
 7690TIP3    H123034   5.452   0.792   1.146
 7690TIP3    H223035   5.390   0.876   1.256
 7691TIP3   OH223036   0.781   3.275   1.371
 7691TIP3    H123037   0.845   3.207   1.348
 7691TIP3    H223038   0.822   3.357   1.343
 7692TIP3   OH223039   1.871   1.515   3.592
 7692TIP3    H123040   1.897   1.424   3.607
 7692TIP3    H223041   1.950   1.565   3.612
 7693TIP3   OH223042   7.014   5.063   1.433
 7693TIP3    H123043   7.026   4.981   1.385
 7693TIP3    H223044   7.014   5.131   1.365
 7694TIP3   OH223045   4.005   5.271   0.158
 7694TIP3    H123046   4.100   5.264   0.157
 7694TIP3    H223047   3.980   5.274   0.065
 7695TIP3   OH223048   5.319   6.261   5.404
 7695TIP3    H123049   5.266   6.325   5.358
 7695TIP3    H223050   5.336   6.301   5.489
 7696TIP3   OH223051   3.633   0.791   4.830
 7696TIP3    H123052   3.636   0.838   4.913
 7696TIP3    H223053   3.542   0.800   4.800
 7697TIP3   OH223054   4.229   3.895   3.931
 7697TIP3    H123055   4.306   3.924   3.882
 7697TIP3    H223056   4.250   3.805   3.957
 7698TIP3   OH223057   2.080   6.538   5.569
 7698TIP3    H123058   1.991   6.525   5.600
 7698TIP3    H223059   2.070   6.574   5.481
 7699TIP3   OH223060   1.660   5.913   4.156
 7699TIP3    H123061   1.678   5.994   4.109
 7699TIP3    H223062   1.600   5.939   4.226
 7700TIP3   OH223063   0.424   5.083   4.143
 7700TIP3    H123064   0.369   5.050   4.214
 7700TIP3    H223065   0.387   5.169   4.122
 7701TIP3   OH223066   3.101   3.567   4.753
 7701TIP3    H123067   3.179   3.621   4.737
 7701TIP3    H223068   3.107   3.497   4.688
 7702TIP3   OH223069   7.147   3.203   5.730
 7702TIP3    H123070   7.232   3.169   5.757
 7702TIP3    H223071   7.167   3.280   5.676
 7703TIP3   OH223072   2.949   6.058   2.446
 7703TIP3    H123073   2.862   6.075   2.481
 7703TIP3    H223074   2.940   6.070   2.352
 7704TIP3   OH223075   6.447   3.150   1.586
 7704TIP3    H123076   6.418   3.062   1.609
 7704TIP3    H223077   6.412   3.206   1.655
 7705TIP3   OH223078   3.766   6.668   0.704
 7705TIP3    H123079   3.681   6.687   0.745
 7705TIP3    H223080   3.829   6.720   0.753
 7706TIP3   OH223081   4.310   0.162   4.147
 7706TIP3    H123082   4.325   0.232   4.084
 7706TIP3    H223083   4.224   0.182   4.184
 7707TIP3   OH223084   4.857   2.193   5.841
 7707TIP3    H123085   4.913   2.160   5.771
 7707TIP3    H223086   4.826   2.278   5.808
 7708TIP3   OH223087   3.415   2.198   3.788
 7708TIP3    H123088   3.361   2.162   3.717
 7708TIP3    H223089   3.393   2.144   3.864
 7709TIP3   OH223090   3.662   0.083   4.632
 7709TIP3    H123091   3.568   0.098   4.633
 7709TIP3    H223092   3.685   0.083   4.539
 7710TIP3   OH223093   6.798   6.370   0.752
 7710TIP3    H123094   6.808   6.295   0.694
 7710TIP3    H223095   6.836   6.341   0.835
 7711TIP3   OH223096   1.397   3.909   1.891
 7711TIP3    H123097   1.472   3.968   1.886
 7711TIP3    H223098   1.334   3.956   1.946
 7712TIP3   OH223099   5.338   5.121   1.442
 7712TIP3    H123100   5.293   5.062   1.382
 7712TIP3    H223101   5.311   5.209   1.415
 7713TIP3   OH223102   4.688   1.599   2.010
 7713TIP3    H123103   4.738   1.532   1.964
 7713TIP3    H223104   4.607   1.554   2.037
 7714TIP3   OH223105   1.241   2.520   5.113
 7714TIP3    H123106   1.252   2.566   5.196
 7714TIP3    H223107   1.282   2.578   5.048
 7715TIP3   OH223108   0.044   0.738   5.414
 7715TIP3    H123109   0.122   0.732   5.469
 7715TIP3    H223110   0.034   0.831   5.396
 7716TIP3   OH223111   4.481   1.314   0.960
 7716TIP3    H123112   4.488   1.408   0.941
 7716TIP3    H223113   4.400   1.306   1.010
 7717TIP3   OH223114   6.709   5.625   3.469
 7717TIP3    H123115   6.774   5.609   3.538
 7717TIP3    H223116   6.671   5.710   3.491
 7718TIP3   OH223117   4.916   3.631   0.478
 7718TIP3    H123118   5.005   3.664   0.493
 7718TIP3    H223119   4.926   3.536   0.478
 7719TIP3   OH223120   2.632   0.012   0.145
 7719TIP3    H123121   2.557   0.024   0.202
 7719TIP3    H223122   2.689   0.086   0.165
 7720TIP3   OH223123   5.099   4.400   3.740
 7720TIP3    H123124   5.105   4.355   3.655
 7720TIP3    H223125   5.184   4.385   3.781
 7721TIP3   OH223126   3.611   1.909   4.828
 7721TIP3    H123127   3.686   1.891   4.772
 7721TIP3    H223128   3.546   1.949   4.770
 7722TIP3   OH223129   3.419   1.716   1.948
 7722TIP3    H123130   3.452   1.701   2.037
 7722TIP3    H223131   3.496   1.744   1.899
 7723TIP3   OH223132   2.522   4.973   5.545
 7723TIP3    H123133   2.427   4.972   5.541
 7723TIP3    H223134   2.550   4.987   5.454
 7724TIP3   OH223135   1.346   2.738   2.643
 7724TIP3    H123136   1.400   2.684   2.586
 7724TIP3    H223137   1.404   2.761   2.716
 7725TIP3   OH223138   5.787   2.238   2.176
 7725TIP3    H123139   5.852   2.226   2.245
 7725TIP3    H223140   5.805   2.168   2.113
 7726TIP3   OH223141   5.121   1.443   2.441
 7726TIP3    H123142   5.172   1.520   2.468
 7726TIP3    H223143   5.062   1.426   2.515
 7727TIP3   OH223144   7.184   0.257   3.945
 7727TIP3    H123145   7.196   0.304   4.028
 7727TIP3    H223146   7.247   0.297   3.885
 7728TIP3   OH223147   2.417   6.559   0.896
 7728TIP3    H123148   2.354   6.606   0.841
 7728TIP3    H223149   2.492   6.618   0.903
 7729TIP3   OH223150   3.327   3.808   5.841
 7729TIP3    H123151   3.243   3.852   5.826
 7729TIP3    H223152   3.313   3.720   5.806
 7730TIP3   OH223153   1.539   1.859   0.273
 7730TIP3    H123154   1.598   1.783   0.269
 7730TIP3    H223155   1.570   1.916   0.203
 7731TIP3   OH223156   6.230   5.692   1.940
 7731TIP3    H123157   6.174   5.759   1.980
 7731TIP3    H223158   6.189   5.675   1.855
 7732TIP3   OH223159   0.698   4.858   5.046
 7732TIP3    H123160   0.737   4.822   4.966
 7732TIP3    H223161   0.728   4.949   5.049
 7733TIP3   OH223162   1.556   6.392   0.273
 7733TIP3    H123163   1.518   6.457   0.215
 7733TIP3    H223164   1.550   6.431   0.360
 7734TIP3   OH223165   4.878   3.115   1.702
 7734TIP3    H123166   4.795   3.094   1.658
 7734TIP3    H223167   4.896   3.040   1.758
 7735TIP3   OH223168   6.563   4.982   1.043
 7735TIP3    H123169   6.489   4.925   1.066
 7735TIP3    H223170   6.566   4.980   0.948
 7736TIP3   OH223171   1.168   5.086   3.905
 7736TIP3    H123172   1.079   5.056   3.921
 7736TIP3    H223173   1.216   5.006   3.880
 7737TIP3   OH223174   0.834   1.844   1.237
 7737TIP3    H123175   0.895   1.850   1.164
 7737TIP3    H223176   0.762   1.790   1.203
 7738TIP3   OH223177   6.309   0.494   1.683
 7738TIP3    H123178   6.354   0.409   1.681
 7738TIP3    H223179   6.261   0.494   1.765
 7739TIP3   OH223180   6.467   3.986   4.433
 7739TIP3    H123181   6.511   4.008   4.351
 7739TIP3    H223182   6.492   3.895   4.450
 7740TIP3   OH223183   1.476   5.966   3.774
 7740TIP3    H123184   1.419   5.920   3.713
 7740TIP3    H223185   1.550   5.908   3.787
 7741TIP3   OH223186   3.482   6.399   2.864
 7741TIP3    H123187   3.424   6.324   2.851
 7741TIP3    H223188   3.434   6.456   2.924
 7742TIP3   OH223189   3.084   6.087   0.787
 7742TIP3    H123190   3.168   6.043   0.787
 7742TIP3    H223191   3.076   6.125   0.699
 7743TIP3   OH223192   6.694   5.448   1.001
 7743TIP3    H123193   6.645   5.403   0.933
 7743TIP3    H223194   6.628   5.487   1.057
 7744TIP3   OH223195   5.789   5.845   2.385
 7744TIP3    H123196   5.884   5.841   2.387
 7744TIP3    H223197   5.763   5.844   2.477
 7745TIP3   OH223198   3.611   0.589   3.193
 7745TIP3    H123199   3.522   0.588   3.228
 7745TIP3    H223200   3.615   0.668   3.140
 7746TIP3   OH223201   3.929   3.038   4.461
 7746TIP3    H123202   3.921   3.056   4.555
 7746TIP3    H223203   3.862   2.973   4.443
 7747TIP3   OH223204   5.553   1.074   2.348
 7747TIP3    H123205   5.578   1.104   2.261
 7747TIP3    H223206   5.471   1.119   2.367
 7748TIP3   OH223207   1.002   3.772   2.676
 7748TIP3    H123208   0.926   3.764   2.618
 7748TIP3    H223209   0.966   3.804   2.758
 7749TIP3   OH223210   4.524   6.803   1.190
 7749TIP3    H123211   4.532   6.728   1.249
 7749TIP3    H223212   4.606   6.851   1.201
 7750TIP3   OH223213   5.116   3.401   2.403
 7750TIP3    H123214   5.147   3.400   2.313
 7750TIP3    H223215   5.047   3.334   2.407
 7751TIP3   OH223216   7.146   0.532   5.743
 7751TIP3    H123217   7.224   0.540   5.798
 7751TIP3    H223218   7.120   0.623   5.725
 7752TIP3   OH223219   5.088   3.867   3.234
 7752TIP3    H123220   5.019   3.879   3.168
 7752TIP3    H223221   5.063   3.789   3.282
 7753TIP3   OH223222   6.006   1.902   4.771
 7753TIP3    H123223   6.000   1.814   4.734
 7753TIP3    H223224   6.092   1.904   4.814
 7754TIP3   OH223225   5.645   2.877   1.780
 7754TIP3    H123226   5.576   2.863   1.715
 7754TIP3    H223227   5.719   2.908   1.729
 7755TIP3   OH223228   2.405   6.406   0.260
 7755TIP3    H123229   2.469   6.478   0.264
 7755TIP3    H223230   2.458   6.328   0.243
 7756TIP3   OH223231   3.502   6.048   2.428
 7756TIP3    H123232   3.594   6.066   2.445
 7756TIP3    H223233   3.458   6.062   2.512
 7757TIP3   OH223234   4.053   5.471   0.947
 7757TIP3    H123235   4.044   5.538   0.878
 7757TIP3    H223236   3.966   5.466   0.986
 7758TIP3   OH223237   4.957   6.106   2.548
 7758TIP3    H123238   4.977   6.197   2.571
 7758TIP3    H223239   4.885   6.082   2.606
 7759TIP3   OH223240   0.564   0.533   5.515
 7759TIP3    H123241   0.552   0.438   5.506
 7759TIP3    H223242   0.659   0.545   5.522
 7760TIP3   OH223243   5.308   1.307   0.051
 7760TIP3    H123244   5.399   1.309   0.079
 7760TIP3    H223245   5.305   1.238  -0.015
 7761TIP3   OH223246   2.193   1.681   4.738
 7761TIP3    H123247   2.106   1.650   4.712
 7761TIP3    H223248   2.234   1.711   4.657
 7762TIP3   OH223249   4.354   0.953   5.713
 7762TIP3    H123250   4.274   0.982   5.757
 7762TIP3    H223251   4.422   0.957   5.781
 7763TIP3   OH223252   4.506   5.970   2.945
 7763TIP3    H123253   4.586   5.917   2.949
 7763TIP3    H223254   4.492   5.999   3.036
 7764TIP3   OH223255   5.566   1.215   0.643
 7764TIP3    H123256   5.476   1.190   0.623
 7764TIP3    H223257   5.605   1.136   0.680
 7765TIP3   OH223258   1.292   2.458   0.384
 7765TIP3    H123259   1.383   2.472   0.412
 7765TIP3    H223260   1.250   2.543   0.395
 7766TIP3   OH223261   2.173   2.386   0.824
 7766TIP3    H123262   2.214   2.469   0.847
 7766TIP3    H223263   2.242   2.336   0.781
 7767TIP3   OH223264   4.737   2.921   2.616
 7767TIP3    H123265   4.725   2.975   2.694
 7767TIP3    H223266   4.826   2.941   2.586
 7768TIP3   OH223267   0.227   5.111   1.198
 7768TIP3    H123268   0.220   5.043   1.131
 7768TIP3    H223269   0.161   5.176   1.173
 7769TIP3   OH223270   4.442   6.552   0.901
 7769TIP3    H123271   4.379   6.609   0.945
 7769TIP3    H223272   4.413   6.463   0.922
 7770TIP3   OH223273   0.555   2.518   4.701
 7770TIP3    H123274   0.575   2.533   4.794
 7770TIP3    H223275   0.508   2.435   4.700
 7771TIP3   OH223276   1.256   5.504   2.589
 7771TIP3    H123277   1.187   5.494   2.654
 7771TIP3    H223278   1.224   5.573   2.531
 7772TIP3   OH223279   6.071   5.457   4.566
 7772TIP3    H123280   6.100   5.414   4.646
 7772TIP3    H223281   5.989   5.412   4.543
 7773TIP3   OH223282   1.008   5.375   1.252
 7773TIP3    H123283   0.969   5.407   1.171
 7773TIP3    H223284   1.059   5.298   1.226
 7774TIP3   OH223285   3.256   4.943   2.043
 7774TIP3    H123286   3.215   4.876   2.097
 7774TIP3    H223287   3.243   4.912   1.953
 7775TIP3   OH223288   2.675   1.674   4.021
 7775TIP3    H123289   2.588   1.707   3.997
 7775TIP3    H223290   2.682   1.591   3.976
 7776TIP3   OH223291   2.157   1.864   3.866
 7776TIP3    H123292   2.131   1.956   3.858
 7776TIP3    H223293   2.122   1.837   3.951
 7777TIP3   OH223294   0.219   5.725   4.044
 7777TIP3    H123295   0.186   5.802   3.996
 7777TIP3    H223296   0.289   5.760   4.100
 7778TIP3   OH223297   1.687   5.649   4.264
 7778TIP3    H123298   1.697   5.729   4.212
 7778TIP3    H223299   1.726   5.671   4.348
 7779TIP3   OH223300   3.507   1.204   2.385
 7779TIP3    H123301   3.516   1.130   2.446
 7779TIP3    H223302   3.546   1.278   2.432
 7780TIP3   OH223303   1.844   1.831   2.357
 7780TIP3    H123304   1.862   1.893   2.427
 7780TIP3    H223305   1.888   1.750   2.385
 7781TIP3   OH223306   6.710   6.426   3.055
 7781TIP3    H123307   6.643   6.410   3.122
 7781TIP3    H223308   6.791   6.391   3.092
 7782TIP3   OH223309   6.631   4.571   3.860
 7782TIP3    H123310   6.668   4.490   3.824
 7782TIP3    H223311   6.698   4.603   3.920
 7783TIP3   OH223312   1.118   1.522   3.687
 7783TIP3    H123313   1.177   1.593   3.710
 7783TIP3    H223314   1.127   1.459   3.759
 7784TIP3   OH223315   1.608   2.940   0.135
 7784TIP3    H123316   1.572   2.913   0.220
 7784TIP3    H223317   1.658   3.020   0.155
 7785TIP3   OH223318   6.498   1.556   5.043
 7785TIP3    H123319   6.567   1.519   5.099
 7785TIP3    H223320   6.543   1.581   4.963
 7786TIP3   OH223321   3.172   5.290   4.659
 7786TIP3    H123322   3.128   5.269   4.742
 7786TIP3    H223323   3.100   5.301   4.596
 7787TIP3   OH223324   0.508   3.614   1.717
 7787TIP3    H123325   0.534   3.522   1.711
 7787TIP3    H223326   0.567   3.660   1.657
 7788TIP3   OH223327   6.515   4.997   3.999
 7788TIP3    H123328   6.474   4.911   4.013
 7788TIP3    H223329   6.524   5.033   4.086
 7789TIP3   OH223330   0.391   5.311   3.574
 7789TIP3    H123331   0.392   5.397   3.615
 7789TIP3    H223332   0.483   5.292   3.555
 7790TIP3   OH223333   6.395   3.030   2.278
 7790TIP3    H123334   6.449   2.965   2.323
 7790TIP3    H223335   6.309   3.022   2.319
 7791TIP3   OH223336   0.375   0.702   5.434
 7791TIP3    H123337   0.447   0.649   5.470
 7791TIP3    H223338   0.363   0.772   5.498
 7792TIP3   OH223339   6.371   4.228   1.205
 7792TIP3    H123340   6.329   4.153   1.247
 7792TIP3    H223341   6.357   4.301   1.265
 7793TIP3   OH223342   5.130   0.709   2.614
 7793TIP3    H123343   5.047   0.715   2.566
 7793TIP3    H223344   5.160   0.800   2.622
 7794TIP3   OH223345   3.033   6.144   5.478
 7794TIP3    H123346   3.096   6.135   5.407
 7794TIP3    H223347   2.949   6.122   5.439
 7795TIP3   OH223348   1.951   1.899   5.335
 7795TIP3    H123349   1.987   1.967   5.392
 7795TIP3    H223350   1.912   1.835   5.394
 7796TIP3   OH223351   6.232   1.748   2.637
 7796TIP3    H123352   6.146   1.706   2.649
 7796TIP3    H223353   6.240   1.807   2.712
 7797TIP3   OH223354   5.943   0.550   5.446
 7797TIP3    H123355   5.854   0.570   5.474
 7797TIP3    H223356   5.992   0.540   5.528
 7798TIP3   OH223357   7.161   5.157   3.370
 7798TIP3    H123358   7.106   5.180   3.295
 7798TIP3    H223359   7.148   5.063   3.381
 7799TIP3   OH223360   1.396   2.860   4.480
 7799TIP3    H123361   1.402   2.862   4.576
 7799TIP3    H223362   1.472   2.809   4.452
 7800TIP3   OH223363   5.686   5.681   4.079
 7800TIP3    H123364   5.606   5.638   4.110
 7800TIP3    H223365   5.757   5.623   4.107
 7801TIP3   OH223366   5.645   2.020   5.805
 7801TIP3    H123367   5.631   2.062   5.720
 7801TIP3    H223368   5.565   2.037   5.854
 7802TIP3   OH223369   1.517   2.391   1.698
 7802TIP3    H123370   1.469   2.366   1.777
 7802TIP3    H223371   1.512   2.314   1.642
 7803TIP3   OH223372   7.150   0.404   3.679
 7803TIP3    H123373   7.166   0.440   3.592
 7803TIP3    H223374   7.172   0.311   3.671
 7804TIP3   OH223375   6.823   1.251   1.508
 7804TIP3    H123376   6.760   1.271   1.576
 7804TIP3    H223377   6.848   1.160   1.524
 7805TIP3   OH223378   5.968   3.739   3.594
 7805TIP3    H123379   5.884   3.702   3.566
 7805TIP3    H223380   5.993   3.686   3.670
 7806TIP3   OH223381   3.207   4.853   1.791
 7806TIP3    H123382   3.212   4.786   1.722
 7806TIP3    H223383   3.113   4.871   1.799
 7807TIP3   OH223384   6.999   1.800   3.245
 7807TIP3    H123385   7.052   1.724   3.219
 7807TIP3    H223386   6.953   1.826   3.165
 7808TIP3   OH223387   3.381   2.800   5.505
 7808TIP3    H123388   3.396   2.866   5.573
 7808TIP3    H223389   3.461   2.803   5.452
 7809TIP3   OH223390   2.901   2.973   2.199
 7809TIP3    H123391   2.917   3.001   2.289
 7809TIP3    H223392   2.838   3.036   2.165
 7810TIP3   OH223393   2.210   6.566   0.069
 7810TIP3    H123394   2.253   6.576  -0.016
 7810TIP3    H223395   2.230   6.476   0.095
 7811TIP3   OH223396   0.546   5.226   3.256
 7811TIP3    H123397   0.586   5.309   3.280
 7811TIP3    H223398   0.454   5.248   3.239
 7812TIP3   OH223399   1.389   1.258   0.240
 7812TIP3    H123400   1.423   1.203   0.171
 7812TIP3    H223401   1.296   1.236   0.245
 7813TIP3   OH223402   3.730   1.636   3.493
 7813TIP3    H123403   3.794   1.641   3.422
 7813TIP3    H223404   3.648   1.616   3.449
 7814TIP3   OH223405   2.183   4.753   1.072
 7814TIP3    H123406   2.271   4.783   1.092
 7814TIP3    H223407   2.189   4.658   1.071
 7815TIP3   OH223408   0.430   1.756   1.304
 7815TIP3    H123409   0.473   1.673   1.285
 7815TIP3    H223410   0.344   1.749   1.265
 7816TIP3   OH223411   3.451   0.218  -0.020
 7816TIP3    H123412   3.523   0.165  -0.054
 7816TIP3    H223413   3.466   0.223   0.074
 7817TIP3   OH223414   1.066   6.355   5.107
 7817TIP3    H123415   1.149   6.359   5.154
 7817TIP3    H223416   1.071   6.427   5.044
 7818TIP3   OH223417   0.530   4.097   2.025
 7818TIP3    H123418   0.533   4.164   1.957
 7818TIP3    H223419   0.621   4.082   2.049
 7819TIP3   OH223420   3.111   1.837   0.655
 7819TIP3    H123421   3.086   1.901   0.722
 7819TIP3    H223422   3.061   1.863   0.577
 7820TIP3   OH223423   4.384   5.114   4.268
 7820TIP3    H123424   4.363   5.089   4.178
 7820TIP3    H223425   4.319   5.069   4.321
 7821TIP3   OH223426   6.691   1.950   2.232
 7821TIP3    H123427   6.659   1.878   2.286
 7821TIP3    H223428   6.655   2.029   2.274
 7822TIP3   OH223429   1.655   2.673   5.743
 7822TIP3    H123430   1.737   2.714   5.718
 7822TIP3    H223431   1.681   2.590   5.784
 7823TIP3   OH223432   5.297   2.235   1.036
 7823TIP3    H123433   5.205   2.261   1.042
 7823TIP3    H223434   5.346   2.317   1.037
 7824TIP3   OH223435   0.915   5.933   0.617
 7824TIP3    H123436   1.001   5.968   0.592
 7824TIP3    H223437   0.883   5.992   0.685
 7825TIP3   OH223438   6.749   0.286   4.187
 7825TIP3    H123439   6.668   0.304   4.139
 7825TIP3    H223440   6.803   0.236   4.125
 7826TIP3   OH223441   3.972   4.949   1.424
 7826TIP3    H123442   4.055   4.911   1.452
 7826TIP3    H223443   3.921   4.957   1.504
 7827TIP3   OH223444   5.177   3.124   4.884
 7827TIP3    H123445   5.105   3.062   4.895
 7827TIP3    H223446   5.208   3.110   4.795
 7828TIP3   OH223447   0.800   2.926   2.304
 7828TIP3    H123448   0.814   2.880   2.387
 7828TIP3    H223449   0.707   2.914   2.285
 7829TIP3   OH223450   1.190   2.968   0.075
 7829TIP3    H123451   1.187   2.970  -0.021
 7829TIP3    H223452   1.168   2.878   0.098
 7830TIP3   OH223453   3.652   3.761   2.599
 7830TIP3    H123454   3.667   3.676   2.640
 7830TIP3    H223455   3.605   3.739   2.518
 7831TIP3   OH223456   1.410   6.668   3.421
 7831TIP3    H123457   1.497   6.637   3.447
 7831TIP3    H223458   1.424   6.706   3.334
 7832TIP3   OH223459   5.102   6.247   4.786
 7832TIP3    H123460   5.098   6.157   4.819
 7832TIP3    H223461   5.151   6.241   4.704
 7833TIP3   OH223462   5.635   4.155   5.419
 7833TIP3    H123463   5.577   4.150   5.343
 7833TIP3    H223464   5.602   4.228   5.470
 7834TIP3   OH223465   0.681   1.444   2.794
 7834TIP3    H123466   0.744   1.395   2.741
 7834TIP3    H223467   0.667   1.526   2.746
 7835TIP3   OH223468   2.731   3.016   4.171
 7835TIP3    H123469   2.637   3.024   4.160
 7835TIP3    H223470   2.748   2.922   4.165
 7836TIP3   OH223471   4.783   3.011   0.332
 7836TIP3    H123472   4.723   2.940   0.310
 7836TIP3    H223473   4.729   3.090   0.328
 7837TIP3   OH223474   5.054   3.028   0.280
 7837TIP3    H123475   5.082   2.954   0.335
 7837TIP3    H223476   4.961   3.013   0.265
 7838TIP3   OH223477   2.113   6.405   4.537
 7838TIP3    H123478   2.087   6.388   4.446
 7838TIP3    H223479   2.122   6.318   4.577
 7839TIP3   OH223480   1.112   3.296   5.056
 7839TIP3    H123481   1.101   3.236   5.130
 7839TIP3    H223482   1.095   3.242   4.979
 7840TIP3   OH223483   5.309   3.829   1.834
 7840TIP3    H123484   5.238   3.769   1.812
 7840TIP3    H223485   5.345   3.856   1.750
 7841TIP3   OH223486   6.551   6.410   4.504
 7841TIP3    H123487   6.518   6.426   4.416
 7841TIP3    H223488   6.562   6.498   4.541
 7842TIP3   OH223489   5.641   5.026   4.156
 7842TIP3    H123490   5.725   5.026   4.203
 7842TIP3    H223491   5.626   5.118   4.134
 7843TIP3   OH223492   6.350   2.913   5.070
 7843TIP3    H123493   6.432   2.959   5.086
 7843TIP3    H223494   6.314   2.955   4.992
 7844TIP3   OH223495   4.023   4.596   5.535
 7844TIP3    H123496   4.057   4.548   5.610
 7844TIP3    H223497   3.943   4.549   5.511
 7845TIP3   OH223498   3.709   3.331   2.468
 7845TIP3    H123499   3.802   3.323   2.446
 7845TIP3    H223500   3.664   3.337   2.384
 7846TIP3   OH223501   4.074   1.153   3.488
 7846TIP3    H123502   4.021   1.084   3.447
 7846TIP3    H223503   4.146   1.105   3.529
 7847TIP3   OH223504   3.391   1.944   5.088
 7847TIP3    H123505   3.395   2.014   5.023
 7847TIP3    H223506   3.333   1.878   5.049
 7848TIP3   OH223507   3.305   3.040   3.751
 7848TIP3    H123508   3.280   3.132   3.754
 7848TIP3    H223509   3.295   3.016   3.659
 7849TIP3   OH223510   6.536   0.416   2.823
 7849TIP3    H123511   6.460   0.473   2.827
 7849TIP3    H223512   6.610   0.475   2.807
 7850TIP3   OH223513   4.837   6.055   1.283
 7850TIP3    H123514   4.793   6.129   1.243
 7850TIP3    H223515   4.891   6.093   1.353
 7851TIP3   OH223516   3.354   3.615   5.166
 7851TIP3    H123517   3.431   3.658   5.129
 7851TIP3    H223518   3.350   3.648   5.256
 7852TIP3   OH223519   1.511   6.360   4.008
 7852TIP3    H123520   1.420   6.336   3.992
 7852TIP3    H223521   1.529   6.330   4.097
 7853TIP3   OH223522   3.076   4.199   2.635
 7853TIP3    H123523   2.984   4.184   2.657
 7853TIP3    H223524   3.076   4.215   2.541
 7854TIP3   OH223525   6.890   3.442   4.185
 7854TIP3    H123526   6.905   3.455   4.091
 7854TIP3    H223527   6.877   3.531   4.219
 7855TIP3   OH223528   2.611   5.599   4.735
 7855TIP3    H123529   2.605   5.596   4.640
 7855TIP3    H223530   2.546   5.536   4.766
 7856TIP3   OH223531   4.902   2.641   3.819
 7856TIP3    H123532   4.921   2.570   3.880
 7856TIP3    H223533   4.987   2.671   3.789
 7857TIP3   OH223534   5.598   2.232   0.909
 7857TIP3    H123535   5.669   2.295   0.925
 7857TIP3    H223536   5.609   2.166   0.978
 7858TIP3   OH223537   1.485   3.594   2.529
 7858TIP3    H123538   1.481   3.587   2.624
 7858TIP3    H223539   1.434   3.672   2.508
 7859TIP3   OH223540   2.298   2.877   3.402
 7859TIP3    H123541   2.357   2.880   3.327
 7859TIP3    H223542   2.305   2.965   3.441
 7860TIP3   OH223543   4.473   0.417   3.583
 7860TIP3    H123544   4.496   0.365   3.660
 7860TIP3    H223545   4.501   0.363   3.509
 7861TIP3   OH223546   5.142   3.267   2.931
 7861TIP3    H123547   5.155   3.333   2.863
 7861TIP3    H223548   5.053   3.283   2.962
 7862TIP3   OH223549   0.133   2.814   3.036
 7862TIP3    H123550   0.079   2.886   3.066
 7862TIP3    H223551   0.173   2.846   2.955
 7863TIP3   OH223552   1.228   5.825   4.167
 7863TIP3    H123553   1.273   5.788   4.242
 7863TIP3    H223554   1.297   5.847   4.105
 7864TIP3   OH223555   6.512   1.747   3.727
 7864TIP3    H123556   6.452   1.673   3.721
 7864TIP3    H223557   6.582   1.727   3.665
 7865TIP3   OH223558   5.174   5.233   4.703
 7865TIP3    H123559   5.102   5.283   4.664
 7865TIP3    H223560   5.178   5.265   4.793
 7866TIP3   OH223561   5.190   2.373   4.155
 7866TIP3    H123562   5.250   2.448   4.155
 7866TIP3    H223563   5.229   2.311   4.216
 7867TIP3   OH223564   5.198   1.647   4.638
 7867TIP3    H123565   5.277   1.674   4.590
 7867TIP3    H223566   5.143   1.725   4.640
 7868TIP3   OH223567   3.321   2.067   2.524
 7868TIP3    H123568   3.385   2.031   2.585
 7868TIP3    H223569   3.254   2.107   2.580
 7869TIP3   OH223570   1.145   0.967   4.107
 7869TIP3    H123571   1.233   0.974   4.145
 7869TIP3    H223572   1.127   1.054   4.072
 7870TIP3   OH223573   5.557   2.680   0.268
 7870TIP3    H123574   5.494   2.683   0.197
 7870TIP3    H223575   5.626   2.740   0.241
 7871TIP3   OH223576   2.382   2.002   4.167
 7871TIP3    H123577   2.460   2.034   4.213
 7871TIP3    H223578   2.414   1.977   4.080
 7872TIP3   OH223579   4.907   1.110   3.121
 7872TIP3    H123580   4.884   1.203   3.126
 7872TIP3    H223581   4.850   1.074   3.053
 7873TIP3   OH223582   3.976   0.602   5.528
 7873TIP3    H123583   4.011   0.550   5.600
 7873TIP3    H223584   3.928   0.673   5.570
 7874TIP3   OH223585   2.596   1.807   0.077
 7874TIP3    H123586   2.572   1.868   0.147
 7874TIP3    H223587   2.564   1.722   0.108
 7875TIP3   OH223588   2.980   4.712   0.096
 7875TIP3    H123589   2.943   4.800   0.103
 7875TIP3    H223590   3.053   4.722   0.035
 7876TIP3   OH223591   6.329   3.700   3.172
 7876TIP3    H123592   6.324   3.778   3.118
 7876TIP3    H223593   6.352   3.733   3.259
 7877TIP3   OH223594   0.074   2.937   4.425
 7877TIP3    H123595   0.086   2.842   4.424
 7877TIP3    H223596  -0.016   2.950   4.455
 7878TIP3   OH223597   0.279   0.148   4.334
 7878TIP3    H123598   0.348   0.167   4.271
 7878TIP3    H223599   0.199   0.144   4.282
 7879TIP3   OH223600   3.863   0.794   3.832
 7879TIP3    H123601   3.821   0.733   3.772
 7879TIP3    H223602   3.816   0.782   3.915
 7880TIP3   OH223603   3.000   3.094   5.347
 7880TIP3    H123604   2.980   3.020   5.290
 7880TIP3    H223605   3.085   3.072   5.386
 7881TIP3   OH223606   7.022   1.182   4.176
 7881TIP3    H123607   6.956   1.231   4.223
 7881TIP3    H223608   7.073   1.249   4.130
 7882TIP3   OH223609   1.758   2.067   4.194
 7882TIP3    H123610   1.804   2.031   4.270
 7882TIP3    H223611   1.695   2.128   4.232
 7883TIP3   OH223612   2.061   0.612   3.462
 7883TIP3    H123613   2.029   0.608   3.372
 7883TIP3    H223614   1.983   0.598   3.516
 7884TIP3   OH223615   2.917   3.235   4.110
 7884TIP3    H123616   2.855   3.168   4.140
 7884TIP3    H223617   2.867   3.287   4.047
 7885TIP3   OH223618   4.734   6.024   2.682
 7885TIP3    H123619   4.680   5.952   2.649
 7885TIP3    H223620   4.679   6.102   2.671
 7886TIP3   OH223621   2.518   2.859   1.393
 7886TIP3    H123622   2.521   2.798   1.467
 7886TIP3    H223623   2.532   2.803   1.316
 7887TIP3   OH223624   4.909   6.170   2.024
 7887TIP3    H123625   4.815   6.189   2.023
 7887TIP3    H223626   4.935   6.183   2.116
 7888TIP3   OH223627   0.870   4.228   3.743
 7888TIP3    H123628   0.849   4.301   3.686
 7888TIP3    H223629   0.816   4.156   3.712
 7889TIP3   OH223630   0.200   2.371   4.688
 7889TIP3    H123631   0.154   2.420   4.619
 7889TIP3    H223632   0.207   2.283   4.653
 7890TIP3   OH223633   6.253   0.626   5.127
 7890TIP3    H123634   6.280   0.688   5.059
 7890TIP3    H223635   6.259   0.540   5.085
 7891TIP3   OH223636   4.022   5.327   1.986
 7891TIP3    H123637   4.033   5.414   1.948
 7891TIP3    H223638   3.964   5.341   2.061
 7892TIP3   OH223639   0.680   5.793   0.656
 7892TIP3    H123640   0.756   5.823   0.607
 7892TIP3    H223641   0.697   5.821   0.746
 7893TIP3   OH223642   4.235   4.179   1.907
 7893TIP3    H123643   4.288   4.126   1.967
 7893TIP3    H223644   4.167   4.216   1.962
 7894TIP3   OH223645   4.107   2.871   2.996
 7894TIP3    H123646   4.018   2.861   3.030
 7894TIP3    H223647   4.156   2.907   3.070
 7895TIP3   OH223648   5.853   5.280   2.422
 7895TIP3    H123649   5.776   5.260   2.475
 7895TIP3    H223650   5.841   5.371   2.396
 7896TIP3   OH223651   0.494   0.232   4.150
 7896TIP3    H123652   0.492   0.320   4.186
 7896TIP3    H223653   0.587   0.209   4.147
 7897TIP3   OH223654   0.897   4.424   3.539
 7897TIP3    H123655   0.895   4.494   3.604
 7897TIP3    H223656   0.808   4.424   3.502
 7898TIP3   OH223657   4.872   5.078   3.334
 7898TIP3    H123658   4.938   5.064   3.266
 7898TIP3    H223659   4.902   5.025   3.408
 7899TIP3   OH223660   1.859   2.573   3.230
 7899TIP3    H123661   1.921   2.646   3.233
 7899TIP3    H223662   1.794   2.599   3.164
 7900TIP3   OH223663   2.708   0.990   5.463
 7900TIP3    H123664   2.664   0.921   5.413
 7900TIP3    H223665   2.797   0.993   5.428
 7901TIP3   OH223666   6.638   4.681   1.919
 7901TIP3    H123667   6.677   4.759   1.879
 7901TIP3    H223668   6.568   4.715   1.975
 7902TIP3   OH223669   5.084   1.603   4.309
 7902TIP3    H123670   5.073   1.541   4.237
 7902TIP3    H223671   5.004   1.596   4.360
 7903TIP3   OH223672   2.987   4.126   1.944
 7903TIP3    H123673   3.005   4.033   1.926
 7903TIP3    H223674   3.008   4.136   2.037
 7904TIP3   OH223675   4.499   4.088   5.131
 7904TIP3    H123676   4.508   4.047   5.045
 7904TIP3    H223677   4.542   4.026   5.191
 7905TIP3   OH223678   4.578   3.292   3.017
 7905TIP3    H123679   4.491   3.322   2.993
 7905TIP3    H223680   4.574   3.276   3.111
 7906TIP3   OH223681   0.270   5.586   0.836
 7906TIP3    H123682   0.294   5.504   0.792
 7906TIP3    H223683   0.175   5.582   0.846
 7907TIP3   OH223684   6.491   3.818   0.115
 7907TIP3    H123685   6.563   3.880   0.105
 7907TIP3    H223686   6.532   3.739   0.150
 7908TIP3   OH223687   4.642   2.637   2.648
 7908TIP3    H123688   4.629   2.675   2.735
 7908TIP3    H223689   4.682   2.707   2.597
 7909TIP3   OH223690   1.655   6.540   2.141
 7909TIP3    H123691   1.636   6.471   2.204
 7909TIP3    H223692   1.639   6.622   2.188
 7910TIP3   OH223693   0.320   0.861   4.606
 7910TIP3    H123694   0.312   0.784   4.550
 7910TIP3    H223695   0.349   0.826   4.690
 7911TIP3   OH223696   5.104   0.493   3.403
 7911TIP3    H123697   5.154   0.453   3.331
 7911TIP3    H223698   5.023   0.442   3.407
 7912TIP3   OH223699   4.992   5.558   4.320
 7912TIP3    H123700   4.978   5.651   4.339
 7912TIP3    H223701   4.904   5.520   4.325
 7913TIP3   OH223702   6.459   1.357   5.689
 7913TIP3    H123703   6.468   1.265   5.666
 7913TIP3    H223704   6.544   1.380   5.726
 7914TIP3   OH223705   3.031   3.148   2.975
 7914TIP3    H123706   3.011   3.241   2.980
 7914TIP3    H223707   2.971   3.106   3.037
 7915TIP3   OH223708   1.303   4.045   2.919
 7915TIP3    H123709   1.300   4.068   3.012
 7915TIP3    H223710   1.291   3.951   2.918
 7916TIP3   OH223711   6.309   1.213   2.995
 7916TIP3    H123712   6.248   1.272   2.950
 7916TIP3    H223713   6.338   1.263   3.072
 7917TIP3   OH223714   1.486   2.319   0.572
 7917TIP3    H123715   1.524   2.239   0.535
 7917TIP3    H223716   1.555   2.384   0.565
 7918TIP3   OH223717   2.363   3.034   4.519
 7918TIP3    H123718   2.309   3.011   4.444
 7918TIP3    H223719   2.327   2.982   4.591
 7919TIP3   OH223720   4.809   1.980   3.745
 7919TIP3    H123721   4.837   1.913   3.807
 7919TIP3    H223722   4.733   2.021   3.788
 7920TIP3   OH223723   5.614   2.951   0.089
 7920TIP3    H123724   5.556   3.015   0.130
 7920TIP3    H223725   5.585   2.948  -0.002
 7921TIP3   OH223726   4.449   1.793   5.118
 7921TIP3    H123727   4.436   1.819   5.209
 7921TIP3    H223728   4.410   1.864   5.067
 7922TIP3   OH223729   4.150   1.995   2.917
 7922TIP3    H123730   4.169   2.024   3.006
 7922TIP3    H223731   4.133   1.901   2.925
 7923TIP3   OH223732   5.048   2.198   0.714
 7923TIP3    H123733   5.115   2.262   0.740
 7923TIP3    H223734   5.055   2.192   0.619
 7924TIP3   OH223735   5.942   4.342   5.310
 7924TIP3    H123736   5.983   4.268   5.264
 7924TIP3    H223737   5.851   4.341   5.280
 7925TIP3   OH223738   3.124   1.423   2.468
 7925TIP3    H123739   3.170   1.422   2.552
 7925TIP3    H223740   3.037   1.388   2.487
 7926TIP3   OH223741   2.884   3.358   1.199
 7926TIP3    H123742   2.880   3.430   1.261
 7926TIP3    H223743   2.807   3.370   1.143
 7927TIP3   OH223744   5.248   2.333   2.482
 7927TIP3    H123745   5.229   2.409   2.428
 7927TIP3    H223746   5.237   2.258   2.423
 7928TIP3   OH223747   0.813   4.642   1.908
 7928TIP3    H123748   0.788   4.734   1.913
 7928TIP3    H223749   0.891   4.641   1.853
 7929TIP3   OH223750   6.183   1.364   0.622
 7929TIP3    H123751   6.127   1.294   0.654
 7929TIP3    H223752   6.122   1.432   0.593
 7930TIP3   OH223753   5.052   4.961   3.854
 7930TIP3    H123754   5.008   4.877   3.868
 7930TIP3    H223755   5.009   5.021   3.914
 7931TIP3   OH223756   5.883   0.795   1.253
 7931TIP3    H123757   5.849   0.711   1.286
 7931TIP3    H223758   5.906   0.844   1.332
 7932TIP3   OH223759   6.236   2.531   1.834
 7932TIP3    H123760   6.219   2.605   1.893
 7932TIP3    H223761   6.329   2.514   1.845
 7933TIP3   OH223762   6.091   3.223   3.914
 7933TIP3    H123763   6.165   3.196   3.967
 7933TIP3    H223764   6.057   3.301   3.957
 7934TIP3   OH223765   5.681   0.326   5.432
 7934TIP3    H123766   5.656   0.406   5.477
 7934TIP3    H223767   5.665   0.256   5.495
 7935TIP3   OH223768   0.542   6.332   2.456
 7935TIP3    H123769   0.630   6.358   2.483
 7935TIP3    H223770   0.555   6.254   2.403
 7936TIP3   OH223771   2.425   1.727   5.696
 7936TIP3    H123772   2.399   1.818   5.686
 7936TIP3    H223773   2.411   1.688   5.610
 7937TIP3   OH223774   0.468   3.298   0.692
 7937TIP3    H123775   0.444   3.276   0.782
 7937TIP3    H223776   0.560   3.275   0.685
 7938TIP3   OH223777   6.020   6.530   1.460
 7938TIP3    H123778   6.084   6.563   1.523
 7938TIP3    H223779   5.977   6.608   1.426
 7939TIP3   OH223780   4.179   4.175   3.408
 7939TIP3    H123781   4.156   4.098   3.356
 7939TIP3    H223782   4.261   4.151   3.451
 7940TIP3   OH223783   0.133   0.431   1.161
 7940TIP3    H123784   0.047   0.473   1.155
 7940TIP3    H223785   0.187   0.478   1.098
 7941TIP3   OH223786   4.502   5.988   1.956
 7941TIP3    H123787   4.548   6.066   1.926
 7941TIP3    H223788   4.433   6.021   2.014
 7942TIP3   OH223789   3.768   4.650   1.507
 7942TIP3    H123790   3.798   4.700   1.430
 7942TIP3    H223791   3.825   4.680   1.578
 7943TIP3   OH223792   0.709   5.787   0.956
 7943TIP3    H123793   0.738   5.869   0.995
 7943TIP3    H223794   0.788   5.733   0.952
 7944TIP3   OH223795   3.523   6.476   0.586
 7944TIP3    H123796   3.606   6.523   0.578
 7944TIP3    H223797   3.545   6.385   0.567
 7945TIP3   OH223798   7.090   0.303   5.261
 7945TIP3    H123799   7.127   0.220   5.292
 7945TIP3    H223800   7.152   0.369   5.291
 7946TIP3   OH223801   3.461   3.223   2.212
 7946TIP3    H123802   3.454   3.246   2.119
 7946TIP3    H223803   3.555   3.210   2.226
 7947TIP3   OH223804   2.438   4.962   1.841
 7947TIP3    H123805   2.370   4.900   1.816
 7947TIP3    H223806   2.497   4.911   1.897
 7948TIP3   OH223807   2.383   2.225   0.736
 7948TIP3    H123808   2.304   2.172   0.732
 7948TIP3    H223809   2.449   2.169   0.776
 7949TIP3   OH223810   2.644   1.745   2.046
 7949TIP3    H123811   2.641   1.673   2.109
 7949TIP3    H223812   2.600   1.711   1.968
 7950TIP3   OH223813   4.409   2.613   2.470
 7950TIP3    H123814   4.446   2.586   2.386
 7950TIP3    H223815   4.485   2.625   2.527
 7951TIP3   OH223816   4.939   4.770   3.361
 7951TIP3    H123817   4.979   4.842   3.312
 7951TIP3    H223818   4.898   4.716   3.294
 7952TIP3   OH223819   0.878   4.151   4.630
 7952TIP3    H123820   0.971   4.129   4.622
 7952TIP3    H223821   0.872   4.241   4.600
 7953TIP3   OH223822   6.856   5.411   3.356
 7953TIP3    H123823   6.947   5.440   3.357
 7953TIP3    H223824   6.806   5.489   3.381
 7954TIP3   OH223825   2.379   2.487   5.100
 7954TIP3    H123826   2.369   2.538   5.181
 7954TIP3    H223827   2.293   2.445   5.089
 7955TIP3   OH223828   3.631   6.649   2.495
 7955TIP3    H123829   3.696   6.695   2.547
 7955TIP3    H223830   3.616   6.567   2.541
 7956TIP3   OH223831   6.332   3.537   2.227
 7956TIP3    H123832   6.297   3.623   2.207
 7956TIP3    H223833   6.419   3.555   2.265
 7957TIP3   OH223834   1.245   4.490   3.655
 7957TIP3    H123835   1.212   4.433   3.724
 7957TIP3    H223836   1.300   4.434   3.600
 7958TIP3   OH223837   4.112   2.680   4.952
 7958TIP3    H123838   4.028   2.723   4.931
 7958TIP3    H223839   4.097   2.588   4.934
 7959TIP3   OH223840   2.219   4.592   4.428
 7959TIP3    H123841   2.193   4.582   4.519
 7959TIP3    H223842   2.182   4.676   4.401
 7960TIP3   OH223843   4.019   2.545   0.016
 7960TIP3    H123844   4.102   2.512   0.051
 7960TIP3    H223845   4.045   2.621  -0.037
 7961TIP3   OH223846   7.188   5.333   1.522
 7961TIP3    H123847   7.111   5.349   1.468
 7961TIP3    H223848   7.171   5.248   1.562
 7962TIP3   OH223849   2.279   6.734   4.510
 7962TIP3    H123850   2.194   6.766   4.477
 7962TIP3    H223851   2.261   6.709   4.600
 7963TIP3   OH223852   5.286   4.269   1.714
 7963TIP3    H123853   5.249   4.290   1.628
 7963TIP3    H223854   5.380   4.281   1.703
 7964TIP3   OH223855   1.981   5.340   5.790
 7964TIP3    H123856   2.055   5.379   5.743
 7964TIP3    H223857   2.020   5.271   5.844
 7965TIP3   OH223858   0.455   1.856   0.645
 7965TIP3    H123859   0.550   1.860   0.641
 7965TIP3    H223860   0.428   1.944   0.669
 7966TIP3   OH223861   7.103   6.128   5.380
 7966TIP3    H123862   7.179   6.132   5.322
 7966TIP3    H223863   7.133   6.078   5.456
 7967TIP3   OH223864   1.027   1.426   1.932
 7967TIP3    H123865   1.116   1.458   1.912
 7967TIP3    H223866   0.976   1.447   1.854
 7968TIP3   OH223867   6.519   1.506   0.262
 7968TIP3    H123868   6.468   1.585   0.241
 7968TIP3    H223869   6.468   1.435   0.224
 7969TIP3   OH223870   7.054   3.742   4.857
 7969TIP3    H123871   7.074   3.657   4.817
 7969TIP3    H223872   7.136   3.767   4.900
 7970TIP3   OH223873   1.859   0.707   4.518
 7970TIP3    H123874   1.836   0.649   4.591
 7970TIP3    H223875   1.874   0.792   4.558
 7971TIP3   OH223876   3.227   5.731   3.190
 7971TIP3    H123877   3.279   5.810   3.202
 7971TIP3    H223878   3.174   5.748   3.112
 7972TIP3   OH223879   4.506   0.676   3.457
 7972TIP3    H123880   4.425   0.718   3.429
 7972TIP3    H223881   4.479   0.588   3.486
 7973TIP3   OH223882   1.641   6.678   2.932
 7973TIP3    H123883   1.649   6.583   2.923
 7973TIP3    H223884   1.723   6.713   2.900
 7974TIP3   OH223885   1.949   2.603   0.286
 7974TIP3    H123886   2.026   2.654   0.260
 7974TIP3    H223887   1.956   2.594   0.381
 7975TIP3   OH223888   2.451   0.678   4.985
 7975TIP3    H123889   2.431   0.623   5.060
 7975TIP3    H223890   2.420   0.628   4.909
 7976TIP3   OH223891   4.554   5.238   5.599
 7976TIP3    H123892   4.614   5.313   5.599
 7976TIP3    H223893   4.611   5.161   5.595
 7977TIP3   OH223894   1.028   4.712   2.605
 7977TIP3    H123895   0.956   4.745   2.660
 7977TIP3    H223896   1.041   4.780   2.540
 7978TIP3   OH223897  -0.007   4.412   3.217
 7978TIP3    H123898   0.016   4.420   3.124
 7978TIP3    H223899   0.076   4.390   3.260
 7979TIP3   OH223900   3.616   2.780   0.051
 7979TIP3    H123901   3.570   2.801  -0.030
 7979TIP3    H223902   3.555   2.724   0.099
 7980TIP3   OH223903   3.361   1.850   0.518
 7980TIP3    H123904   3.325   1.856   0.429
 7980TIP3    H223905   3.287   1.822   0.572
 7981TIP3   OH223906   5.921   3.107   5.742
 7981TIP3    H123907   5.963   3.161   5.675
 7981TIP3    H223908   5.906   3.167   5.815
 7982TIP3   OH223909   0.458   0.789   0.798
 7982TIP3    H123910   0.488   0.839   0.722
 7982TIP3    H223911   0.517   0.714   0.802
 7983TIP3   OH223912   4.749   4.015   4.667
 7983TIP3    H123913   4.715   3.925   4.663
 7983TIP3    H223914   4.681   4.068   4.626
 7984TIP3   OH223915   2.226   5.537   3.913
 7984TIP3    H123916   2.271   5.497   3.839
 7984TIP3    H223917   2.142   5.567   3.877
 7985TIP3   OH223918   4.516   5.709   4.976
 7985TIP3    H123919   4.606   5.735   4.993
 7985TIP3    H223920   4.486   5.768   4.906
 7986TIP3   OH223921   5.869   1.058   2.444
 7986TIP3    H123922   5.801   1.053   2.512
 7986TIP3    H223923   5.946   1.016   2.483
 7987TIP3   OH223924   0.870   0.120   4.941
 7987TIP3    H123925   0.958   0.139   4.909
 7987TIP3    H223926   0.843   0.043   4.890
 7988TIP3   OH223927   0.154   6.488   2.964
 7988TIP3    H123928   0.071   6.508   3.006
 7988TIP3    H223929   0.211   6.561   2.987
 7989TIP3   OH223930   0.727   3.121   1.997
 7989TIP3    H123931   0.710   3.044   1.942
 7989TIP3    H223932   0.706   3.196   1.941
 7990TIP3   OH223933   5.156   6.746   4.766
 7990TIP3    H123934   5.237   6.785   4.799
 7990TIP3    H223935   5.165   6.749   4.671
 7991TIP3   OH223936   3.999   2.785   0.323
 7991TIP3    H123937   3.951   2.838   0.260
 7991TIP3    H223938   4.090   2.814   0.314
 7992TIP3   OH223939   4.200   5.454   3.623
 7992TIP3    H123940   4.164   5.366   3.615
 7992TIP3    H223941   4.291   5.440   3.648
 7993TIP3   OH223942   5.759   1.351   1.917
 7993TIP3    H123943   5.782   1.400   1.996
 7993TIP3    H223944   5.758   1.417   1.847
 7994TIP3   OH223945   4.959   0.302   5.089
 7994TIP3    H123946   4.979   0.241   5.018
 7994TIP3    H223947   5.025   0.371   5.081
 7995TIP3   OH223948   5.775   1.639   2.824
 7995TIP3    H123949   5.725   1.709   2.781
 7995TIP3    H223950   5.780   1.667   2.916
 7996TIP3   OH223951   4.415   2.091   2.858
 7996TIP3    H123952   4.398   2.184   2.841
 7996TIP3    H223953   4.332   2.057   2.891
 7997TIP3   OH223954   5.915   3.587   3.837
 7997TIP3    H123955   5.993   3.606   3.890
 7997TIP3    H223956   5.850   3.558   3.900
 7998TIP3   OH223957   3.220   2.189   2.804
 7998TIP3    H123958   3.178   2.216   2.723
 7998TIP3    H223959   3.217   2.267   2.860
 7999TIP3   OH223960   0.966   4.454   2.150
 7999TIP3    H123961   0.959   4.547   2.131
 7999TIP3    H223962   0.974   4.412   2.065
 8000TIP3   OH223963   0.911   0.090   0.649
 8000TIP3    H123964   0.863   0.148   0.589
 8000TIP3    H223965   1.002   0.095   0.620
 8001TIP3   OH223966   5.898   4.696   3.713
 8001TIP3    H123967   5.890   4.763   3.645
 8001TIP3    H223968   5.920   4.745   3.792
 8002TIP3   OH223969   4.316   4.241   4.715
 8002TIP3    H123970   4.347   4.325   4.680
 8002TIP3    H223971   4.240   4.265   4.769
 8003TIP3   OH223972   0.203   0.728   1.287
 8003TIP3    H123973   0.227   0.800   1.229
 8003TIP3    H223974   0.281   0.672   1.290
 8004TIP3   OH223975   0.480   5.866   2.194
 8004TIP3    H123976   0.572   5.848   2.211
 8004TIP3    H223977   0.478   5.900   2.104
 8005TIP3   OH223978   2.122   2.062   4.306
 8005TIP3    H123979   2.069   2.066   4.226
 8005TIP3    H223980   2.211   2.042   4.275
 8006TIP3   OH223981   6.365   2.133   2.787
 8006TIP3    H123982   6.399   2.093   2.707
 8006TIP3    H223983   6.410   2.218   2.791
 8007TIP3   OH223984   1.149   6.030   3.653
 8007TIP3    H123985   1.183   6.085   3.724
 8007TIP3    H223986   1.163   6.083   3.574
 8008TIP3   OH223987   7.133   5.407   0.393
 8008TIP3    H123988   7.043   5.378   0.409
 8008TIP3    H223989   7.145   5.396   0.299
 8009TIP3   OH223990   3.427   0.471   2.493
 8009TIP3    H123991   3.404   0.455   2.401
 8009TIP3    H223992   3.351   0.441   2.542
 8010TIP3   OH223993   4.278   5.459   2.609
 8010TIP3    H123994   4.271   5.435   2.517
 8010TIP3    H223995   4.188   5.475   2.637
 8011TIP3   OH223996   7.184   3.865   0.786
 8011TIP3    H123997   7.101   3.909   0.805
 8011TIP3    H223998   7.241   3.888   0.859
 8012TIP3   OH223999   0.687   2.356   0.672
 8012TIP3    H124000   0.709   2.385   0.760
 8012TIP3    H224001   0.594   2.375   0.663
 8013TIP3   OH224002   5.364   2.475   4.723
 8013TIP3    H124003   5.287   2.521   4.690
 8013TIP3    H224004   5.432   2.492   4.658
 8014TIP3   OH224005   3.233   3.314   3.702
 8014TIP3    H124006   3.205   3.377   3.768
 8014TIP3    H224007   3.152   3.287   3.659
 8015TIP3   OH224008   1.450   2.222   0.232
 8015TIP3    H124009   1.384   2.166   0.273
 8015TIP3    H224010   1.517   2.232   0.300
 8016TIP3   OH224011   5.924   5.074   1.528
 8016TIP3    H124012   5.833   5.093   1.551
 8016TIP3    H224013   5.964   5.045   1.610
 8017TIP3   OH224014   4.268   4.577   4.682
 8017TIP3    H124015   4.265   4.531   4.766
 8017TIP3    H224016   4.183   4.620   4.676
 8018TIP3   OH224017   1.268   5.565   4.704
 8018TIP3    H124018   1.300   5.650   4.736
 8018TIP3    H224019   1.215   5.588   4.627
 8019TIP3   OH224020   6.190   2.972   0.286
 8019TIP3    H124021   6.155   2.889   0.252
 8019TIP3    H224022   6.116   3.032   0.281
 8020TIP3   OH224023   2.623   6.420   1.388
 8020TIP3    H124024   2.611   6.408   1.293
 8020TIP3    H224025   2.536   6.445   1.420
 8021TIP3   OH224026   0.176   5.130   3.671
 8021TIP3    H124027   0.190   5.151   3.763
 8021TIP3    H224028   0.252   5.168   3.626
 8022TIP3   OH224029   3.950   3.905   2.356
 8022TIP3    H124030   3.970   3.844   2.427
 8022TIP3    H224031   3.877   3.957   2.389
 8023TIP3   OH224032   1.453   2.851   5.613
 8023TIP3    H124033   1.488   2.907   5.682
 8023TIP3    H224034   1.501   2.769   5.621
 8024TIP3   OH224035   0.116   6.292   2.775
 8024TIP3    H124036   0.032   6.307   2.730
 8024TIP3    H224037   0.119   6.361   2.841
 8025TIP3   OH224038   5.280   0.135   5.892
 8025TIP3    H124039   5.213   0.090   5.945
 8025TIP3    H224040   5.232   0.205   5.848
 8026TIP3   OH224041   2.454   3.056   4.221
 8026TIP3    H124042   2.387   2.994   4.249
 8026TIP3    H224043   2.418   3.095   4.141
 8027TIP3   OH224044   7.153   2.106   5.494
 8027TIP3    H124045   7.092   2.168   5.532
 8027TIP3    H224046   7.135   2.110   5.400
 8028TIP3   OH224047   1.740   0.138   0.919
 8028TIP3    H124048   1.833   0.162   0.916
 8028TIP3    H224049   1.694   0.221   0.928
 8029TIP3   OH224050   1.123   6.635   5.828
 8029TIP3    H124051   1.035   6.615   5.796
 8029TIP3    H224052   1.131   6.729   5.818
 8030TIP3   OH224053   5.263   1.714   4.966
 8030TIP3    H124054   5.262   1.781   4.898
 8030TIP3    H224055   5.268   1.762   5.048
 8031TIP3   OH224056   6.733   2.424   5.644
 8031TIP3    H124057   6.694   2.487   5.705
 8031TIP3    H224058   6.792   2.477   5.590
 8032TIP3   OH224059   2.780   3.080   2.842
 8032TIP3    H124060   2.871   3.109   2.838
 8032TIP3    H224061   2.774   3.034   2.926
 8033TIP3   OH224062   0.097   2.277   2.058
 8033TIP3    H124063   0.042   2.254   1.983
 8033TIP3    H224064   0.122   2.193   2.096
 8034TIP3   OH224065   6.932   2.579  -0.039
 8034TIP3    H124066   6.861   2.515  -0.044
 8034TIP3    H224067   6.891   2.663  -0.056
 8035TIP3   OH224068   5.397   1.040   1.824
 8035TIP3    H124069   5.419   1.130   1.846
 8035TIP3    H224070   5.302   1.041   1.810
 8036TIP3   OH224071   4.490   0.567   4.055
 8036TIP3    H124072   4.463   0.567   3.964
 8036TIP3    H224073   4.575   0.524   4.055
 8037TIP3   OH224074   0.459   6.808   3.547
 8037TIP3    H124075   0.380   6.754   3.552
 8037TIP3    H224076   0.497   6.787   3.461
 8038TIP3   OH224077   3.994   3.180   0.049
 8038TIP3    H124078   3.961   3.090   0.055
 8038TIP3    H224079   3.930   3.233   0.096
 8039TIP3   OH224080   4.249   6.049   3.890
 8039TIP3    H124081   4.194   6.075   3.816
 8039TIP3    H224082   4.188   6.005   3.950
 8040TIP3   OH224083   5.646   3.346   3.872
 8040TIP3    H124084   5.562   3.314   3.906
 8040TIP3    H224085   5.672   3.414   3.934
 8041TIP3   OH224086   5.130  -0.040   4.544
 8041TIP3    H124087   5.070  -0.077   4.609
 8041TIP3    H224088   5.165   0.039   4.587
 8042TIP3   OH224089   2.916   4.992   2.727
 8042TIP3    H124090   2.872   4.953   2.651
 8042TIP3    H224091   2.879   5.080   2.733
 8043TIP3   OH224092   6.439   5.380   3.483
 8043TIP3    H124093   6.466   5.445   3.549
 8043TIP3    H224094   6.459   5.422   3.399
 8044TIP3   OH224095   0.450   1.881   3.160
 8044TIP3    H124096   0.520   1.818   3.177
 8044TIP3    H224097   0.492   1.967   3.171
 8045TIP3   OH224098   1.348   5.276   5.784
 8045TIP3    H124099   1.326   5.314   5.869
 8045TIP3    H224100   1.442   5.261   5.788
 8046TIP3   OH224101   1.150   4.533   0.082
 8046TIP3    H124102   1.220   4.595   0.104
 8046TIP3    H224103   1.164   4.459   0.140
 8047TIP3   OH224104   6.893   1.337   2.363
 8047TIP3    H124105   6.837   1.344   2.286
 8047TIP3    H224106   6.862   1.407   2.421
 8048TIP3   OH224107   2.887   2.490   0.633
 8048TIP3    H124108   2.798   2.457   0.645
 8048TIP3    H224109   2.931   2.470   0.716
 8049TIP3   OH224110   6.490   3.350   0.151
 8049TIP3    H124111   6.523   3.440   0.146
 8049TIP3    H224112   6.533   3.314   0.229
 8050TIP3   OH224113   5.167   0.273   0.072
 8050TIP3    H124114   5.225   0.334   0.027
 8050TIP3    H224115   5.131   0.217   0.003
 8051TIP3   OH224116   4.082   6.142   3.683
 8051TIP3    H124117   4.098   6.155   3.590
 8051TIP3    H224118   3.986   6.137   3.691
 8052TIP3   OH224119   6.517   2.818   2.436
 8052TIP3    H124120   6.598   2.767   2.438
 8052TIP3    H224121   6.523   2.875   2.513
 8053TIP3   OH224122   5.613   6.711   3.982
 8053TIP3    H124123   5.672   6.773   3.938
 8053TIP3    H224124   5.526   6.736   3.951
 8054TIP3   OH224125   2.042   2.886   0.918
 8054TIP3    H124126   2.047   2.893   1.013
 8054TIP3    H224127   1.985   2.958   0.891
 8055TIP3   OH224128   0.485   0.478   1.489
 8055TIP3    H124129   0.511   0.550   1.431
 8055TIP3    H224130   0.548   0.408   1.470
 8056TIP3   OH224131   1.973   3.883   3.890
 8056TIP3    H124132   2.056   3.844   3.917
 8056TIP3    H224133   1.983   3.977   3.907
 8057TIP3   OH224134   1.425   1.941   4.795
 8057TIP3    H124135   1.405   2.010   4.732
 8057TIP3    H224136   1.521   1.934   4.793
 8058TIP3   OH224137   6.806   6.091   4.604
 8058TIP3    H124138   6.747   6.142   4.660
 8058TIP3    H224139   6.865   6.047   4.665
 8059TIP3   OH224140   0.955   4.719   4.519
 8059TIP3    H124141   1.039   4.757   4.546
 8059TIP3    H224142   0.916   4.687   4.601
 8060TIP3   OH224143   1.366   0.621   0.504
 8060TIP3    H124144   1.460   0.601   0.509
 8060TIP3    H224145   1.347   0.666   0.586
 8061TIP3   OH224146   5.054   5.519   0.889
 8061TIP3    H124147   4.994   5.587   0.857
 8061TIP3    H224148   5.102   5.561   0.960
 8062TIP3   OH224149   1.631   1.553   3.476
 8062TIP3    H124150   1.660   1.485   3.415
 8062TIP3    H224151   1.701   1.559   3.540
 8063TIP3   OH224152   6.966   4.883   2.540
 8063TIP3    H124153   6.935   4.930   2.463
 8063TIP3    H224154   7.017   4.810   2.504
 8064TIP3   OH224155   2.553   4.434   2.958
 8064TIP3    H124156   2.541   4.501   3.025
 8064TIP3    H224157   2.633   4.388   2.983
 8065TIP3   OH224158   3.464   4.709   1.479
 8065TIP3    H124159   3.551   4.681   1.508
 8065TIP3    H224160   3.455   4.671   1.392
 8066TIP3   OH224161   3.251   4.961   4.419
 8066TIP3    H124162   3.220   5.051   4.428
 8066TIP3    H224163   3.347   4.968   4.424
 8067TIP3   OH224164   6.804   5.828   5.384
 8067TIP3    H124165   6.816   5.923   5.389
 8067TIP3    H224166   6.721   5.816   5.337
 8068TIP3   OH224167   3.924   0.817   0.833
 8068TIP3    H124168   3.837   0.793   0.803
 8068TIP3    H224169   3.974   0.832   0.752
 8069TIP3   OH224170   1.463   0.467   1.178
 8069TIP3    H124171   1.404   0.535   1.145
 8069TIP3    H224172   1.407   0.407   1.227
 8070TIP3   OH224173   4.165   0.425   4.967
 8070TIP3    H124174   4.144   0.518   4.976
 8070TIP3    H224175   4.149   0.405   4.875
 8071TIP3   OH224176   2.793   2.034   0.167
 8071TIP3    H124177   2.727   1.966   0.184
 8071TIP3    H224178   2.803   2.034   0.072
 8072TIP3   OH224179   1.882   3.127   0.814
 8072TIP3    H124180   1.829   3.071   0.757
 8072TIP3    H224181   1.917   3.194   0.756
 8073TIP3   OH224182   5.791   1.729   0.258
 8073TIP3    H124183   5.734   1.751   0.184
 8073TIP3    H224184   5.738   1.671   0.313
 8074TIP3   OH224185   7.128   1.300   0.207
 8074TIP3    H124186   7.064   1.239   0.173
 8074TIP3    H224187   7.079   1.357   0.266
 8075TIP3   OH224188   0.211   4.566   2.538
 8075TIP3    H124189   0.198   4.582   2.632
 8075TIP3    H224190   0.303   4.540   2.531
 8076TIP3   OH224191   5.399   4.512   0.270
 8076TIP3    H124192   5.323   4.555   0.309
 8076TIP3    H224193   5.363   4.460   0.197
 8077TIP3   OH224194   3.848   4.494   4.848
 8077TIP3    H124195   3.863   4.548   4.771
 8077TIP3    H224196   3.857   4.554   4.922
 8078TIP3   OH224197   4.826   1.538   0.582
 8078TIP3    H124198   4.733   1.534   0.604
 8078TIP3    H224199   4.871   1.511   0.662
 8079TIP3   OH224200   3.802   1.927   3.878
 8079TIP3    H124201   3.732   1.866   3.855
 8079TIP3    H224202   3.873   1.870   3.909
 8080TIP3   OH224203   0.383   1.266   3.808
 8080TIP3    H124204   0.295   1.250   3.773
 8080TIP3    H224205   0.394   1.360   3.803
 8081TIP3   OH224206   1.206   1.332   3.007
 8081TIP3    H124207   1.174   1.254   3.051
 8081TIP3    H224208   1.133   1.393   3.010
 8082TIP3   OH224209   0.044   3.473   1.087
 8082TIP3    H124210   0.083   3.561   1.084
 8082TIP3    H224211  -0.042   3.486   1.126
 8083TIP3   OH224212   5.009   4.355   0.392
 8083TIP3    H124213   5.071   4.310   0.449
 8083TIP3    H224214   4.979   4.288   0.331
 8084TIP3   OH224215   1.806   1.266   1.617
 8084TIP3    H124216   1.748   1.315   1.558
 8084TIP3    H224217   1.750   1.197   1.653
 8085TIP3   OH224218   6.867   3.259   5.042
 8085TIP3    H124219   6.860   3.286   5.134
 8085TIP3    H224220   6.817   3.325   4.994
 8086TIP3   OH224221   1.051   4.977   2.542
 8086TIP3    H124222   1.108   5.003   2.614
 8086TIP3    H224223   1.013   5.060   2.511
 8087TIP3   OH224224   1.159   2.438   4.014
 8087TIP3    H124225   1.197   2.526   4.011
 8087TIP3    H224226   1.114   2.429   3.930
 8088TIP3   OH224227   4.411   2.066   3.746
 8088TIP3    H124228   4.332   2.117   3.726
 8088TIP3    H224229   4.459   2.120   3.810
 8089TIP3   OH224230   5.594   5.210   3.291
 8089TIP3    H124231   5.608   5.242   3.202
 8089TIP3    H224232   5.683   5.200   3.327
 8090TIP3   OH224233   2.614   1.153   2.379
 8090TIP3    H124234   2.700   1.187   2.353
 8090TIP3    H224235   2.622   1.058   2.373
 8091TIP3   OH224236   4.250   4.217   5.071
 8091TIP3    H124237   4.209   4.147   5.122
 8091TIP3    H224238   4.335   4.180   5.045
 8092TIP3   OH224239   5.282   6.276   2.712
 8092TIP3    H124240   5.250   6.359   2.746
 8092TIP3    H224241   5.310   6.227   2.789
 8093TIP3   OH224242   6.210   3.906   4.565
 8093TIP3    H124243   6.292   3.904   4.516
 8093TIP3    H224244   6.143   3.886   4.501
 8094TIP3   OH224245   5.243   5.344   0.802
 8094TIP3    H124246   5.221   5.292   0.724
 8094TIP3    H224247   5.164   5.394   0.820
 8095TIP3   OH224248   6.552   2.534   3.589
 8095TIP3    H124249   6.610   2.540   3.665
 8095TIP3    H224250   6.563   2.618   3.544
 8096TIP3   OH224251   4.818   0.964   2.907
 8096TIP3    H124252   4.779   0.932   2.826
 8096TIP3    H224253   4.859   0.887   2.946
 8097TIP3   OH224254   7.107   0.687   4.825
 8097TIP3    H124255   7.116   0.625   4.897
 8097TIP3    H224256   7.194   0.723   4.812
 8098TIP3   OH224257   6.165   0.989   1.818
 8098TIP3    H124258   6.120   1.070   1.842
 8098TIP3    H224259   6.202   0.957   1.900
 8099TIP3   OH224260   0.340   1.613   4.870
 8099TIP3    H124261   0.304   1.544   4.926
 8099TIP3    H224262   0.265   1.647   4.822
 8100TIP3   OH224263   6.913   1.101   4.981
 8100TIP3    H124264   6.865   1.057   4.911
 8100TIP3    H224265   6.973   1.034   5.015
 8101TIP3   OH224266   6.613   1.966   1.385
 8101TIP3    H124267   6.647   2.044   1.429
 8101TIP3    H224268   6.534   1.997   1.341
 8102TIP3   OH224269   5.797   6.196   0.226
 8102TIP3    H124270   5.775   6.104   0.238
 8102TIP3    H224271   5.856   6.216   0.298
 8103TIP3   OH224272   3.159   5.196   2.128
 8103TIP3    H124273   3.180   5.103   2.117
 8103TIP3    H224274   3.202   5.238   2.053
 8104TIP3   OH224275   4.723   2.792   3.491
 8104TIP3    H124276   4.793   2.731   3.514
 8104TIP3    H224277   4.745   2.872   3.538
 8105TIP3   OH224278   6.429   6.119   4.740
 8105TIP3    H124279   6.441   6.045   4.681
 8105TIP3    H224280   6.517   6.142   4.768
 8106TIP3   OH224281   0.473   1.035   2.076
 8106TIP3    H124282   0.449   0.970   2.142
 8106TIP3    H224283   0.568   1.027   2.068
 8107TIP3   OH224284   5.139   1.186   2.858
 8107TIP3    H124285   5.184   1.140   2.929
 8107TIP3    H224286   5.099   1.262   2.901
 8108TIP3   OH224287   6.733   5.560   5.762
 8108TIP3    H124288   6.718   5.479   5.712
 8108TIP3    H224289   6.649   5.578   5.804
 8109TIP3   OH224290   6.816   6.496   5.852
 8109TIP3    H124291   6.912   6.502   5.852
 8109TIP3    H224292   6.791   6.510   5.943
 8110TIP3   OH224293   4.847   3.670   1.272
 8110TIP3    H124294   4.871   3.602   1.336
 8110TIP3    H224295   4.914   3.737   1.284
 8111TIP3   OH224296   6.551   4.402   0.403
 8111TIP3    H124297   6.466   4.443   0.391
 8111TIP3    H224298   6.537   4.336   0.471
 8112TIP3   OH224299   1.750   3.567   0.768
 8112TIP3    H124300   1.711   3.630   0.708
 8112TIP3    H224301   1.797   3.620   0.833
 8113TIP3   OH224302   6.325   2.392   3.198
 8113TIP3    H124303   6.382   2.359   3.267
 8113TIP3    H224304   6.377   2.458   3.152
 8114TIP3   OH224305   1.966   5.227   3.966
 8114TIP3    H124306   2.009   5.290   4.023
 8114TIP3    H224307   2.038   5.185   3.919
 8115TIP3   OH224308   3.953   2.964   0.546
 8115TIP3    H124309   3.969   2.889   0.489
 8115TIP3    H224310   3.899   2.929   0.617
 8116TIP3   OH224311   5.409   5.995   5.132
 8116TIP3    H124312   5.327   6.043   5.142
 8116TIP3    H224313   5.446   5.992   5.221
 8117TIP3   OH224314   0.280   3.668   1.522
 8117TIP3    H124315   0.342   3.635   1.586
 8117TIP3    H224316   0.238   3.590   1.486
 8118TIP3   OH224317   5.372   2.575   1.854
 8118TIP3    H124318   5.392   2.612   1.769
 8118TIP3    H224319   5.453   2.583   1.904
 8119TIP3   OH224320   0.848   1.344   1.723
 8119TIP3    H124321   0.791   1.419   1.741
 8119TIP3    H224322   0.851   1.339   1.627
 8120TIP3   OH224323   6.711   1.502   2.146
 8120TIP3    H124324   6.645   1.558   2.185
 8120TIP3    H224325   6.679   1.413   2.161
 8121TIP3   OH224326   5.183   3.270   3.270
 8121TIP3    H124327   5.195   3.347   3.215
 8121TIP3    H224328   5.269   3.254   3.309
 8122TIP3   OH224329   0.405   3.899   1.822
 8122TIP3    H124330   0.458   3.930   1.895
 8122TIP3    H224331   0.461   3.913   1.745
 8123TIP3   OH224332   2.805   0.389   5.652
 8123TIP3    H124333   2.845   0.352   5.730
 8123TIP3    H224334   2.869   0.374   5.583
 8124TIP3   OH224335   3.897   6.545   1.967
 8124TIP3    H124336   3.836   6.484   1.926
 8124TIP3    H224337   3.979   6.496   1.973
 8125TIP3   OH224338   2.858   4.391   4.569
 8125TIP3    H124339   2.826   4.305   4.542
 8125TIP3    H224340   2.778   4.440   4.591
 8126TIP3   OH224341   5.019   1.766   0.591
 8126TIP3    H124342   4.968   1.847   0.601
 8126TIP3    H224343   4.954   1.697   0.581
 8127TIP3   OH224344   4.474   5.373   2.808
 8127TIP3    H124345   4.513   5.459   2.826
 8127TIP3    H224346   4.387   5.393   2.774
 8128TIP3   OH224347   4.124   1.892   3.596
 8128TIP3    H124348   4.076   1.819   3.633
 8128TIP3    H224349   4.162   1.937   3.671
 8129TIP3   OH224350   0.363   6.153   2.073
 8129TIP3    H124351   0.445   6.197   2.096
 8129TIP3    H224352   0.337   6.107   2.153
 8130TIP3   OH224353   0.166   0.305   0.384
 8130TIP3    H124354   0.141   0.384   0.337
 8130TIP3    H224355   0.185   0.335   0.473
 8131TIP3   OH224356   4.354   1.409   4.879
 8131TIP3    H124357   4.324   1.492   4.917
 8131TIP3    H224358   4.408   1.370   4.947
 8132TIP3   OH224359   7.118   5.128   0.757
 8132TIP3    H124360   7.169   5.048   0.770
 8132TIP3    H224361   7.154   5.167   0.678
 8133TIP3   OH224362   3.992   1.459   1.150
 8133TIP3    H124363   4.016   1.469   1.243
 8133TIP3    H224364   3.941   1.538   1.130
 8134TIP3   OH224365   1.545   3.043   4.308
 8134TIP3    H124366   1.527   3.093   4.228
 8134TIP3    H224367   1.459   3.008   4.333
 8135TIP3   OH224368   1.001   6.489   4.502
 8135TIP3    H124369   1.049   6.454   4.428
 8135TIP3    H224370   0.912   6.455   4.491
 8136TIP3   OH224371   5.072   6.386   4.405
 8136TIP3    H124372   5.030   6.472   4.401
 8136TIP3    H224373   5.070   6.355   4.315
 8137TIP3   OH224374   0.350   5.991   3.832
 8137TIP3    H124375   0.419   6.056   3.817
 8137TIP3    H224376   0.371   5.953   3.918
 8138TIP3   OH224377   1.993   2.508   3.924
 8138TIP3    H124378   2.038   2.568   3.863
 8138TIP3    H224379   1.917   2.477   3.875
 8139TIP3   OH224380   0.452   5.838   5.689
 8139TIP3    H124381   0.403   5.848   5.770
 8139TIP3    H224382   0.517   5.770   5.708
 8140TIP3   OH224383   5.977   2.849   1.905
 8140TIP3    H124384   6.061   2.837   1.948
 8140TIP3    H224385   5.961   2.767   1.858
 8141TIP3   OH224386   1.008   5.005   4.204
 8141TIP3    H124387   0.986   5.006   4.110
 8141TIP3    H224388   1.079   4.941   4.211
 8142TIP3   OH224389   2.719   6.297   3.761
 8142TIP3    H124390   2.676   6.303   3.676
 8142TIP3    H224391   2.803   6.255   3.743
 8143TIP3   OH224392   3.655   0.112   2.972
 8143TIP3    H124393   3.587   0.065   3.021
 8143TIP3    H224394   3.659   0.198   3.014
 8144TIP3   OH224395   0.937   4.937   1.549
 8144TIP3    H124396   1.030   4.926   1.533
 8144TIP3    H224397   0.907   4.994   1.477
 8145TIP3   OH224398   0.859   6.612   5.726
 8145TIP3    H124399   0.772   6.578   5.747
 8145TIP3    H224400   0.894   6.549   5.663
 8146TIP3   OH224401   4.540   1.368   5.828
 8146TIP3    H124402   4.592   1.423   5.769
 8146TIP3    H224403   4.481   1.321   5.769
 8147TIP3   OH224404   6.016   4.919   1.762
 8147TIP3    H124405   6.024   4.824   1.756
 8147TIP3    H224406   6.090   4.946   1.817
 8148TIP3   OH224407   2.669   0.930   2.212
 8148TIP3    H124408   2.580   0.897   2.207
 8148TIP3    H224409   2.703   0.920   2.123
 8149TIP3   OH224410   3.075   2.473   1.674
 8149TIP3    H124411   3.072   2.377   1.673
 8149TIP3    H224412   3.054   2.496   1.765
 8150TIP3   OH224413   1.026   3.485   2.956
 8150TIP3    H124414   1.003   3.573   2.925
 8150TIP3    H224415   0.962   3.466   3.025
 8151TIP3   OH224416   0.716   2.739   0.543
 8151TIP3    H124417   0.750   2.699   0.463
 8151TIP3    H224418   0.622   2.721   0.542
 8152TIP3   OH224419   4.860   4.363   2.469
 8152TIP3    H124420   4.850   4.419   2.392
 8152TIP3    H224421   4.860   4.274   2.434
 8153TIP3   OH224422   5.028   0.054   1.780
 8153TIP3    H124423   5.028   0.050   1.876
 8153TIP3    H224424   5.049  -0.035   1.752
 8154TIP3   OH224425   6.520   0.362   1.868
 8154TIP3    H124426   6.614   0.343   1.863
 8154TIP3    H224427   6.480   0.293   1.815
 8155TIP3   OH224428   4.068   6.207   4.217
 8155TIP3    H124429   4.017   6.287   4.212
 8155TIP3    H224430   4.117   6.205   4.135
 8156TIP3   OH224431   5.288   1.021   4.343
 8156TIP3    H124432   5.370   0.981   4.372
 8156TIP3    H224433   5.235   1.027   4.422
 8157TIP3   OH224434   2.797   5.876   1.782
 8157TIP3    H124435   2.868   5.814   1.765
 8157TIP3    H224436   2.763   5.898   1.695
 8158TIP3   OH224437   4.392   3.858   0.388
 8158TIP3    H124438   4.413   3.934   0.334
 8158TIP3    H224439   4.366   3.790   0.326
 8159TIP3   OH224440   2.597   3.567   5.598
 8159TIP3    H124441   2.576   3.660   5.599
 8159TIP3    H224442   2.691   3.564   5.579
 8160TIP3   OH224443   4.058   6.160   3.421
 8160TIP3    H124444   3.962   6.154   3.422
 8160TIP3    H224445   4.088   6.070   3.409
 8161TIP3   OH224446   4.488   3.648   3.882
 8161TIP3    H124447   4.482   3.561   3.841
 8161TIP3    H224448   4.411   3.654   3.938
 8162TIP3   OH224449   1.724   2.515   3.466
 8162TIP3    H124450   1.754   2.495   3.377
 8162TIP3    H224451   1.762   2.601   3.485
 8163TIP3   OH224452   2.224   5.615   0.306
 8163TIP3    H124453   2.282   5.580   0.374
 8163TIP3    H224454   2.284   5.653   0.242
 8164TIP3   OH224455   5.404   3.423   2.874
 8164TIP3    H124456   5.395   3.439   2.780
 8164TIP3    H224457   5.387   3.330   2.884
 8165TIP3   OH224458   2.743   4.727   5.207
 8165TIP3    H124459   2.702   4.775   5.135
 8165TIP3    H224460   2.670   4.693   5.258
 8166TIP3   OH224461   4.921   2.986   0.913
 8166TIP3    H124462   4.835   2.979   0.872
 8166TIP3    H224463   4.915   3.063   0.970
 8167TIP3   OH224464   1.167   0.476   4.177
 8167TIP3    H124465   1.251   0.510   4.144
 8167TIP3    H224466   1.126   0.436   4.100
 8168TIP3   OH224467   6.580   6.067   0.608
 8168TIP3    H124468   6.576   6.132   0.538
 8168TIP3    H224469   6.607   5.986   0.565
 8169TIP3   OH224470   3.316   2.859   3.159
 8169TIP3    H124471   3.256   2.915   3.207
 8169TIP3    H224472   3.279   2.771   3.166
 8170TIP3   OH224473   6.428   2.931   4.653
 8170TIP3    H124474   6.446   2.842   4.684
 8170TIP3    H224475   6.378   2.971   4.724
 8171TIP3   OH224476   0.243   5.290   0.768
 8171TIP3    H124477   0.163   5.288   0.715
 8171TIP3    H224478   0.297   5.219   0.733
 8172TIP3   OH224479   1.477   5.586   2.192
 8172TIP3    H124480   1.453   5.551   2.107
 8172TIP3    H224481   1.499   5.509   2.245
 8173TIP3   OH224482   1.775   6.310   2.007
 8173TIP3    H124483   1.860   6.293   1.966
 8173TIP3    H224484   1.783   6.399   2.042
 8174TIP3   OH224485   4.553   5.466   5.773
 8174TIP3    H124486   4.496   5.514   5.833
 8174TIP3    H224487   4.637   5.461   5.818
 8175TIP3   OH224488   0.215   3.517   4.166
 8175TIP3    H124489   0.172   3.433   4.148
 8175TIP3    H224490   0.208   3.527   4.261
 8176TIP3   OH224491   4.521   4.049   2.684
 8176TIP3    H124492   4.544   4.023   2.595
 8176TIP3    H224493   4.587   4.113   2.708
 8177TIP3   OH224494   5.281   1.530   1.959
 8177TIP3    H124495   5.187   1.511   1.963
 8177TIP3    H224496   5.319   1.474   2.026
 8178TIP3   OH224497   2.467   4.786   2.581
 8178TIP3    H124498   2.531   4.716   2.597
 8178TIP3    H224499   2.389   4.740   2.549
 8179TIP3   OH224500   0.353   3.070   2.890
 8179TIP3    H124501   0.400   3.144   2.851
 8179TIP3    H224502   0.298   3.037   2.819
 8180TIP3   OH224503   5.597   1.157   2.093
 8180TIP3    H124504   5.553   1.076   2.068
 8180TIP3    H224505   5.643   1.185   2.013
 8181TIP3   OH224506   1.534   1.460   0.869
 8181TIP3    H124507   1.502   1.535   0.819
 8181TIP3    H224508   1.559   1.497   0.954
 8182TIP3   OH224509   3.548   5.517   5.392
 8182TIP3    H124510   3.474   5.540   5.336
 8182TIP3    H224511   3.622   5.509   5.332
 8183TIP3   OH224512   0.127   5.957   5.818
 8183TIP3    H124513   0.199   5.977   5.758
 8183TIP3    H224514   0.161   5.981   5.904
 8184TIP3   OH224515   3.034   1.501   2.892
 8184TIP3    H124516   2.964   1.566   2.893
 8184TIP3    H224517   3.109   1.549   2.856
 8185TIP3   OH224518   1.896   0.092   3.862
 8185TIP3    H124519   1.905   0.175   3.910
 8185TIP3    H224520   1.842   0.038   3.918
 8186TIP3   OH224521   3.927   5.089   1.921
 8186TIP3    H124522   3.942   5.097   1.827
 8186TIP3    H224523   3.958   5.172   1.957
 8187TIP3   OH224524   7.206   5.118   1.680
 8187TIP3    H124525   7.148   5.090   1.751
 8187TIP3    H224526   7.191   5.054   1.610
 8188TIP3   OH224527   2.513   1.256   4.252
 8188TIP3    H124528   2.461   1.304   4.188
 8188TIP3    H224529   2.448   1.220   4.313
 8189TIP3   OH224530   5.482   2.241   0.658
 8189TIP3    H124531   5.510   2.250   0.749
 8189TIP3    H224532   5.411   2.177   0.661
 8190TIP3   OH224533   0.383   3.340   3.208
 8190TIP3    H124534   0.392   3.397   3.132
 8190TIP3    H224535   0.470   3.339   3.248
 8191TIP3   OH224536   0.903   3.057   5.558
 8191TIP3    H124537   0.929   3.147   5.537
 8191TIP3    H224538   0.918   3.008   5.478
 8192TIP3   OH224539   5.044   4.341   5.226
 8192TIP3    H124540   5.082   4.427   5.247
 8192TIP3    H224541   4.960   4.361   5.186
 8193TIP3   OH224542   3.855   0.702   4.677
 8193TIP3    H124543   3.867   0.656   4.759
 8193TIP3    H224544   3.774   0.751   4.688
 8194TIP3   OH224545   6.547   5.388   2.705
 8194TIP3    H124546   6.474   5.414   2.648
 8194TIP3    H224547   6.578   5.471   2.743
 8195TIP3   OH224548   6.678   2.625   0.121
 8195TIP3    H124549   6.764   2.584   0.125
 8195TIP3    H224550   6.617   2.552   0.114
 8196TIP3   OH224551   2.741   2.328   5.734
 8196TIP3    H124552   2.736   2.415   5.695
 8196TIP3    H224553   2.672   2.278   5.690
 8197TIP3   OH224554   4.054   0.987   5.871
 8197TIP3    H124555   4.018   0.918   5.815
 8197TIP3    H224556   3.979   1.045   5.889
 8198TIP3   OH224557   1.661   3.298   2.657
 8198TIP3    H124558   1.609   3.295   2.738
 8198TIP3    H224559   1.722   3.370   2.671
 8199TIP3   OH224560   6.889   3.563   4.463
 8199TIP3    H124561   6.922   3.650   4.486
 8199TIP3    H224562   6.805   3.556   4.509
 8200TIP3   OH224563   3.152   3.885   3.460
 8200TIP3    H124564   3.080   3.849   3.511
 8200TIP3    H224565   3.158   3.830   3.382
 8201TIP3   OH224566   2.873   2.800   5.456
 8201TIP3    H124567   2.790   2.844   5.471
 8201TIP3    H224568   2.901   2.830   5.370
 8202TIP3   OH224569   4.087   4.680   2.356
 8202TIP3    H124570   4.004   4.698   2.312
 8202TIP3    H224571   4.132   4.764   2.360
 8203TIP3   OH224572   2.335   5.637   1.820
 8203TIP3    H124573   2.274   5.626   1.893
 8203TIP3    H224574   2.318   5.562   1.763
 8204TIP3   OH224575   6.372   0.851   2.766
 8204TIP3    H124576   6.420   0.929   2.794
 8204TIP3    H224577   6.406   0.832   2.679
 8205TIP3   OH224578   0.760   6.704   0.411
 8205TIP3    H124579   0.711   6.654   0.347
 8205TIP3    H224580   0.852   6.685   0.391
 8206TIP3   OH224581   5.025   0.802   5.693
 8206TIP3    H124582   5.063   0.794   5.781
 8206TIP3    H224583   4.932   0.819   5.709
 8207TIP3   OH224584   6.530   1.162   0.044
 8207TIP3    H124585   6.558   1.175  -0.047
 8207TIP3    H224586   6.479   1.240   0.064
 8208TIP3   OH224587   2.719   5.293   3.219
 8208TIP3    H124588   2.737   5.210   3.176
 8208TIP3    H224589   2.651   5.334   3.165
 8209TIP3   OH224590   2.637   6.528   4.940
 8209TIP3    H124591   2.572   6.548   5.008
 8209TIP3    H224592   2.611   6.583   4.866
 8210TIP3   OH224593   5.496   6.167   2.910
 8210TIP3    H124594   5.533   6.090   2.868
 8210TIP3    H224595   5.465   6.136   2.995
 8211TIP3   OH224596   2.758   6.576   5.791
 8211TIP3    H124597   2.725   6.489   5.810
 8211TIP3    H224598   2.720   6.632   5.858
 8212TIP3   OH224599   4.536   6.632   2.492
 8212TIP3    H124600   4.601   6.563   2.509
 8212TIP3    H224601   4.496   6.648   2.578
 8213TIP3   OH224602   5.707   6.664   5.442
 8213TIP3    H124603   5.764   6.739   5.456
 8213TIP3    H224604   5.692   6.628   5.530
 8214TIP3   OH224605   5.583   5.901   2.741
 8214TIP3    H124606   5.661   5.863   2.701
 8214TIP3    H224607   5.528   5.927   2.666
 8215TIP3   OH224608   6.761   1.008   5.801
 8215TIP3    H124609   6.793   1.054   5.879
 8215TIP3    H224610   6.761   1.075   5.733
 8216TIP3   OH224611   2.911   6.438   0.339
 8216TIP3    H124612   2.965   6.505   0.298
 8216TIP3    H224613   2.926   6.360   0.286
 8217TIP3   OH224614   5.212   3.519   0.646
 8217TIP3    H124615   5.240   3.428   0.641
 8217TIP3    H224616   5.266   3.564   0.580
 8218TIP3   OH224617   7.019   3.529   1.186
 8218TIP3    H124618   7.024   3.566   1.274
 8218TIP3    H224619   6.925   3.524   1.167
 8219TIP3   OH224620   1.047   2.209   1.596
 8219TIP3    H124621   1.071   2.226   1.505
 8219TIP3    H224622   0.968   2.261   1.610
 8220TIP3   OH224623   2.733   3.489   4.916
 8220TIP3    H124624   2.721   3.456   4.827
 8220TIP3    H224625   2.747   3.583   4.905
 8221TIP3   OH224626   4.164   6.385   0.178
 8221TIP3    H124627   4.214   6.457   0.218
 8221TIP3    H224628   4.219   6.355   0.106
 8222TIP3   OH224629   2.755   3.218   4.400
 8222TIP3    H124630   2.752   3.147   4.336
 8222TIP3    H224631   2.797   3.179   4.477
 8223TIP3   OH224632   6.382   5.208   4.188
 8223TIP3    H124633   6.474   5.199   4.215
 8223TIP3    H224634   6.354   5.291   4.226
 8224TIP3   OH224635   3.665   6.033   3.596
 8224TIP3    H124636   3.698   5.976   3.526
 8224TIP3    H224637   3.718   6.009   3.672
 8225TIP3   OH224638   2.129   2.959   0.596
 8225TIP3    H124639   2.055   2.899   0.590
 8225TIP3    H224640   2.206   2.901   0.598
 8226TIP3   OH224641   4.833   2.547   3.284
 8226TIP3    H124642   4.848   2.558   3.190
 8226TIP3    H224643   4.896   2.606   3.325
 8227TIP3   OH224644   6.542   4.560   3.264
 8227TIP3    H124645   6.612   4.625   3.273
 8227TIP3    H224646   6.533   4.547   3.170
 8228TIP3   OH224647   2.262   4.027   5.035
 8228TIP3    H124648   2.218   3.959   5.086
 8228TIP3    H224649   2.272   4.100   5.097
 8229TIP3   OH224650   2.419   2.468   4.809
 8229TIP3    H124651   2.388   2.448   4.897
 8229TIP3    H224652   2.459   2.554   4.815
 8230TIP3   OH224653   4.743   2.004   2.266
 8230TIP3    H124654   4.779   2.033   2.181
 8230TIP3    H224655   4.803   1.936   2.295
 8231TIP3   OH224656   1.623   1.078   5.418
 8231TIP3    H124657   1.699   1.098   5.472
 8231TIP3    H224658   1.631   0.985   5.399
 8232TIP3   OH224659   1.862   5.183   4.635
 8232TIP3    H124660   1.850   5.089   4.621
 8232TIP3    H224661   1.956   5.195   4.641
 8233TIP3   OH224662   1.511   1.627   4.471
 8233TIP3    H124663   1.526   1.557   4.408
 8233TIP3    H224664   1.423   1.611   4.506
 8234TIP3   OH224665   2.373   0.547   0.039
 8234TIP3    H124666   2.428   0.471   0.019
 8234TIP3    H224667   2.426   0.622   0.012
 8235TIP3   OH224668   2.307   3.846   4.468
 8235TIP3    H124669   2.289   3.849   4.562
 8235TIP3    H224670   2.402   3.863   4.462
 8236TIP3   OH224671   6.319   0.742   1.573
 8236TIP3    H124672   6.317   0.655   1.613
 8236TIP3    H224673   6.259   0.795   1.626
 8237TIP3   OH224674   0.303   3.549   5.163
 8237TIP3    H124675   0.317   3.460   5.129
 8237TIP3    H224676   0.210   3.566   5.148
 8238TIP3   OH224677   5.238   5.709   3.651
 8238TIP3    H124678   5.255   5.618   3.629
 8238TIP3    H224679   5.234   5.754   3.566
 8239TIP3   OH224680   1.617   1.310   3.306
 8239TIP3    H124681   1.523   1.332   3.309
 8239TIP3    H224682   1.631   1.277   3.217
 8240TIP3   OH224683   0.974   3.563   4.389
 8240TIP3    H124684   0.966   3.522   4.475
 8240TIP3    H224685   0.952   3.655   4.404
 8241TIP3   OH224686   6.695   4.128   2.592
 8241TIP3    H124687   6.676   4.185   2.518
 8241TIP3    H224688   6.785   4.149   2.616
 8242TIP3   OH224689   1.272   2.776   2.311
 8242TIP3    H124690   1.181   2.747   2.303
 8242TIP3    H224691   1.267   2.871   2.319
 8243TIP3   OH224692   1.177   0.517   0.052
 8243TIP3    H124693   1.180   0.612   0.039
 8243TIP3    H224694   1.092   0.491   0.016
 8244TIP3   OH224695   5.405   1.139   5.758
 8244TIP3    H124696   5.313   1.122   5.779
 8244TIP3    H224697   5.439   1.185   5.834
 8245TIP3   OH224698   4.737   1.435   0.301
 8245TIP3    H124699   4.727   1.504   0.367
 8245TIP3    H224700   4.804   1.469   0.241
 8246TIP3   OH224701   4.805   1.925   0.549
 8246TIP3    H124702   4.729   1.918   0.492
 8246TIP3    H224703   4.769   1.932   0.637
 8247TIP3   OH224704   2.076   5.930   2.071
 8247TIP3    H124705   2.001   5.888   2.112
 8247TIP3    H224706   2.132   5.857   2.043
 8248TIP3   OH224707   1.412   4.053   4.063
 8248TIP3    H124708   1.467   4.023   4.135
 8248TIP3    H224709   1.347   3.983   4.051
 8249TIP3   OH224710   1.947   5.931   0.194
 8249TIP3    H124711   1.980   5.843   0.175
 8249TIP3    H224712   2.004   5.990   0.145
 8250TIP3   OH224713   3.235   5.293   3.448
 8250TIP3    H124714   3.246   5.359   3.517
 8250TIP3    H224715   3.252   5.341   3.367
 8251TIP3   OH224716   5.092   5.703   2.246
 8251TIP3    H124717   5.108   5.777   2.187
 8251TIP3    H224718   5.176   5.689   2.290
 8252TIP3   OH224719   0.784   2.685   4.293
 8252TIP3    H124720   0.716   2.728   4.241
 8252TIP3    H224721   0.848   2.754   4.310
 8253TIP3   OH224722   3.086   2.250   2.582
 8253TIP3    H124723   3.019   2.198   2.538
 8253TIP3    H224724   3.091   2.331   2.531
 8254TIP3   OH224725   6.570   2.638   3.978
 8254TIP3    H124726   6.506   2.581   4.019
 8254TIP3    H224727   6.524   2.721   3.965
 8255TIP3   OH224728   1.930   6.275   1.573
 8255TIP3    H124729   1.870   6.332   1.525
 8255TIP3    H224730   2.005   6.264   1.515
 8256TIP3   OH224731   2.399   5.186   4.980
 8256TIP3    H124732   2.372   5.114   5.037
 8256TIP3    H224733   2.476   5.223   5.022
 8257TIP3   OH224734   0.452   6.132   3.528
 8257TIP3    H124735   0.474   6.188   3.602
 8257TIP3    H224736   0.413   6.191   3.464
 8258TIP3   OH224737   3.897   3.784   1.782
 8258TIP3    H124738   3.960   3.713   1.789
 8258TIP3    H224739   3.948   3.864   1.795
 8259TIP3   OH224740   3.373   3.548   0.260
 8259TIP3    H124741   3.429   3.518   0.188
 8259TIP3    H224742   3.330   3.469   0.291
 8260TIP3   OH224743   2.279   4.974   5.070
 8260TIP3    H124744   2.244   4.945   5.154
 8260TIP3    H224745   2.239   4.916   5.006
 8261TIP3   OH224746   4.408   2.379   2.905
 8261TIP3    H124747   4.332   2.375   2.964
 8261TIP3    H224748   4.377   2.428   2.829
 8262TIP3   OH224749   4.401   0.103   2.697
 8262TIP3    H124750   4.308   0.108   2.718
 8262TIP3    H224751   4.406   0.036   2.628
 8263TIP3   OH224752   2.411   0.727   4.523
 8263TIP3    H124753   2.360   0.806   4.545
 8263TIP3    H224754   2.353   0.655   4.547
 8264TIP3   OH224755   2.726   3.057   3.846
 8264TIP3    H124756   2.740   3.151   3.853
 8264TIP3    H224757   2.814   3.020   3.840
 8265TIP3   OH224758   3.529   0.114   1.801
 8265TIP3    H124759   3.604   0.119   1.742
 8265TIP3    H224760   3.538   0.030   1.845
 8266TIP3   OH224761   1.797   0.254   4.342
 8266TIP3    H124762   1.703   0.237   4.357
 8266TIP3    H224763   1.805   0.258   4.247
 8267TIP3   OH224764   6.391   1.377   4.161
 8267TIP3    H124765   6.421   1.300   4.210
 8267TIP3    H224766   6.469   1.431   4.151
 8268TIP3   OH224767   1.357   6.179   0.327
 8268TIP3    H124768   1.287   6.180   0.261
 8268TIP3    H224769   1.416   6.248   0.299
 8269TIP3   OH224770   6.749   5.352   1.572
 8269TIP3    H124771   6.689   5.368   1.499
 8269TIP3    H224772   6.730   5.263   1.600
 8270TIP3   OH224773   6.369   6.040   0.325
 8270TIP3    H124774   6.449   6.081   0.358
 8270TIP3    H224775   6.391   6.015   0.235
 8271TIP3   OH224776   0.778   5.860   5.785
 8271TIP3    H124777   0.717   5.787   5.789
 8271TIP3    H224778   0.819   5.862   5.872
 8272TIP3   OH224779   4.255   0.743   3.386
 8272TIP3    H124780   4.177   0.688   3.377
 8272TIP3    H224781   4.223   0.824   3.426
 8273TIP3   OH224782   5.444   5.101   1.839
 8273TIP3    H124783   5.420   5.082   1.930
 8273TIP3    H224784   5.370   5.150   1.804
 8274TIP3   OH224785   2.498   6.406   1.790
 8274TIP3    H124786   2.510   6.311   1.778
 8274TIP3    H224787   2.431   6.413   1.858
 8275TIP3   OH224788   5.164   6.798   1.662
 8275TIP3    H124789   5.114   6.744   1.722
 8275TIP3    H224790   5.144   6.762   1.575
 8276TIP3   OH224791   0.044   2.460   4.097
 8276TIP3    H124792   0.096   2.447   4.176
 8276TIP3    H224793   0.103   2.507   4.037
 8277TIP3   OH224794   1.943   1.265   3.661
 8277TIP3    H124795   1.912   1.232   3.576
 8277TIP3    H224796   2.022   1.214   3.679
 8278TIP3   OH224797   4.576   2.220   2.267
 8278TIP3    H124798   4.562   2.245   2.358
 8278TIP3    H224799   4.638   2.147   2.272
 8279TIP3   OH224800   2.203   5.417   5.665
 8279TIP3    H124801   2.256   5.445   5.591
 8279TIP3    H224802   2.263   5.416   5.739
 8280TIP3   OH224803   6.607   6.093   4.233
 8280TIP3    H124804   6.560   6.137   4.304
 8280TIP3    H224805   6.601   6.154   4.159
 8281TIP3   OH224806   0.692   4.289   2.240
 8281TIP3    H124807   0.748   4.215   2.215
 8281TIP3    H224808   0.693   4.346   2.164
 8282TIP3   OH224809   6.316   4.489   1.931
 8282TIP3    H124810   6.345   4.579   1.948
 8282TIP3    H224811   6.307   4.485   1.836
 8283TIP3   OH224812   2.667   5.484   2.836
 8283TIP3    H124813   2.748   5.439   2.862
 8283TIP3    H224814   2.697   5.555   2.779
 8284TIP3   OH224815   2.192   0.850   4.354
 8284TIP3    H124816   2.117   0.887   4.400
 8284TIP3    H224817   2.165   0.846   4.262
 8285TIP3   OH224818   5.251   3.771   3.829
 8285TIP3    H124819   5.212   3.822   3.759
 8285TIP3    H224820   5.183   3.766   3.897
 8286TIP3   OH224821   2.171   0.700   2.065
 8286TIP3    H124822   2.106   0.762   2.098
 8286TIP3    H224823   2.168   0.627   2.127
 8287TIP3   OH224824   5.017   3.236   5.146
 8287TIP3    H124825   5.032   3.269   5.058
 8287TIP3    H224826   4.966   3.304   5.190
 8288TIP3   OH224827   2.058   0.246   5.886
 8288TIP3    H124828   2.035   0.193   5.963
 8288TIP3    H224829   2.150   0.268   5.899
 8289TIP3   OH224830   7.059   0.089   2.675
 8289TIP3    H124831   7.093   0.170   2.714
 8289TIP3    H224832   7.076   0.099   2.582
 8290TIP3   OH224833   5.457   0.586   2.278
 8290TIP3    H124834   5.506   0.656   2.322
 8290TIP3    H224835   5.406   0.545   2.348
 8291TIP3   OH224836   1.466   1.187   5.628
 8291TIP3    H124837   1.525   1.262   5.627
 8291TIP3    H224838   1.489   1.138   5.549
 8292TIP3   OH224839   6.789   5.004   5.806
 8292TIP3    H124840   6.816   4.946   5.734
 8292TIP3    H224841   6.869   5.021   5.855
 8293TIP3   OH224842  -0.049   4.807   2.801
 8293TIP3    H124843  -0.033   4.875   2.867
 8293TIP3    H224844   0.024   4.747   2.810
 8294TIP3   OH224845   6.423   3.799   1.074
 8294TIP3    H124846   6.486   3.764   1.011
 8294TIP3    H224847   6.338   3.776   1.038
 8295TIP3   OH224848   0.833   2.463   0.082
 8295TIP3    H124849   0.843   2.374   0.115
 8295TIP3    H224850   0.767   2.455   0.013
 8296TIP3   OH224851   2.266   4.902   0.222
 8296TIP3    H124852   2.171   4.895   0.226
 8296TIP3    H224853   2.297   4.828   0.274
 8297TIP3   OH224854   1.692   4.280   2.371
 8297TIP3    H124855   1.622   4.323   2.321
 8297TIP3    H224856   1.750   4.352   2.396
 8298TIP3   OH224857   4.315   2.374   2.597
 8298TIP3    H124858   4.353   2.434   2.533
 8298TIP3    H224859   4.341   2.287   2.566
 8299TIP3   OH224860   4.581   4.235   4.004
 8299TIP3    H124861   4.632   4.159   4.032
 8299TIP3    H224862   4.547   4.273   4.085
 8300TIP3   OH224863   5.957   6.643   0.981
 8300TIP3    H124864   5.889   6.595   1.027
 8300TIP3    H224865   6.027   6.656   1.046
 8301TIP3   OH224866   3.606   1.596   0.964
 8301TIP3    H124867   3.545   1.669   0.951
 8301TIP3    H224868   3.561   1.536   1.022
 8302TIP3   OH224869   1.794   3.091   2.522
 8302TIP3    H124870   1.875   3.109   2.569
 8302TIP3    H224871   1.730   3.151   2.561
 8303TIP3   OH224872   3.505   2.806   2.060
 8303TIP3    H124873   3.423   2.768   2.027
 8303TIP3    H224874   3.491   2.813   2.155
 8304TIP3   OH224875   5.835   2.377   1.448
 8304TIP3    H124876   5.917   2.377   1.496
 8304TIP3    H224877   5.795   2.462   1.468
 8305TIP3   OH224878   4.547   2.390   5.886
 8305TIP3    H124879   4.634   2.430   5.892
 8305TIP3    H224880   4.544   2.328   5.959
 8306TIP3   OH224881   0.520   4.540   2.077
 8306TIP3    H124882   0.434   4.549   2.117
 8306TIP3    H224883   0.518   4.454   2.035
 8307TIP3   OH224884   1.006   0.758   3.968
 8307TIP3    H124885   1.067   0.803   4.026
 8307TIP3    H224886   0.931   0.818   3.961
 8308TIP3   OH224887   1.564   2.737   3.709
 8308TIP3    H124888   1.522   2.707   3.629
 8308TIP3    H224889   1.643   2.782   3.680
 8309TIP3   OH224890   3.795   5.946   5.464
 8309TIP3    H124891   3.710   5.974   5.496
 8309TIP3    H224892   3.858   5.996   5.516
 8310TIP3   OH224893   4.547   3.877   5.316
 8310TIP3    H124894   4.578   3.836   5.235
 8310TIP3    H224895   4.521   3.803   5.371
 8311TIP3   OH224896   4.721   3.394   0.325
 8311TIP3    H124897   4.780   3.397   0.401
 8311TIP3    H224898   4.633   3.386   0.363
 8312TIP3   OH224899   4.533   4.653   0.521
 8312TIP3    H124900   4.621   4.624   0.496
 8312TIP3    H224901   4.474   4.586   0.484
 8313TIP3   OH224902   6.677   4.824   4.203
 8313TIP3    H124903   6.615   4.755   4.225
 8313TIP3    H224904   6.760   4.796   4.243
 8314TIP3   OH224905   3.880   6.340   1.378
 8314TIP3    H124906   3.879   6.244   1.379
 8314TIP3    H224907   3.860   6.363   1.287
 8315TIP3   OH224908   4.083   1.980   4.630
 8315TIP3    H124909   4.060   1.985   4.723
 8315TIP3    H224910   4.119   2.066   4.610
 8316TIP3   OH224911   6.779   2.346   4.579
 8316TIP3    H124912   6.827   2.320   4.658
 8316TIP3    H224913   6.709   2.403   4.612
 8317TIP3   OH224914   6.247   0.328   4.923
 8317TIP3    H124915   6.334   0.365   4.936
 8317TIP3    H224916   6.187   0.402   4.935
 8318TIP3   OH224917   0.271   1.322   1.582
 8318TIP3    H124918   0.237   1.252   1.527
 8318TIP3    H224919   0.206   1.331   1.652
 8319TIP3   OH224920   4.494   5.514   3.205
 8319TIP3    H124921   4.534   5.588   3.250
 8319TIP3    H224922   4.531   5.518   3.116
 8320TIP3   OH224923   2.337   4.416   3.382
 8320TIP3    H124924   2.316   4.508   3.396
 8320TIP3    H224925   2.430   4.409   3.405
 8321TIP3   OH224926   2.422   4.411   0.747
 8321TIP3    H124927   2.486   4.356   0.792
 8321TIP3    H224928   2.472   4.488   0.719
 8322TIP3   OH224929  -0.006   6.510   4.035
 8322TIP3    H124930   0.044   6.589   4.057
 8322TIP3    H224931  -0.087   6.542   3.997
 8323TIP3   OH224932   3.922   6.496   2.286
 8323TIP3    H124933   3.939   6.481   2.193
 8323TIP3    H224934   3.857   6.567   2.288
 8324TIP3   OH224935   1.392   1.683   3.496
 8324TIP3    H124936   1.387   1.666   3.590
 8324TIP3    H224937   1.479   1.655   3.471
 8325TIP3   OH224938   5.552   5.856   3.439
 8325TIP3    H124939   5.609   5.829   3.510
 8325TIP3    H224940   5.522   5.944   3.465
 8326TIP3   OH224941   2.847   5.897   3.863
 8326TIP3    H124942   2.770   5.842   3.879
 8326TIP3    H224943   2.846   5.961   3.934
 8327TIP3   OH224944   3.473   0.789   2.077
 8327TIP3    H124945   3.530   0.858   2.112
 8327TIP3    H224946   3.469   0.807   1.983
 8328TIP3   OH224947   1.474   0.417   2.134
 8328TIP3    H124948   1.513   0.330   2.128
 8328TIP3    H224949   1.523   0.470   2.071
 8329TIP3   OH224950   6.600   1.136   1.354
 8329TIP3    H124951   6.578   1.083   1.431
 8329TIP3    H224952   6.690   1.164   1.368
 8330TIP3   OH224953   0.069   1.999   4.085
 8330TIP3    H124954   0.090   2.079   4.037
 8330TIP3    H224955   0.153   1.954   4.095
 8331TIP3   OH224956   0.629   6.240   2.058
 8331TIP3    H124957   0.612   6.316   2.003
 8331TIP3    H224958   0.688   6.185   2.006
 8332TIP3   OH224959   3.072   0.407   2.306
 8332TIP3    H124960   3.126   0.476   2.344
 8332TIP3    H224961   3.020   0.452   2.239
 8333TIP3   OH224962   2.331   5.022   0.996
 8333TIP3    H124963   2.374   5.087   0.940
 8333TIP3    H224964   2.238   5.035   0.980
 8334TIP3   OH224965   5.754   2.100   3.552
 8334TIP3    H124966   5.776   2.026   3.496
 8334TIP3    H224967   5.834   2.116   3.602
 8335TIP3   OH224968   1.309   1.338   5.390
 8335TIP3    H124969   1.348   1.316   5.474
 8335TIP3    H224970   1.222   1.371   5.411
 8336TIP3   OH224971   1.162   3.830   4.372
 8336TIP3    H124972   1.196   3.740   4.373
 8336TIP3    H224973   1.222   3.878   4.315
 8337TIP3   OH224974   0.811   4.365   4.479
 8337TIP3    H124975   0.753   4.412   4.419
 8337TIP3    H224976   0.886   4.423   4.490
 8338TIP3   OH224977   6.510   1.430   0.694
 8338TIP3    H124978   6.445   1.424   0.625
 8338TIP3    H224979   6.493   1.355   0.750
 8339TIP3   OH224980   5.435   3.082   0.428
 8339TIP3    H124981   5.383   3.117   0.355
 8339TIP3    H224982   5.398   2.995   0.443
 8340TIP3   OH224983   6.187   2.293   5.652
 8340TIP3    H124984   6.247   2.280   5.579
 8340TIP3    H224985   6.224   2.242   5.723
 8341TIP3   OH224986   3.601   1.600   0.560
 8341TIP3    H124987   3.563   1.538   0.622
 8341TIP3    H224988   3.553   1.681   0.575
 8342TIP3   OH224989   2.181   6.754   0.303
 8342TIP3    H124990   2.125   6.822   0.264
 8342TIP3    H224991   2.187   6.687   0.236
 8343TIP3   OH224992   5.036   4.731   1.150
 8343TIP3    H124993   5.076   4.800   1.202
 8343TIP3    H224994   5.094   4.721   1.074
 8344TIP3   OH224995   2.794   1.656   5.039
 8344TIP3    H124996   2.710   1.653   4.994
 8344TIP3    H224997   2.795   1.578   5.095
 8345TIP3   OH224998   6.723   5.038   5.173
 8345TIP3    H124999   6.752   4.946   5.173
 8345TIP3    H225000   6.640   5.037   5.127
 8346TIP3   OH225001   1.993   6.525   4.887
 8346TIP3    H125002   2.054   6.593   4.858
 8346TIP3    H225003   1.928   6.520   4.818
 8347TIP3   OH225004   2.904   2.291   4.300
 8347TIP3    H125005   2.847   2.263   4.371
 8347TIP3    H225006   2.966   2.219   4.288
 8348TIP3   OH225007   0.041   2.447   4.916
 8348TIP3    H125008   0.122   2.442   4.865
 8348TIP3    H225009  -0.028   2.424   4.853
 8349TIP3   OH225010   6.026   3.173   5.062
 8349TIP3    H125011   5.993   3.091   5.025
 8349TIP3    H225012   5.955   3.235   5.049
 8350TIP3   OH225013   4.216   1.371   2.994
 8350TIP3    H125014   4.205   1.397   3.086
 8350TIP3    H225015   4.311   1.367   2.981
 8351TIP3   OH225016   6.159   1.977   2.339
 8351TIP3    H125017   6.250   2.003   2.350
 8351TIP3    H225018   6.155   1.887   2.372
 8352TIP3   OH225019   2.325   2.795   0.560
 8352TIP3    H125020   2.387   2.867   0.574
 8352TIP3    H225021   2.358   2.750   0.483
 8353TIP3   OH225022   3.896   2.926   0.081
 8353TIP3    H125023   3.807   2.903   0.107
 8353TIP3    H225024   3.918   2.865   0.011
 8354TIP3   OH225025   7.048   4.770   5.012
 8354TIP3    H125026   6.991   4.732   5.079
 8354TIP3    H225027   7.019   4.729   4.930
 8355TIP3   OH225028   6.082   3.187   2.033
 8355TIP3    H125029   6.096   3.278   2.007
 8355TIP3    H225030   5.996   3.164   1.998
 8356TIP3   OH225031   5.322   5.653   1.360
 8356TIP3    H125032   5.279   5.570   1.339
 8356TIP3    H225033   5.251   5.716   1.368
 8357TIP3   OH225034   0.802   4.705   2.772
 8357TIP3    H125035   0.779   4.701   2.865
 8357TIP3    H225036   0.777   4.620   2.737
 8358TIP3   OH225037   4.579   1.462   4.048
 8358TIP3    H125038   4.582   1.533   3.984
 8358TIP3    H225039   4.489   1.429   4.042
 8359TIP3   OH225040   0.189   1.510   3.894
 8359TIP3    H125041   0.138   1.589   3.912
 8359TIP3    H225042   0.160   1.481   3.808
 8360TIP3   OH225043   0.018   1.636   4.150
 8360TIP3    H125044   0.097   1.612   4.198
 8360TIP3    H225045   0.046   1.707   4.092
 8361TIP3   OH225046   3.599   4.938   1.318
 8361TIP3    H125047   3.583   4.953   1.411
 8361TIP3    H225048   3.641   4.852   1.314
 8362TIP3   OH225049   0.689   0.604   4.828
 8362TIP3    H125050   0.712   0.512   4.833
 8362TIP3    H225051   0.743   0.645   4.896
 8363TIP3   OH225052   1.168   3.456   3.545
 8363TIP3    H125053   1.114   3.509   3.603
 8363TIP3    H225054   1.142   3.366   3.564
 8364TIP3   OH225055   5.005   5.418   4.580
 8364TIP3    H125056   4.947   5.404   4.505
 8364TIP3    H225057   5.026   5.511   4.577
 8365TIP3   OH225058   1.071   5.461   0.349
 8365TIP3    H125059   1.073   5.365   0.350
 8365TIP3    H225060   0.978   5.483   0.343
 8366TIP3   OH225061   6.944   4.050   1.477
 8366TIP3    H125062   6.956   4.135   1.434
 8366TIP3    H225063   6.882   4.004   1.421
 8367TIP3   OH225064   5.883   0.932   1.548
 8367TIP3    H125065   5.805   0.983   1.523
 8367TIP3    H225066   5.847   0.854   1.591
 8368TIP3   OH225067   1.036   4.446   1.617
 8368TIP3    H125068   1.059   4.537   1.601
 8368TIP3    H225069   0.979   4.421   1.545
 8369TIP3   OH225070   1.341   5.125   4.341
 8369TIP3    H125071   1.328   5.216   4.370
 8369TIP3    H225072   1.344   5.130   4.246
 8370TIP3   OH225073   4.493   0.203  -0.017
 8370TIP3    H125074   4.455   0.228   0.067
 8370TIP3    H225075   4.585   0.229  -0.012
 8371TIP3   OH225076   2.232   6.251   3.411
 8371TIP3    H125077   2.198   6.312   3.476
 8371TIP3    H225078   2.159   6.238   3.350
 8372TIP3   OH225079   1.682   0.124   3.460
 8372TIP3    H125080   1.764   0.157   3.424
 8372TIP3    H225081   1.649   0.195   3.514
 8373TIP3   OH225082   5.089   2.289   4.543
 8373TIP3    H125083   5.105   2.228   4.471
 8373TIP3    H225084   5.061   2.370   4.500
 8374TIP3   OH225085   2.403   1.818   5.303
 8374TIP3    H125086   2.444   1.904   5.317
 8374TIP3    H225087   2.440   1.787   5.220
 8375TIP3   OH225088   7.126   3.593   0.742
 8375TIP3    H125089   7.093   3.682   0.755
 8375TIP3    H225090   7.128   3.555   0.830
 8376TIP3   OH225091   0.459   1.550   3.827
 8376TIP3    H125092   0.504   1.551   3.911
 8376TIP3    H225093   0.369   1.577   3.847
 8377TIP3   OH225094   3.667   6.732   3.675
 8377TIP3    H125095   3.683   6.826   3.680
 8377TIP3    H225096   3.749   6.696   3.640
 8378TIP3   OH225097   1.449   2.239   1.917
 8378TIP3    H125098   1.502   2.228   1.996
 8378TIP3    H225099   1.412   2.152   1.900
 8379TIP3   OH225100   5.855   1.272   3.020
 8379TIP3    H125101   5.897   1.199   2.975
 8379TIP3    H225102   5.807   1.318   2.952
 8380TIP3   OH225103   3.105   4.529   0.251
 8380TIP3    H125104   3.186   4.578   0.267
 8380TIP3    H225105   3.045   4.593   0.211
 8381TIP3   OH225106   5.206   6.753   4.495
 8381TIP3    H125107   5.291   6.742   4.453
 8381TIP3    H225108   5.155   6.804   4.432
 8382TIP3   OH225109   3.364   0.511   1.754
 8382TIP3    H125110   3.321   0.448   1.696
 8382TIP3    H225111   3.457   0.503   1.734
 8383TIP3   OH225112   0.584   2.991   2.613
 8383TIP3    H125113   0.662   2.988   2.667
 8383TIP3    H225114   0.575   2.902   2.577
 8384TIP3   OH225115   4.475   6.266   2.630
 8384TIP3    H125116   4.401   6.244   2.574
 8384TIP3    H225117   4.442   6.254   2.719
 8385TIP3   OH225118   1.324   1.458   2.789
 8385TIP3    H125119   1.286   1.412   2.863
 8385TIP3    H225120   1.249   1.492   2.740
 8386TIP3   OH225121   4.276   1.307   3.328
 8386TIP3    H125122   4.231   1.367   3.387
 8386TIP3    H225123   4.360   1.289   3.371
 8387TIP3   OH225124   6.598   6.522   3.434
 8387TIP3    H125125   6.558   6.561   3.512
 8387TIP3    H225126   6.549   6.441   3.420
 8388TIP3   OH225127   2.891   4.351   1.217
 8388TIP3    H125128   2.871   4.340   1.310
 8388TIP3    H225129   2.951   4.425   1.213
 8389TIP3   OH225130   2.216   6.328   4.989
 8389TIP3    H125131   2.246   6.350   4.901
 8389TIP3    H225132   2.132   6.373   4.997
 8390TIP3   OH225133   3.811   5.241   4.335
 8390TIP3    H125134   3.759   5.299   4.279
 8390TIP3    H225135   3.823   5.162   4.283
 8391TIP3   OH225136   1.372   0.964   4.250
 8391TIP3    H125137   1.441   0.923   4.302
 8391TIP3    H225138   1.418   1.021   4.189
 8392TIP3   OH225139   7.088   4.287   4.842
 8392TIP3    H125140   7.137   4.211   4.809
 8392TIP3    H225141   7.154   4.343   4.882
 8393TIP3   OH225142   3.608   2.462   4.293
 8393TIP3    H125143   3.682   2.431   4.344
 8393TIP3    H225144   3.623   2.426   4.205
 8394TIP3   OH225145   5.198   6.016   4.170
 8394TIP3    H125146   5.283   6.044   4.203
 8394TIP3    H225147   5.211   5.925   4.144
 8395TIP3   OH225148   4.426   3.112   3.516
 8395TIP3    H125149   4.404   3.116   3.422
 8395TIP3    H225150   4.433   3.203   3.543
 8396TIP3   OH225151   2.329   2.670   1.952
 8396TIP3    H125152   2.336   2.753   1.998
 8396TIP3    H225153   2.361   2.605   2.014
 8397TIP3   OH225154   6.006   2.454   3.742
 8397TIP3    H125155   6.029   2.510   3.667
 8397TIP3    H225156   6.086   2.451   3.795
 8398TIP3   OH225157  -0.047   1.997   4.584
 8398TIP3    H125158  -0.043   1.929   4.517
 8398TIP3    H225159   0.031   2.050   4.568
 8399TIP3   OH225160   0.947   0.174   5.731
 8399TIP3    H125161   0.932   0.258   5.688
 8399TIP3    H225162   0.866   0.125   5.716
 8400TIP3   OH225163   1.717   1.091   1.293
 8400TIP3    H125164   1.654   1.152   1.329
 8400TIP3    H225165   1.803   1.125   1.320
 8401TIP3   OH225166   5.881   0.462   2.940
 8401TIP3    H125167   5.812   0.518   2.905
 8401TIP3    H225168   5.957   0.479   2.883
 8402TIP3   OH225169   4.843   4.516   2.230
 8402TIP3    H125170   4.755   4.480   2.219
 8402TIP3    H225171   4.832   4.610   2.223
 8403TIP3   OH225172   2.547   5.352   0.222
 8403TIP3    H125173   2.605   5.427   0.210
 8403TIP3    H225174   2.497   5.373   0.302
 8404TIP3   OH225175   6.345   4.079   1.553
 8404TIP3    H125176   6.329   4.040   1.468
 8404TIP3    H225177   6.291   4.028   1.614
 8405TIP3   OH225178   0.212   1.879   3.741
 8405TIP3    H125179   0.264   1.912   3.668
 8405TIP3    H225180   0.275   1.866   3.812
 8406TIP3   OH225181   3.779   0.644   1.568
 8406TIP3    H125182   3.816   0.558   1.588
 8406TIP3    H225183   3.836   0.706   1.614
 8407TIP3   OH225184   6.414   2.711   4.811
 8407TIP3    H125185   6.470   2.709   4.889
 8407TIP3    H225186   6.338   2.659   4.835
 8408TIP3   OH225187   6.510   0.142   4.973
 8408TIP3    H125188   6.464   0.084   4.912
 8408TIP3    H225189   6.535   0.086   5.046
 8409TIP3   OH225190   5.150   4.667   0.315
 8409TIP3    H125191   5.063   4.649   0.281
 8409TIP3    H225192   5.138   4.681   0.409
 8410TIP3   OH225193   1.607   4.120   0.596
 8410TIP3    H125194   1.620   4.092   0.687
 8410TIP3    H225195   1.530   4.178   0.600
 8411TIP3   OH225196   3.285   1.056   2.918
 8411TIP3    H125197   3.253   1.079   3.005
 8411TIP3    H225198   3.224   0.989   2.887
 8412TIP3   OH225199   0.652   3.686   2.990
 8412TIP3    H125200   0.621   3.646   2.909
 8412TIP3    H225201   0.577   3.681   3.050
 8413TIP3   OH225202   0.736   3.635   0.123
 8413TIP3    H125203   0.824   3.669   0.109
 8413TIP3    H225204   0.696   3.635   0.036
 8414TIP3   OH225205   5.355   0.053   3.592
 8414TIP3    H125206   5.403   0.038   3.673
 8414TIP3    H225207   5.298   0.128   3.611
 8415TIP3   OH225208   4.615   4.032   1.858
 8415TIP3    H125209   4.609   3.941   1.887
 8415TIP3    H225210   4.574   4.083   1.928
 8416TIP3   OH225211   2.197   1.083   1.993
 8416TIP3    H125212   2.161   1.169   1.974
 8416TIP3    H225213   2.124   1.033   2.030
 8417TIP3   OH225214   3.266   4.319   4.192
 8417TIP3    H125215   3.223   4.294   4.110
 8417TIP3    H225216   3.251   4.413   4.200
 8418TIP3   OH225217   7.094   1.879   1.779
 8418TIP3    H125218   7.039   1.914   1.709
 8418TIP3    H225219   7.047   1.802   1.811
 8419TIP3   OH225220   2.890   0.444   3.463
 8419TIP3    H125221   2.923   0.356   3.480
 8419TIP3    H225222   2.800   0.442   3.495
 8420TIP3   OH225223   3.169   2.418   2.965
 8420TIP3    H125224   3.092   2.404   3.020
 8420TIP3    H225225   3.174   2.512   2.954
 8421TIP3   OH225226   4.931   2.232   4.770
 8421TIP3    H125227   4.963   2.151   4.810
 8421TIP3    H225228   4.981   2.240   4.689
 8422TIP3   OH225229   2.023   3.902   2.775
 8422TIP3    H125230   2.005   3.826   2.720
 8422TIP3    H225231   2.115   3.893   2.799
 8423TIP3   OH225232   2.723   6.695   1.481
 8423TIP3    H125233   2.681   6.614   1.450
 8423TIP3    H225234   2.771   6.668   1.560
 8424TIP3   OH225235   4.945   5.788   0.346
 8424TIP3    H125236   4.925   5.869   0.393
 8424TIP3    H225237   4.979   5.817   0.261
 8425TIP3   OH225238   2.504   3.219   4.677
 8425TIP3    H125239   2.450   3.181   4.608
 8425TIP3    H225240   2.575   3.263   4.630
 8426TIP3   OH225241   1.884   2.312   1.525
 8426TIP3    H125242   1.901   2.227   1.566
 8426TIP3    H225243   1.943   2.314   1.449
 8427TIP3   OH225244   2.492   4.673   4.336
 8427TIP3    H125245   2.441   4.593   4.347
 8427TIP3    H225246   2.471   4.703   4.247
 8428TIP3   OH225247   6.048   5.444   1.871
 8428TIP3    H125248   6.126   5.460   1.818
 8428TIP3    H225249   6.006   5.368   1.829
 8429TIP3   OH225250   6.183   0.221   1.390
 8429TIP3    H125251   6.276   0.208   1.373
 8429TIP3    H225252   6.179   0.234   1.485
 8430TIP3   OH225253   3.319   5.531   0.715
 8430TIP3    H125254   3.347   5.566   0.799
 8430TIP3    H225255   3.398   5.493   0.678
 8431TIP3   OH225256   4.537   4.933   0.354
 8431TIP3    H125257   4.551   5.011   0.407
 8431TIP3    H225258   4.609   4.874   0.378
 8432TIP3   OH225259   0.785   2.583   0.346
 8432TIP3    H125260   0.692   2.585   0.320
 8432TIP3    H225261   0.825   2.524   0.283
 8433TIP3   OH225262   4.972   6.385   2.650
 8433TIP3    H125263   4.879   6.408   2.641
 8433TIP3    H225264   5.013   6.464   2.685
 8434TIP3   OH225265   4.965   3.172   2.066
 8434TIP3    H125266   5.052   3.168   2.107
 8434TIP3    H225267   4.936   3.081   2.063
 8435TIP3   OH225268   3.902   6.092   2.196
 8435TIP3    H125269   3.848   6.112   2.120
 8435TIP3    H225270   3.947   6.011   2.174
 8436TIP3   OH225271   6.275   2.775   2.572
 8436TIP3    H125272   6.356   2.732   2.547
 8436TIP3    H225273   6.250   2.824   2.493
 8437TIP3   OH225274   1.615   4.639   5.545
 8437TIP3    H125275   1.696   4.646   5.495
 8437TIP3    H225276   1.591   4.546   5.538
 8438TIP3   OH225277   1.110   5.829   2.947
 8438TIP3    H125278   1.125   5.736   2.935
 8438TIP3    H225279   1.023   5.845   2.909
 8439TIP3   OH225280   3.315   1.022   0.348
 8439TIP3    H125281   3.332   1.032   0.442
 8439TIP3    H225282   3.233   1.069   0.333
 8440TIP3   OH225283   1.634   5.596   4.841
 8440TIP3    H125284   1.688   5.672   4.863
 8440TIP3    H225285   1.619   5.604   4.747
 8441TIP3   OH225286   6.428   0.394   5.627
 8441TIP3    H125287   6.350   0.342   5.609
 8441TIP3    H225288   6.404   0.448   5.703
 8442TIP3   OH225289   3.008   1.147   0.580
 8442TIP3    H125290   2.925   1.171   0.620
 8442TIP3    H225291   3.055   1.230   0.569
 8443TIP3   OH225292   5.800   4.562   2.206
 8443TIP3    H125293   5.826   4.635   2.262
 8443TIP3    H225294   5.741   4.509   2.261
 8444TIP3   OH225295   4.411   5.817   0.858
 8444TIP3    H125296   4.485   5.847   0.910
 8444TIP3    H225297   4.335   5.828   0.917
 8445TIP3   OH225298   1.361   5.244   2.521
 8445TIP3    H125299   1.318   5.329   2.514
 8445TIP3    H225300   1.314   5.198   2.591
 8446TIP3   OH225301   2.070   6.350   3.726
 8446TIP3    H125302   1.991   6.324   3.677
 8446TIP3    H225303   2.036   6.404   3.797
 8447TIP3   OH225304   4.758   1.484   5.357
 8447TIP3    H125305   4.707   1.535   5.293
 8447TIP3    H225306   4.809   1.423   5.303
 8448TIP3   OH225307   4.511   2.909   3.665
 8448TIP3    H125308   4.550   2.853   3.597
 8448TIP3    H225309   4.467   2.978   3.617
 8449TIP3   OH225310   4.282   1.108   1.345
 8449TIP3    H125311   4.246   1.129   1.258
 8449TIP3    H225312   4.371   1.142   1.343
 8450TIP3   OH225313   1.761   1.224   5.224
 8450TIP3    H125314   1.680   1.189   5.260
 8450TIP3    H225315   1.755   1.209   5.130
 8451TIP3   OH225316   6.977   5.638   1.361
 8451TIP3    H125317   6.961   5.545   1.347
 8451TIP3    H225318   7.065   5.642   1.400
 8452TIP3   OH225319   6.840   0.424   2.894
 8452TIP3    H125320   6.816   0.503   2.845
 8452TIP3    H225321   6.828   0.449   2.986
 8453TIP3   OH225322   6.985   6.556   1.358
 8453TIP3    H125323   6.959   6.616   1.288
 8453TIP3    H225324   7.035   6.611   1.419
 8454TIP3   OH225325   1.466   3.756   3.832
 8454TIP3    H125326   1.433   3.751   3.921
 8454TIP3    H225327   1.393   3.791   3.781
 8455TIP3   OH225328   2.612   6.162   0.171
 8455TIP3    H125329   2.545   6.123   0.227
 8455TIP3    H225330   2.579   6.150   0.082
 8456TIP3   OH225331   7.051   5.061   0.366
 8456TIP3    H125332   6.981   5.046   0.303
 8456TIP3    H225333   7.022   5.137   0.416
 8457TIP3   OH225334   4.279   1.927   5.858
 8457TIP3    H125335   4.289   1.987   5.784
 8457TIP3    H225336   4.204   1.872   5.833
 8458TIP3   OH225337   6.423   4.322   1.682
 8458TIP3    H125338   6.505   4.361   1.650
 8458TIP3    H225339   6.426   4.232   1.648
 8459TIP3   OH225340   2.144   1.737   4.322
 8459TIP3    H125341   2.126   1.799   4.251
 8459TIP3    H225342   2.063   1.735   4.372
 8460TIP3   OH225343   5.038   2.511   1.771
 8460TIP3    H125344   5.085   2.552   1.843
 8460TIP3    H225345   5.003   2.584   1.720
 8461TIP3   OH225346   2.602   4.903   2.835
 8461TIP3    H125347   2.569   4.892   2.924
 8461TIP3    H225348   2.643   4.819   2.814
 8462TIP3   OH225349   3.531   3.067   4.551
 8462TIP3    H125350   3.514   2.984   4.507
 8462TIP3    H225351   3.544   3.045   4.643
 8463TIP3   OH225352   1.837   6.707   3.267
 8463TIP3    H125353   1.916   6.752   3.237
 8463TIP3    H225354   1.859   6.614   3.264
 8464TIP3   OH225355   3.969   0.916   5.280
 8464TIP3    H125356   3.919   0.917   5.362
 8464TIP3    H225357   3.911   0.958   5.216
 8465TIP3   OH225358   6.529   0.092   0.433
 8465TIP3    H125359   6.527   0.082   0.337
 8465TIP3    H225360   6.450   0.048   0.464
 8466TIP3   OH225361   1.584   1.460  -0.007
 8466TIP3    H125362   1.660   1.402  -0.013
 8466TIP3    H225363   1.509   1.404  -0.028
 8467TIP3   OH225364   5.456   2.278   1.417
 8467TIP3    H125365   5.512   2.324   1.354
 8467TIP3    H225366   5.517   2.247   1.484
 8468TIP3   OH225367   3.118   5.864   3.938
 8468TIP3    H125368   3.101   5.902   3.852
 8468TIP3    H225369   3.039   5.815   3.959
 8469TIP3   OH225370   2.597   2.605   3.126
 8469TIP3    H125371   2.558   2.581   3.210
 8469TIP3    H225372   2.672   2.546   3.117
 8470TIP3   OH225373   0.437   3.928   5.178
 8470TIP3    H125374   0.456   3.921   5.084
 8470TIP3    H225375   0.343   3.947   5.182
 8471TIP3   OH225376   4.422   4.323   5.572
 8471TIP3    H125377   4.388   4.254   5.628
 8471TIP3    H225378   4.422   4.284   5.484
 8472TIP3   OH225379   5.292   4.153   5.804
 8472TIP3    H125380   5.253   4.105   5.877
 8472TIP3    H225381   5.220   4.204   5.768
 8473TIP3   OH225382   6.953   1.561   4.234
 8473TIP3    H125383   6.904   1.585   4.155
 8473TIP3    H225384   7.033   1.613   4.229
 8474TIP3   OH225385   5.548   5.843   1.830
 8474TIP3    H125386   5.479   5.869   1.769
 8474TIP3    H225387   5.570   5.924   1.877
 8475TIP3   OH225388   1.074   4.466   4.594
 8475TIP3    H125389   1.142   4.441   4.532
 8475TIP3    H225390   1.082   4.402   4.666
 8476TIP3   OH225391   1.116   2.530   0.017
 8476TIP3    H125392   1.103   2.455   0.074
 8476TIP3    H225393   1.043   2.588   0.037
 8477TIP3   OH225394   4.414   1.010   2.733
 8477TIP3    H125395   4.452   1.066   2.801
 8477TIP3    H225396   4.439   0.921   2.758
 8478TIP3   OH225397   5.321   0.013   2.130
 8478TIP3    H125398   5.322   0.046   2.220
 8478TIP3    H225399   5.406  -0.029   2.119
 8479TIP3   OH225400   5.984   6.328   0.835
 8479TIP3    H125401   6.057   6.349   0.893
 8479TIP3    H225402   5.907   6.334   0.891
 8480TIP3   OH225403   4.372   5.274   3.315
 8480TIP3    H125404   4.401   5.247   3.402
 8480TIP3    H225405   4.434   5.341   3.288
 8481TIP3   OH225406   4.482   3.489   1.210
 8481TIP3    H125407   4.555   3.537   1.172
 8481TIP3    H225408   4.501   3.397   1.190
 8482TIP3   OH225409   1.076   5.400   5.676
 8482TIP3    H125410   1.113   5.488   5.668
 8482TIP3    H225411   1.151   5.342   5.676
 8483TIP3   OH225412   5.473   5.341   5.407
 8483TIP3    H125413   5.500   5.249   5.408
 8483TIP3    H225414   5.452   5.360   5.315
 8484TIP3   OH225415   1.945   5.099   1.540
 8484TIP3    H125416   1.974   5.052   1.463
 8484TIP3    H225417   1.940   5.191   1.512
 8485TIP3   OH225418   5.692   4.386   1.887
 8485TIP3    H125419   5.616   4.439   1.860
 8485TIP3    H225420   5.656   4.322   1.948
 8486TIP3   OH225421   3.994   5.483   5.528
 8486TIP3    H125422   4.057   5.420   5.493
 8486TIP3    H225423   4.047   5.539   5.586
 8487TIP3   OH225424   0.608   0.803   0.170
 8487TIP3    H125425   0.642   0.891   0.161
 8487TIP3    H225426   0.614   0.785   0.264
 8488TIP3   OH225427   2.372   4.385   5.812
 8488TIP3    H125428   2.295   4.428   5.777
 8488TIP3    H225429   2.367   4.399   5.906
 8489TIP3   OH225430   0.631   5.395   1.242
 8489TIP3    H125431   0.584   5.453   1.182
 8489TIP3    H225432   0.571   5.322   1.257
 8490TIP3   OH225433   0.436   1.877   5.519
 8490TIP3    H125434   0.350   1.912   5.542
 8490TIP3    H225435   0.418   1.788   5.488
 8491TIP3   OH225436   0.852   1.229   2.008
 8491TIP3    H125437   0.809   1.213   1.924
 8491TIP3    H225438   0.910   1.304   1.992
 8492TIP3   OH225439   1.021   3.626   0.086
 8492TIP3    H125440   1.085   3.660   0.024
 8492TIP3    H225441   1.046   3.664   0.170
 8493TIP3   OH225442   3.581   6.361   3.921
 8493TIP3    H125443   3.615   6.317   3.999
 8493TIP3    H225444   3.555   6.448   3.951
 8494TIP3   OH225445   7.063   0.806   5.732
 8494TIP3    H125446   7.079   0.895   5.702
 8494TIP3    H225447   7.014   0.817   5.814
 8495TIP3   OH225448   6.568   1.942   2.644
 8495TIP3    H125449   6.531   1.905   2.724
 8495TIP3    H225450   6.662   1.945   2.659
 8496TIP3   OH225451   2.329   5.385   0.022
 8496TIP3    H125452   2.404   5.426  -0.022
 8496TIP3    H225453   2.367   5.342   0.098
 8497TIP3   OH225454   2.047   1.500   3.904
 8497TIP3    H125455   2.131   1.480   3.862
 8497TIP3    H225456   2.059   1.473   3.995
 8498TIP3   OH225457   4.097   1.095   4.816
 8498TIP3    H125458   4.099   1.008   4.856
 8498TIP3    H225459   4.004   1.118   4.812
 8499TIP3   OH225460   0.357   6.725   2.698
 8499TIP3    H125461   0.320   6.675   2.771
 8499TIP3    H225462   0.289   6.789   2.677
 8500TIP3   OH225463   0.446   4.247   4.240
 8500TIP3    H125464   0.526   4.236   4.291
 8500TIP3    H225465   0.449   4.176   4.176
 8501TIP3   OH225466   2.759   1.124   4.909
 8501TIP3    H125467   2.713   1.052   4.866
 8501TIP3    H225468   2.716   1.132   4.995
 8502TIP3   OH225469   4.122   3.154   0.466
 8502TIP3    H125470   4.068   3.075   0.472
 8502TIP3    H225471   4.190   3.142   0.532
 8503TIP3   OH225472   5.318   5.790   3.106
 8503TIP3    H125473   5.372   5.782   3.028
 8503TIP3    H225474   5.309   5.884   3.120
 8504TIP3   OH225475   7.003   3.579   0.506
 8504TIP3    H125476   7.037   3.564   0.594
 8504TIP3    H225477   7.030   3.501   0.456
 8505TIP3   OH225478   2.898   5.512   1.876
 8505TIP3    H125479   2.810   5.481   1.898
 8505TIP3    H225480   2.933   5.445   1.817
 8506TIP3   OH225481   4.627   2.748   2.911
 8506TIP3    H125482   4.605   2.839   2.894
 8506TIP3    H225483   4.598   2.733   3.001
 8507TIP3   OH225484   3.899   5.550   3.143
 8507TIP3    H125485   3.959   5.577   3.212
 8507TIP3    H225486   3.934   5.591   3.064
 8508TIP3   OH225487   2.182   2.437   2.211
 8508TIP3    H125488   2.150   2.348   2.225
 8508TIP3    H225489   2.118   2.476   2.152
 8509TIP3   OH225490   0.114   4.607   5.632
 8509TIP3    H125491   0.142   4.607   5.724
 8509TIP3    H225492   0.161   4.533   5.593
 8510TIP3   OH225493   5.120   1.672   2.564
 8510TIP3    H125494   5.151   1.652   2.652
 8510TIP3    H225495   5.088   1.762   2.570
 8511TIP3   OH225496   3.077   4.236   0.887
 8511TIP3    H125497   3.059   4.329   0.894
 8511TIP3    H225498   3.112   4.225   0.798
 8512TIP3   OH225499   3.659   6.180   1.596
 8512TIP3    H125500   3.599   6.105   1.600
 8512TIP3    H225501   3.740   6.148   1.635
 8513TIP3   OH225502   3.643   1.550   1.677
 8513TIP3    H125503   3.703   1.590   1.741
 8513TIP3    H225504   3.700   1.513   1.610
 8514TIP3   OH225505   4.432   6.460   1.958
 8514TIP3    H125506   4.422   6.369   1.985
 8514TIP3    H225507   4.478   6.456   1.874
 8515TIP3   OH225508   0.973   4.482   5.296
 8515TIP3    H125509   1.062   4.466   5.327
 8515TIP3    H225510   0.967   4.577   5.286
 8516TIP3   OH225511   4.865   3.406   5.764
 8516TIP3    H125512   4.912   3.421   5.682
 8516TIP3    H225513   4.925   3.436   5.832
 8517TIP3   OH225514   6.529   6.747   4.246
 8517TIP3    H125515   6.472   6.675   4.221
 8517TIP3    H225516   6.500   6.820   4.193
 8518TIP3   OH225517   3.061   3.786   3.825
 8518TIP3    H125518   3.092   3.875   3.842
 8518TIP3    H225519   3.070   3.740   3.908
 8519TIP3   OH225520   0.753   0.221   4.401
 8519TIP3    H125521   0.725   0.284   4.334
 8519TIP3    H225522   0.822   0.170   4.359
 8520TIP3   OH225523   2.115   1.093   0.572
 8520TIP3    H125524   2.019   1.096   0.569
 8520TIP3    H225525   2.135   1.073   0.663
 8521TIP3   OH225526   5.105   4.450   1.817
 8521TIP3    H125527   5.038   4.390   1.848
 8521TIP3    H225528   5.179   4.394   1.793
 8522TIP3   OH225529   1.983   0.811   2.820
 8522TIP3    H125530   1.960   0.824   2.911
 8522TIP3    H225531   1.975   0.717   2.806
 8523TIP3   OH225532   1.389   5.046   2.930
 8523TIP3    H125533   1.438   4.970   2.963
 8523TIP3    H225534   1.362   5.093   3.009
 8524TIP3   OH225535   2.264   1.688  -0.001
 8524TIP3    H125536   2.300   1.776   0.013
 8524TIP3    H225537   2.281   1.642   0.081
 8525TIP3   OH225538   1.822   3.378   4.008
 8525TIP3    H125539   1.867   3.334   4.080
 8525TIP3    H225540   1.828   3.472   4.029
 8526TIP3   OH225541   6.698   4.267   3.065
 8526TIP3    H125542   6.666   4.177   3.069
 8526TIP3    H225543   6.731   4.285   3.153
 8527TIP3   OH225544   5.101   4.339   4.046
 8527TIP3    H125545   5.065   4.428   4.049
 8527TIP3    H225546   5.183   4.348   3.998
 8528TIP3   OH225547   5.864   2.991   1.663
 8528TIP3    H125548   5.882   3.050   1.589
 8528TIP3    H225549   5.944   2.994   1.715
 8529TIP3   OH225550   4.809   4.711   5.133
 8529TIP3    H125551   4.900   4.736   5.122
 8529TIP3    H225552   4.810   4.615   5.126
 8530TIP3   OH225553   4.379   0.939   4.614
 8530TIP3    H125554   4.288   0.910   4.621
 8530TIP3    H225555   4.387   0.970   4.523
 8531TIP3   OH225556   5.510   2.191   1.868
 8531TIP3    H125557   5.471   2.105   1.881
 8531TIP3    H225558   5.544   2.189   1.778
 8532TIP3   OH225559   3.350   0.614   0.772
 8532TIP3    H125560   3.390   0.534   0.736
 8532TIP3    H225561   3.367   0.681   0.706
 8533TIP3   OH225562   4.370   3.114   0.238
 8533TIP3    H125563   4.433   3.138   0.306
 8533TIP3    H225564   4.306   3.185   0.239
 8534TIP3   OH225565   4.592   6.016   0.973
 8534TIP3    H125566   4.627   5.957   1.040
 8534TIP3    H225567   4.580   6.099   1.020
 8535TIP3   OH225568   2.721   4.013   4.127
 8535TIP3    H125569   2.681   4.074   4.066
 8535TIP3    H225570   2.649   3.984   4.183
 8536TIP3   OH225571   5.676   6.681   1.159
 8536TIP3    H125572   5.649   6.712   1.246
 8536TIP3    H225573   5.661   6.755   1.101
 8537TIP3   OH225574   0.443   4.623   2.883
 8537TIP3    H125575   0.474   4.658   2.967
 8537TIP3    H225576   0.433   4.699   2.827
 8538TIP3   OH225577   6.127   3.178   1.156
 8538TIP3    H125578   6.174   3.100   1.126
 8538TIP3    H225579   6.056   3.189   1.093
 8539TIP3   OH225580   0.293   0.147   5.137
 8539TIP3    H125581   0.339   0.173   5.057
 8539TIP3    H225582   0.316   0.215   5.200
 8540TIP3   OH225583   5.074   0.553   0.083
 8540TIP3    H125584   5.019   0.561   0.161
 8540TIP3    H225585   5.098   0.461   0.080
 8541TIP3   OH225586   1.036   1.156   3.772
 8541TIP3    H125587   1.057   1.223   3.837
 8541TIP3    H225588   1.120   1.134   3.732
 8542TIP3   OH225589   5.689   1.457   2.228
 8542TIP3    H125590   5.781   1.471   2.205
 8542TIP3    H225591   5.669   1.370   2.194
 8543TIP3   OH225592   1.801   4.102   1.357
 8543TIP3    H125593   1.752   4.102   1.439
 8543TIP3    H225594   1.851   4.020   1.358
 8544TIP3   OH225595   1.864   3.364   2.301
 8544TIP3    H125596   1.930   3.341   2.236
 8544TIP3    H225597   1.793   3.302   2.287
 8545TIP3   OH225598   6.362   4.196   3.828
 8545TIP3    H125599   6.319   4.280   3.846
 8545TIP3    H225600   6.318   4.162   3.751
 8546TIP3   OH225601   6.267   5.470   1.718
 8546TIP3    H125602   6.345   5.503   1.763
 8546TIP3    H225603   6.293   5.385   1.684
 8547TIP3   OH225604   3.040   0.359   3.762
 8547TIP3    H125605   3.114   0.367   3.702
 8547TIP3    H225606   3.054   0.428   3.826
 8548TIP3   OH225607   5.567   6.316   4.456
 8548TIP3    H125608   5.621   6.375   4.509
 8548TIP3    H225609   5.480   6.322   4.493
 8549TIP3   OH225610   0.696   4.156   1.348
 8549TIP3    H125611   0.626   4.221   1.346
 8549TIP3    H225612   0.741   4.171   1.431
 8550TIP3   OH225613   1.858   6.639   3.740
 8550TIP3    H125614   1.838   6.662   3.831
 8550TIP3    H225615   1.953   6.636   3.736
 8551TIP3   OH225616   5.652   5.148   4.834
 8551TIP3    H125617   5.665   5.223   4.892
 8551TIP3    H225618   5.623   5.187   4.751
 8552TIP3   OH225619   1.615   4.012   2.337
 8552TIP3    H125620   1.665   3.967   2.405
 8552TIP3    H225621   1.623   4.105   2.359
 8553TIP3   OH225622   6.796   3.449   2.064
 8553TIP3    H125623   6.810   3.471   1.972
 8553TIP3    H225624   6.716   3.395   2.063
 8554TIP3   OH225625   1.274   2.907   0.608
 8554TIP3    H125626   1.206   2.877   0.670
 8554TIP3    H225627   1.351   2.854   0.630
 8555TIP3   OH225628   5.690   3.030   4.088
 8555TIP3    H125629   5.723   3.072   4.167
 8555TIP3    H225630   5.746   3.064   4.018
 8556TIP3   OH225631   2.990   5.751   4.347
 8556TIP3    H125632   3.080   5.754   4.377
 8556TIP3    H225633   2.943   5.701   4.414
 8557TIP3   OH225634   1.369   0.566   3.054
 8557TIP3    H125635   1.445   0.561   3.112
 8557TIP3    H225636   1.350   0.659   3.047
 8558TIP3   OH225637   5.676   6.319   0.977
 8558TIP3    H125638   5.641   6.230   0.985
 8558TIP3    H225639   5.621   6.360   0.910
 8559TIP3   OH225640   5.628   0.771   4.206
 8559TIP3    H125641   5.596   0.790   4.117
 8559TIP3    H225642   5.564   0.708   4.241
 8560TIP3   OH225643   5.089   0.463   0.539
 8560TIP3    H125644   5.016   0.511   0.576
 8560TIP3    H225645   5.166   0.517   0.558
 8561TIP3   OH225646   6.721   1.879   4.898
 8561TIP3    H125647   6.700   1.792   4.864
 8561TIP3    H225648   6.799   1.906   4.850
 8562TIP3   OH225649   4.752   5.452   3.696
 8562TIP3    H125650   4.784   5.408   3.617
 8562TIP3    H225651   4.756   5.385   3.764
 8563TIP3   OH225652   6.444   4.259   4.410
 8563TIP3    H125653   6.357   4.283   4.378
 8563TIP3    H225654   6.430   4.185   4.468
 8564TIP3   OH225655   5.827   4.807   2.363
 8564TIP3    H125656   5.790   4.843   2.283
 8564TIP3    H225657   5.921   4.823   2.355
 8565TIP3   OH225658   3.777   2.113   4.957
 8565TIP3    H125659   3.771   2.072   5.044
 8565TIP3    H225660   3.734   2.051   4.898
 8566TIP3   OH225661   5.826   3.404   3.660
 8566TIP3    H125662   5.855   3.476   3.716
 8566TIP3    H225663   5.800   3.335   3.722
 8567TIP3   OH225664   5.193   2.210   2.032
 8567TIP3    H125665   5.222   2.254   1.952
 8567TIP3    H225666   5.168   2.122   2.004
 8568TIP3   OH225667   4.979   5.019   1.333
 8568TIP3    H125668   4.915   4.948   1.335
 8568TIP3    H225669   5.036   5.003   1.408
 8569TIP3   OH225670   0.964   6.274   3.932
 8569TIP3    H125671   1.040   6.283   3.990
 8569TIP3    H225672   0.964   6.182   3.907
 8570TIP3   OH225673   5.554   5.680   5.154
 8570TIP3    H125674   5.556   5.636   5.239
 8570TIP3    H225675   5.620   5.749   5.162
 8571TIP3   OH225676   5.409   3.227   3.418
 8571TIP3    H125677   5.465   3.150   3.424
 8571TIP3    H225678   5.335   3.206   3.476
 8572TIP3   OH225679   4.582   5.511   1.893
 8572TIP3    H125680   4.604   5.428   1.936
 8572TIP3    H225681   4.600   5.495   1.800
 8573TIP3   OH225682   7.178   5.763   1.784
 8573TIP3    H125683   7.086   5.789   1.781
 8573TIP3    H225684   7.176   5.671   1.811
 8574TIP3   OH225685   2.191   0.062   2.359
 8574TIP3    H125686   2.165   0.024   2.443
 8574TIP3    H225687   2.247   0.135   2.382
 8575TIP3   OH225688   3.227   0.686   5.165
 8575TIP3    H125689   3.238   0.652   5.254
 8575TIP3    H225690   3.273   0.623   5.110
 8576TIP3   OH225691   5.137   0.605   0.997
 8576TIP3    H125692   5.083   0.527   1.009
 8576TIP3    H225693   5.142   0.645   1.084
 8577TIP3   OH225694   4.996   2.009   0.902
 8577TIP3    H125695   5.049   2.004   0.981
 8577TIP3    H225696   5.041   2.074   0.847
 8578TIP3   OH225697   0.923   3.335   2.404
 8578TIP3    H125698   0.976   3.283   2.466
 8578TIP3    H225699   0.854   3.274   2.376
 8579TIP3   OH225700   6.233   3.991   4.157
 8579TIP3    H125701   6.315   3.955   4.121
 8579TIP3    H225702   6.166   3.963   4.095
 8580TIP3   OH225703   0.731   1.515   2.309
 8580TIP3    H125704   0.807   1.534   2.364
 8580TIP3    H225705   0.747   1.566   2.229
 8581TIP3   OH225706   0.659   4.176   4.380
 8581TIP3    H125707   0.702   4.243   4.434
 8581TIP3    H225708   0.626   4.112   4.444
 8582TIP3   OH225709   6.301   5.710   5.746
 8582TIP3    H125710   6.348   5.771   5.802
 8582TIP3    H225711   6.222   5.757   5.721
 8583TIP3   OH225712   3.049   6.343   0.923
 8583TIP3    H125713   3.067   6.250   0.909
 8583TIP3    H225714   3.030   6.349   1.016
 8584TIP3   OH225715   5.878   5.875   5.484
 8584TIP3    H125716   5.875   5.936   5.410
 8584TIP3    H225717   5.924   5.799   5.450
 8585TIP3   OH225718   2.483   1.500   3.321
 8585TIP3    H125719   2.555   1.496   3.384
 8585TIP3    H225720   2.490   1.587   3.282
 8586TIP3   OH225721   2.214   6.253   4.144
 8586TIP3    H125722   2.155   6.217   4.079
 8586TIP3    H225723   2.250   6.177   4.189
 8587TIP3   OH225724   2.473   1.354   0.090
 8587TIP3    H125725   2.498   1.433   0.137
 8587TIP3    H225726   2.378   1.360   0.080
 8588TIP3   OH225727   1.343   2.660   0.156
 8588TIP3    H125728   1.283   2.596   0.116
 8588TIP3    H225729   1.306   2.676   0.242
 8589TIP3   OH225730   2.057   1.232   5.456
 8589TIP3    H125731   2.043   1.139   5.471
 8589TIP3    H225732   2.137   1.253   5.504
 8590TIP3   OH225733   6.426   6.210   5.762
 8590TIP3    H125734   6.513   6.231   5.729
 8590TIP3    H225735   6.382   6.167   5.689
 8591TIP3   OH225736   3.245   1.807   1.668
 8591TIP3    H125737   3.219   1.718   1.691
 8591TIP3    H225738   3.335   1.799   1.637
 8592TIP3   OH225739   4.265   3.726   5.272
 8592TIP3    H125740   4.315   3.791   5.321
 8592TIP3    H225741   4.203   3.690   5.336
 8593TIP3   OH225742   5.329   0.853   3.265
 8593TIP3    H125743   5.364   0.766   3.247
 8593TIP3    H225744   5.405   0.911   3.256
 8594TIP3   OH225745   3.194   0.136   4.151
 8594TIP3    H125746   3.253   0.062   4.136
 8594TIP3    H225747   3.107   0.101   4.135
 8595TIP3   OH225748   5.471   2.247   4.127
 8595TIP3    H125749   5.496   2.247   4.219
 8595TIP3    H225750   5.478   2.338   4.099
 8596TIP3   OH225751   3.992   4.909   1.149
 8596TIP3    H125752   4.070   4.961   1.129
 8596TIP3    H225753   3.973   4.929   1.241
 8597TIP3   OH225754   1.678   3.554   4.713
 8597TIP3    H125755   1.691   3.622   4.779
 8597TIP3    H225756   1.767   3.532   4.685
 8598TIP3   OH225757   3.664   1.978   5.173
 8598TIP3    H125758   3.575   1.987   5.140
 8598TIP3    H225759   3.671   1.887   5.201
 8599TIP3   OH225760   3.403   5.969   3.161
 8599TIP3    H125761   3.436   5.928   3.081
 8599TIP3    H225762   3.481   5.996   3.209
 8600TIP3   OH225763   1.656   0.134   1.275
 8600TIP3    H125764   1.673   0.212   1.328
 8600TIP3    H225765   1.741   0.090   1.268
 8601TIP3   OH225766   5.662   3.544   5.071
 8601TIP3    H125767   5.584   3.509   5.115
 8601TIP3    H225768   5.672   3.632   5.107
 8602TIP3   OH225769   3.714   6.196   2.015
 8602TIP3    H125770   3.653   6.197   2.090
 8602TIP3    H225771   3.700   6.279   1.971
 8603TIP3   OH225772   5.399   4.522   0.927
 8603TIP3    H125773   5.421   4.433   0.898
 8603TIP3    H225774   5.457   4.578   0.876
 8604TIP3   OH225775   3.714   3.027   5.352
 8604TIP3    H125776   3.675   2.941   5.337
 8604TIP3    H225777   3.807   3.015   5.333
 8605TIP3   OH225778   3.583   0.471   1.082
 8605TIP3    H125779   3.609   0.434   1.167
 8605TIP3    H225780   3.508   0.417   1.055
 8606TIP3   OH225781   3.024   5.110   3.046
 8606TIP3    H125782   3.076   5.104   3.126
 8606TIP3    H225783   3.060   5.185   3.000
 8607TIP3   OH225784   0.926   5.156   1.899
 8607TIP3    H125785   0.862   5.226   1.914
 8607TIP3    H225786   0.873   5.076   1.895
 8608TIP3   OH225787   2.259   5.821   4.705
 8608TIP3    H125788   2.190   5.867   4.753
 8608TIP3    H225789   2.340   5.860   4.736
 8609TIP3   OH225790   1.264   5.015   5.869
 8609TIP3    H125791   1.245   4.953   5.798
 8609TIP3    H225792   1.282   5.098   5.825
 8610TIP3   OH225793   3.312  -0.063   1.313
 8610TIP3    H125794   3.330  -0.108   1.396
 8610TIP3    H225795   3.233  -0.013   1.329
 8611TIP3   OH225796   1.962   0.946   3.422
 8611TIP3    H125797   1.940   1.036   3.445
 8611TIP3    H225798   2.032   0.954   3.357
 8612TIP3   OH225799   3.679   1.935   1.388
 8612TIP3    H125800   3.652   1.994   1.317
 8612TIP3    H225801   3.741   1.875   1.347
 8613TIP3   OH225802   3.747   3.168   5.604
 8613TIP3    H125803   3.750   3.103   5.674
 8613TIP3    H225804   3.735   3.117   5.524
 8614TIP3   OH225805   6.249   4.530   0.091
 8614TIP3    H125806   6.186   4.458   0.096
 8614TIP3    H225807   6.207   4.595   0.036
 8615TIP3   OH225808   1.803   5.498   0.299
 8615TIP3    H125809   1.761   5.510   0.384
 8615TIP3    H225810   1.773   5.413   0.269
 8616TIP3   OH225811   6.700   4.198   4.415
 8616TIP3    H125812   6.736   4.287   4.413
 8616TIP3    H225813   6.605   4.211   4.410
 8617TIP3   OH225814   6.453   6.004   1.740
 8617TIP3    H125815   6.360   6.009   1.717
 8617TIP3    H225816   6.473   6.090   1.779
 8618TIP3   OH225817   6.205   5.941   1.019
 8618TIP3    H125818   6.299   5.943   1.002
 8618TIP3    H225819   6.193   5.995   1.097
 8619TIP3   OH225820   4.028   2.512   1.695
 8619TIP3    H125821   4.025   2.604   1.669
 8619TIP3    H225822   4.030   2.464   1.612
 8620TIP3   OH225823   4.167   3.533   4.474
 8620TIP3    H125824   4.176   3.544   4.379
 8620TIP3    H225825   4.185   3.440   4.489
 8621TIP3   OH225826   2.830   5.014   4.914
 8621TIP3    H125827   2.868   4.932   4.885
 8621TIP3    H225828   2.760   5.032   4.851
 8622TIP3   OH225829   5.708   3.968   1.413
 8622TIP3    H125830   5.638   3.951   1.475
 8622TIP3    H225831   5.707   4.063   1.401
 8623TIP3   OH225832   7.106   2.158   4.966
 8623TIP3    H125833   7.052   2.185   4.892
 8623TIP3    H225834   7.190   2.134   4.928
 8624TIP3   OH225835   2.110   1.702   2.400
 8624TIP3    H125836   2.149   1.770   2.454
 8624TIP3    H225837   2.171   1.690   2.327
 8625TIP3   OH225838   5.536   2.441   4.965
 8625TIP3    H125839   5.480   2.465   4.891
 8625TIP3    H225840   5.474   2.415   5.034
 8626TIP3   OH225841   2.009   0.974   5.861
 8626TIP3    H125842   2.081   0.946   5.806
 8626TIP3    H225843   2.031   1.063   5.887
 8627TIP3   OH225844   5.643   4.398   4.015
 8627TIP3    H125845   5.613   4.420   4.103
 8627TIP3    H225846   5.724   4.448   4.004
 8628TIP3   OH225847   3.584   4.939   0.323
 8628TIP3    H125848   3.519   5.005   0.299
 8628TIP3    H225849   3.576   4.872   0.255
 8629TIP3   OH225850   6.075   3.082   2.606
 8629TIP3    H125851   6.166   3.080   2.635
 8629TIP3    H225852   6.027   3.033   2.672
 8630TIP3   OH225853   3.218   4.588   4.224
 8630TIP3    H125854   3.161   4.652   4.180
 8630TIP3    H225855   3.306   4.621   4.211
 8631TIP3   OH225856   3.404   1.308   3.326
 8631TIP3    H125857   3.449   1.284   3.245
 8631TIP3    H225858   3.328   1.249   3.329
 8632TIP3   OH225859   2.301   0.916   4.978
 8632TIP3    H125860   2.369   0.853   5.001
 8632TIP3    H225861   2.314   0.989   5.039
 8633TIP3   OH225862   5.972   2.921   2.823
 8633TIP3    H125863   5.913   2.983   2.866
 8633TIP3    H225864   5.935   2.835   2.844
 8634TIP3   OH225865   4.371   3.980   3.254
 8634TIP3    H125866   4.334   3.894   3.239
 8634TIP3    H225867   4.327   4.037   3.191
 8635TIP3   OH225868   5.678   4.209   1.298
 8635TIP3    H125869   5.729   4.267   1.241
 8635TIP3    H225870   5.591   4.249   1.300
 8636TIP3   OH225871   6.344   3.985   3.059
 8636TIP3    H125872   6.309   3.982   2.970
 8636TIP3    H225873   6.284   4.044   3.105
 8637TIP3   OH225874   3.732   5.237   4.594
 8637TIP3    H125875   3.781   5.214   4.515
 8637TIP3    H225876   3.642   5.249   4.565
 8638TIP3   OH225877   0.325   2.734   3.605
 8638TIP3    H125878   0.241   2.777   3.625
 8638TIP3    H225879   0.348   2.767   3.518
 8639TIP3   OH225880   4.568   0.036   5.662
 8639TIP3    H125881   4.494   0.067   5.715
 8639TIP3    H225882   4.627  -0.005   5.725
 8640TIP3   OH225883   3.470   2.020   2.150
 8640TIP3    H125884   3.558   2.048   2.128
 8640TIP3    H225885   3.477   1.926   2.165
 8641TIP3   OH225886   2.474   1.599   2.907
 8641TIP3    H125887   2.390   1.645   2.901
 8641TIP3    H225888   2.451   1.507   2.917
 8642TIP3   OH225889   6.619   4.971   3.421
 8642TIP3    H125890   6.610   4.901   3.356
 8642TIP3    H225891   6.712   4.992   3.421
 8643TIP3   OH225892   3.048   0.329   1.921
 8643TIP3    H125893   3.036   0.275   1.999
 8643TIP3    H225894   3.134   0.369   1.933
 8644TIP3   OH225895   0.497   6.640   1.288
 8644TIP3    H125896   0.535   6.564   1.244
 8644TIP3    H225897   0.567   6.706   1.285
 8645TIP3   OH225898   2.572   6.616   0.548
 8645TIP3    H125899   2.649   6.656   0.590
 8645TIP3    H225900   2.506   6.685   0.550
 8646TIP3   OH225901   7.197   2.858   0.211
 8646TIP3    H125902   7.221   2.940   0.254
 8646TIP3    H225903   7.132   2.884   0.145
 8647TIP3   OH225904   7.019   2.145   1.137
 8647TIP3    H125905   7.092   2.187   1.091
 8647TIP3    H225906   7.029   2.051   1.118
 8648TIP3   OH225907   2.987   4.777   5.303
 8648TIP3    H125908   2.999   4.865   5.269
 8648TIP3    H225909   2.900   4.751   5.273
 8649TIP3   OH225910   1.799   6.231   5.023
 8649TIP3    H125911   1.857   6.293   4.977
 8649TIP3    H225912   1.711   6.265   5.006
 8650TIP3   OH225913   2.315   2.196   4.476
 8650TIP3    H125914   2.296   2.191   4.569
 8650TIP3    H225915   2.254   2.133   4.436
 8651TIP3   OH225916   0.938   2.739   0.116
 8651TIP3    H125917   0.901   2.795   0.184
 8651TIP3    H225918   0.903   2.652   0.134
 8652TIP3   OH225919   6.834   3.896   4.322
 8652TIP3    H125920   6.875   3.885   4.407
 8652TIP3    H225921   6.743   3.920   4.341
 8653TIP3   OH225922   0.404   6.019   2.796
 8653TIP3    H125923   0.374   6.087   2.737
 8653TIP3    H225924   0.331   5.958   2.803
 8654TIP3   OH225925   3.919   2.020   1.917
 8654TIP3    H125926   4.012   2.027   1.896
 8654TIP3    H225927   3.874   2.041   1.835
 8655TIP3   OH225928   7.001   2.919   4.511
 8655TIP3    H125929   6.994   2.994   4.571
 8655TIP3    H225930   6.916   2.915   4.468
 8656TIP3   OH225931   7.160   0.946   3.220
 8656TIP3    H125932   7.156   0.853   3.243
 8656TIP3    H225933   7.232   0.980   3.273
 8657TIP3   OH225934   2.423   3.840   5.344
 8657TIP3    H125935   2.483   3.844   5.418
 8657TIP3    H225936   2.479   3.842   5.267
 8658TIP3   OH225937   1.167   1.903   4.378
 8658TIP3    H125938   1.163   1.939   4.467
 8658TIP3    H225939   1.115   1.964   4.325
 8659TIP3   OH225940   1.187   1.367   0.696
 8659TIP3    H125941   1.207   1.431   0.764
 8659TIP3    H225942   1.272   1.333   0.669
 8660TIP3   OH225943   7.094   2.679   4.208
 8660TIP3    H125944   7.137   2.606   4.163
 8660TIP3    H225945   7.053   2.638   4.284
 8661TIP3   OH225946   4.321   0.392   1.415
 8661TIP3    H125947   4.233   0.364   1.439
 8661TIP3    H225948   4.367   0.311   1.392
 8662TIP3   OH225949   2.484   0.776   4.046
 8662TIP3    H125950   2.517   0.775   4.136
 8662TIP3    H225951   2.402   0.726   4.049
 8663TIP3   OH225952   3.691   4.691   5.662
 8663TIP3    H125953   3.706   4.769   5.609
 8663TIP3    H225954   3.734   4.621   5.613
 8664TIP3   OH225955   5.491   4.728   1.338
 8664TIP3    H125956   5.554   4.798   1.353
 8664TIP3    H225957   5.492   4.676   1.418
 8665TIP3   OH225958   2.639   5.067   3.781
 8665TIP3    H125959   2.668   5.042   3.693
 8665TIP3    H225960   2.686   5.148   3.800
 8666TIP3   OH225961   5.093   2.897   5.055
 8666TIP3    H125962   5.038   2.922   5.130
 8666TIP3    H225963   5.121   2.808   5.074
 8667TIP3   OH225964   3.762   2.836   1.642
 8667TIP3    H125965   3.738   2.880   1.723
 8667TIP3    H225966   3.700   2.763   1.635
 8668TIP3   OH225967   0.467   2.260   3.790
 8668TIP3    H125968   0.402   2.208   3.744
 8668TIP3    H225969   0.443   2.351   3.771
 8669TIP3   OH225970   1.871   2.884   0.601
 8669TIP3    H125971   1.796   2.942   0.618
 8669TIP3    H225972   1.841   2.798   0.629
 8670TIP3   OH225973   6.539   2.960   2.669
 8670TIP3    H125974   6.487   3.032   2.632
 8670TIP3    H225975   6.630   2.990   2.659
 8671TIP3   OH225976   5.553   3.563   1.770
 8671TIP3    H125977   5.622   3.505   1.737
 8671TIP3    H225978   5.584   3.651   1.751
 8672TIP3   OH225979   0.913   2.632   3.520
 8672TIP3    H125980   0.823   2.610   3.495
 8672TIP3    H225981   0.965   2.556   3.493
 8673TIP3   OH225982   6.311   5.843   2.755
 8673TIP3    H125983   6.226   5.877   2.784
 8673TIP3    H225984   6.357   5.820   2.835
 8674TIP3   OH225985   5.703   1.112   1.815
 8674TIP3    H125986   5.684   1.142   1.726
 8674TIP3    H225987   5.720   1.191   1.864
 8675TIP3   OH225988   2.955   1.145   5.770
 8675TIP3    H125989   2.893   1.178   5.835
 8675TIP3    H225990   2.977   1.221   5.717
 8676TIP3   OH225991   3.068   4.497   2.961
 8676TIP3    H125992   3.099   4.407   2.970
 8676TIP3    H225993   3.135   4.551   3.002
 8677TIP3   OH225994   7.023   2.445   2.149
 8677TIP3    H125995   6.929   2.430   2.164
 8677TIP3    H225996   7.055   2.362   2.114
 8678TIP3   OH225997   6.712   1.204   2.210
 8678TIP3    H125998   6.798   1.194   2.170
 8678TIP3    H225999   6.656   1.141   2.163
 8679TIP3   OH226000   2.236   5.724   2.309
 8679TIP3    H126001   2.275   5.789   2.368
 8679TIP3    H226002   2.157   5.695   2.355
 8680TIP3   OH226003   6.669   2.078   4.551
 8680TIP3    H126004   6.683   2.171   4.568
 8680TIP3    H226005   6.718   2.060   4.471
 8681TIP3   OH226006   6.798   0.362   1.872
 8681TIP3    H126007   6.800   0.447   1.917
 8681TIP3    H226008   6.779   0.299   1.941
 8682TIP3   OH226009   6.254   3.394   2.791
 8682TIP3    H126010   6.273   3.300   2.796
 8682TIP3    H226011   6.268   3.416   2.699
 8683TIP3   OH226012   1.656   3.753   1.276
 8683TIP3    H126013   1.575   3.798   1.303
 8683TIP3    H226014   1.641   3.661   1.299
 8684TIP3   OH226015   6.455   0.446   1.369
 8684TIP3    H126016   6.384   0.447   1.304
 8684TIP3    H226017   6.480   0.354   1.376
 8685TIP3   OH226018   1.954   6.188   5.750
 8685TIP3    H126019   1.960   6.147   5.664
 8685TIP3    H226020   1.871   6.158   5.787
 8686TIP3   OH226021   6.084   0.692   2.209
 8686TIP3    H126022   6.093   0.599   2.188
 8686TIP3    H226023   5.993   0.712   2.187
 8687TIP3   OH226024   4.676   4.466   5.340
 8687TIP3    H126025   4.726   4.497   5.263
 8687TIP3    H226026   4.716   4.382   5.362
 8688TIP3   OH226027   3.191   0.591   0.999
 8688TIP3    H126028   3.266   0.613   0.944
 8688TIP3    H226029   3.193   0.496   1.005
 8689TIP3   OH226030   4.473   3.745   2.947
 8689TIP3    H126031   4.495   3.664   2.901
 8689TIP3    H226032   4.413   3.717   3.017
 8690TIP3   OH226033   3.359   5.346   1.136
 8690TIP3    H126034   3.450   5.323   1.121
 8690TIP3    H226035   3.339   5.310   1.223
 8691TIP3   OH226036   3.540   2.666   1.615
 8691TIP3    H126037   3.546   2.627   1.703
 8691TIP3    H226038   3.448   2.692   1.607
 8692TIP3   OH226039   3.413   4.440   2.377
 8692TIP3    H126040   3.476   4.419   2.446
 8692TIP3    H226041   3.463   4.434   2.296
 8693TIP3   OH226042   0.986   5.571   1.882
 8693TIP3    H126043   0.919   5.599   1.820
 8693TIP3    H226044   1.059   5.543   1.827
 8694TIP3   OH226045   5.225   3.614   5.147
 8694TIP3    H126046   5.194   3.545   5.087
 8694TIP3    H226047   5.257   3.683   5.090
 8695TIP3   OH226048   3.913   0.258   0.156
 8695TIP3    H126049   3.996   0.210   0.148
 8695TIP3    H226050   3.921   0.331   0.094
 8696TIP3   OH226051   1.822   5.854   4.874
 8696TIP3    H126052   1.903   5.887   4.836
 8696TIP3    H226053   1.847   5.824   4.962
 8697TIP3   OH226054   0.206   5.645   2.152
 8697TIP3    H126055   0.113   5.641   2.128
 8697TIP3    H226056   0.206   5.636   2.248
 8698TIP3   OH226057   2.852   1.245   2.243
 8698TIP3    H126058   2.918   1.180   2.219
 8698TIP3    H226059   2.875   1.322   2.190
 8699TIP3   OH226060   6.613   4.939   0.192
 8699TIP3    H126061   6.705   4.945   0.168
 8699TIP3    H226062   6.604   4.852   0.231
 8700TIP3   OH226063   5.668   4.636   3.061
 8700TIP3    H126064   5.644   4.710   3.117
 8700TIP3    H226065   5.585   4.603   3.026
 8701TIP3   OH226066   0.262   5.535   5.559
 8701TIP3    H126067   0.276   5.444   5.586
 8701TIP3    H226068   0.188   5.564   5.613
 8702TIP3   OH226069   6.587   3.496   4.870
 8702TIP3    H126070   6.514   3.558   4.864
 8702TIP3    H226071   6.546   3.410   4.872
 8703TIP3   OH226072   0.406   0.304   5.745
 8703TIP3    H126073   0.360   0.346   5.673
 8703TIP3    H226074   0.341   0.245   5.784
 8704TIP3   OH226075   7.070   2.013   3.885
 8704TIP3    H126076   7.040   2.102   3.908
 8704TIP3    H226077   7.127   1.988   3.958
 8705TIP3   OH226078   2.825   5.261   2.186
 8705TIP3    H126079   2.912   5.223   2.196
 8705TIP3    H226080   2.777   5.233   2.263
 8706TIP3   OH226081   6.287   1.474   5.308
 8706TIP3    H126082   6.195   1.457   5.330
 8706TIP3    H226083   6.314   1.396   5.260
 8707TIP3   OH226084   2.972   0.102   1.670
 8707TIP3    H126085   2.916   0.103   1.748
 8707TIP3    H226086   3.060   0.086   1.704
 8708TIP3   OH226087   2.072   4.296   2.304
 8708TIP3    H126088   1.988   4.251   2.301
 8708TIP3    H226089   2.073   4.340   2.389
 8709TIP3   OH226090   0.879   2.929   0.676
 8709TIP3    H126091   0.952   2.873   0.702
 8709TIP3    H226092   0.817   2.869   0.635
 8710TIP3   OH226093   2.189   3.796   4.725
 8710TIP3    H126094   2.117   3.795   4.789
 8710TIP3    H226095   2.210   3.703   4.713
 8711TIP3   OH226096   1.283   3.355   1.309
 8711TIP3    H126097   1.216   3.398   1.256
 8711TIP3    H226098   1.320   3.288   1.252
 8712TIP3   OH226099   2.519   3.261   3.698
 8712TIP3    H126100   2.598   3.301   3.732
 8712TIP3    H226101   2.502   3.186   3.756
 8713TIP3   OH226102   3.191   1.969   0.199
 8713TIP3    H126103   3.183   2.049   0.251
 8713TIP3    H226104   3.277   1.974   0.158
 8714TIP3   OH226105   6.945   0.313   2.370
 8714TIP3    H126106   6.977   0.223   2.375
 8714TIP3    H226107   7.024   0.366   2.370
 8715TIP3   OH226108   0.120   3.512   4.902
 8715TIP3    H126109   0.068   3.528   4.824
 8715TIP3    H226110   0.069   3.448   4.952
 8716TIP3   OH226111   3.529   3.080   2.975
 8716TIP3    H126112   3.475   3.136   3.031
 8716TIP3    H226113   3.516   3.116   2.887
 8717TIP3   OH226114   3.477   5.336   0.647
 8717TIP3    H126115   3.484   5.254   0.695
 8717TIP3    H226116   3.567   5.358   0.623
 8718TIP3   OH226117   4.459   6.732   1.766
 8718TIP3    H126118   4.480   6.639   1.769
 8718TIP3    H226119   4.407   6.743   1.686
 8719TIP3   OH226120   6.109   2.173   2.725
 8719TIP3    H126121   6.051   2.099   2.744
 8719TIP3    H226122   6.197   2.140   2.742
 8720TIP3   OH226123   4.680   5.162   2.965
 8720TIP3    H126124   4.745   5.231   2.981
 8720TIP3    H226125   4.599   5.198   3.000
 8721TIP3   OH226126   4.480   5.164   0.972
 8721TIP3    H126127   4.496   5.234   0.908
 8721TIP3    H226128   4.525   5.088   0.936
 8722TIP3   OH226129   6.100   0.937   0.875
 8722TIP3    H126130   6.050   0.895   0.945
 8722TIP3    H226131   6.161   0.870   0.845
 8723TIP3   OH226132   1.557   1.077   2.220
 8723TIP3    H126133   1.648   1.087   2.193
 8723TIP3    H226134   1.540   1.153   2.275
 8724TIP3   OH226135   2.430   3.065   1.196
 8724TIP3    H126136   2.525   3.073   1.204
 8724TIP3    H226137   2.404   3.011   1.270
 8725TIP3   OH226138   5.808   4.311   1.636
 8725TIP3    H126139   5.775   4.340   1.721
 8725TIP3    H226140   5.886   4.259   1.657
 8726TIP3   OH226141   6.407   1.388   3.184
 8726TIP3    H126142   6.424   1.466   3.235
 8726TIP3    H226143   6.492   1.360   3.152
 8727TIP3   OH226144   1.634   4.036   1.568
 8727TIP3    H126145   1.624   3.949   1.607
 8727TIP3    H226146   1.549   4.053   1.527
 8728TIP3   OH226147   4.229   1.342   1.053
 8728TIP3    H126148   4.188   1.418   1.093
 8728TIP3    H226149   4.156   1.286   1.026
 8729TIP3   OH226150   1.231   4.010   4.927
 8729TIP3    H126151   1.150   4.032   4.974
 8729TIP3    H226152   1.209   3.931   4.877
 8730TIP3   OH226153   0.549   4.097   0.996
 8730TIP3    H126154   0.621   4.034   1.003
 8730TIP3    H226155   0.583   4.177   1.035
 8731TIP3   OH226156   5.170   5.875   3.874
 8731TIP3    H126157   5.201   5.857   3.963
 8731TIP3    H226158   5.202   5.801   3.823
 8732TIP3   OH226159   6.244   0.524   0.485
 8732TIP3    H126160   6.230   0.475   0.404
 8732TIP3    H226161   6.314   0.477   0.530
 8733TIP3   OH226162   2.552   4.407   4.138
 8733TIP3    H126163   2.526   4.444   4.053
 8733TIP3    H226164   2.470   4.403   4.188
 8734TIP3   OH226165   4.045   3.792   4.905
 8734TIP3    H126166   4.063   3.884   4.925
 8734TIP3    H226167   4.119   3.764   4.850
 8735TIP3   OH226168   2.793   6.039   5.375
 8735TIP3    H126169   2.743   5.993   5.309
 8735TIP3    H226170   2.728   6.082   5.430
 8736TIP3   OH226171   0.235   2.674   0.273
 8736TIP3    H126172   0.154   2.636   0.307
 8736TIP3    H226173   0.214   2.766   0.257
 8737TIP3   OH226174   2.267   6.009   4.277
 8737TIP3    H126175   2.331   5.942   4.300
 8737TIP3    H226176   2.228   6.035   4.361
 8738TIP3   OH226177   5.309   0.712   1.736
 8738TIP3    H126178   5.264   0.725   1.819
 8738TIP3    H226179   5.299   0.619   1.717
 8739TIP3   OH226180   6.667   5.005   0.592
 8739TIP3    H126181   6.730   5.054   0.645
 8739TIP3    H226182   6.607   4.967   0.656
 8740TIP3   OH226183   3.125   5.066   3.302
 8740TIP3    H126184   3.199   5.037   3.249
 8740TIP3    H226185   3.160   5.138   3.355
 8741TIP3   OH226186   6.227   6.579   4.595
 8741TIP3    H126187   6.212   6.538   4.510
 8741TIP3    H226188   6.312   6.622   4.587
 8742TIP3   OH226189   7.053   0.254   3.233
 8742TIP3    H126190   7.094   0.325   3.183
 8742TIP3    H226191   7.118   0.184   3.230
 8743TIP3   OH226192   4.967   4.525   0.191
 8743TIP3    H126193   4.911   4.479   0.129
 8743TIP3    H226194   4.981   4.463   0.262
 8744TIP3   OH226195   3.849   5.905   3.747
 8744TIP3    H126196   3.889   5.819   3.761
 8744TIP3    H226197   3.822   5.934   3.834
 8745TIP3   OH226198   2.651   0.949   0.279
 8745TIP3    H126199   2.586   0.892   0.320
 8745TIP3    H226200   2.735   0.911   0.303
 8746TIP3   OH226201   4.937   2.127   2.876
 8746TIP3    H126202   5.002   2.177   2.826
 8746TIP3    H226203   4.855   2.174   2.863
 8747TIP3   OH226204   0.248   6.699   1.124
 8747TIP3    H126205   0.343   6.693   1.133
 8747TIP3    H226206   0.215   6.619   1.165
 8748TIP3   OH226207   3.348   2.543   4.327
 8748TIP3    H126208   3.324   2.616   4.269
 8748TIP3    H226209   3.437   2.519   4.301
 8749TIP3   OH226210   3.995   6.549   0.959
 8749TIP3    H126211   4.076   6.500   0.946
 8749TIP3    H226212   4.005   6.627   0.905
 8750TIP3   OH226213   6.216   4.735   4.922
 8750TIP3    H126214   6.259   4.717   5.005
 8750TIP3    H226215   6.177   4.822   4.933
 8751TIP3   OH226216   4.618   2.650   4.611
 8751TIP3    H126217   4.591   2.634   4.521
 8751TIP3    H226218   4.668   2.572   4.636
 8752TIP3   OH226219   0.071   1.007   1.560
 8752TIP3    H126220   0.034   0.920   1.545
 8752TIP3    H226221   0.090   1.040   1.472
 8753TIP3   OH226222   3.881   3.445   1.307
 8753TIP3    H126223   3.827   3.440   1.385
 8753TIP3    H226224   3.950   3.380   1.321
 8754TIP3   OH226225   6.326   6.283   5.450
 8754TIP3    H126226   6.345   6.375   5.462
 8754TIP3    H226227   6.411   6.240   5.444
 8755TIP3   OH226228   3.878   6.405   0.005
 8755TIP3    H126229   3.947   6.361   0.055
 8755TIP3    H226230   3.815   6.434   0.071
 8756TIP3   OH226231   2.480   4.431   0.154
 8756TIP3    H126232   2.555   4.373   0.157
 8756TIP3    H226233   2.505   4.506   0.207
 8757TIP3   OH226234   0.772   1.338   1.456
 8757TIP3    H126235   0.679   1.362   1.457
 8757TIP3    H226236   0.810   1.396   1.390
 8758TIP3   OH226237   1.399   1.279   4.955
 8758TIP3    H126238   1.405   1.248   4.864
 8758TIP3    H226239   1.373   1.371   4.948
 8759TIP3   OH226240   2.092   3.486   4.955
 8759TIP3    H126241   2.093   3.421   4.885
 8759TIP3    H226242   2.117   3.437   5.034
 8760TIP3   OH226243   6.417   5.755   0.829
 8760TIP3    H126244   6.364   5.807   0.769
 8760TIP3    H226245   6.434   5.814   0.902
 8761TIP3   OH226246   5.278   6.720   0.913
 8761TIP3    H126247   5.320   6.798   0.876
 8761TIP3    H226248   5.250   6.669   0.836
 8762TIP3   OH226249   4.161   2.968   1.092
 8762TIP3    H126250   4.152   3.059   1.062
 8762TIP3    H226251   4.072   2.934   1.094
 8763TIP3   OH226252   5.569   6.754   1.409
 8763TIP3    H126253   5.533   6.669   1.434
 8763TIP3    H226254   5.614   6.785   1.488
 8764TIP3   OH226255   6.626   3.817   0.804
 8764TIP3    H126256   6.585   3.793   0.721
 8764TIP3    H226257   6.622   3.913   0.805
 8765TIP3   OH226258   6.461   3.984   2.394
 8765TIP3    H126259   6.441   3.980   2.301
 8765TIP3    H226260   6.417   4.063   2.425
 8766TIP3   OH226261   2.970   2.951   5.661
 8766TIP3    H126262   2.932   2.904   5.587
 8766TIP3    H226263   2.901   2.953   5.727
 8767TIP3   OH226264   5.538   4.554   2.646
 8767TIP3    H126265   5.516   4.463   2.665
 8767TIP3    H226266   5.562   4.554   2.553
 8768TIP3   OH226267   5.702   2.216   3.186
 8768TIP3    H126268   5.652   2.148   3.140
 8768TIP3    H226269   5.638   2.257   3.244
 8769TIP3   OH226270   4.770   6.201   2.986
 8769TIP3    H126271   4.763   6.107   3.004
 8769TIP3    H226272   4.862   6.213   2.962
 8770TIP3   OH226273   1.768   6.376   0.863
 8770TIP3    H126274   1.774   6.472   0.873
 8770TIP3    H226275   1.790   6.360   0.771
 8771TIP3   OH226276   5.554   2.870   2.110
 8771TIP3    H126277   5.574   2.940   2.048
 8771TIP3    H226278   5.471   2.896   2.150
 8772TIP3   OH226279   5.180   6.157   3.866
 8772TIP3    H126280   5.217   6.162   3.778
 8772TIP3    H226281   5.177   6.064   3.886
 8773TIP3   OH226282   7.192   5.967   4.000
 8773TIP3    H126283   7.233   5.981   3.915
 8773TIP3    H226284   7.148   6.050   4.020
 8774TIP3   OH226285   6.106   4.538   3.508
 8774TIP3    H126286   6.059   4.576   3.582
 8774TIP3    H226287   6.191   4.513   3.545
 8775TIP3   OH226288   5.293   1.910   4.785
 8775TIP3    H126289   5.210   1.930   4.741
 8775TIP3    H226290   5.358   1.912   4.715
 8776TIP3   OH226291   1.108   6.188   4.665
 8776TIP3    H126292   1.174   6.216   4.602
 8776TIP3    H226293   1.145   6.209   4.750
 8777TIP3   OH226294   4.263   3.279   4.184
 8777TIP3    H126295   4.240   3.215   4.251
 8777TIP3    H226296   4.356   3.264   4.167
 8778TIP3   OH226297   4.299   4.414   3.415
 8778TIP3    H126298   4.311   4.440   3.506
 8778TIP3    H226299   4.249   4.333   3.419
 8779TIP3   OH226300   1.301   0.838   3.113
 8779TIP3    H126301   1.263   0.797   3.191
 8779TIP3    H226302   1.388   0.867   3.141
 8780TIP3   OH226303   2.432   5.970   2.471
 8780TIP3    H126304   2.414   5.886   2.514
 8780TIP3    H226305   2.356   6.024   2.491
 8781TIP3   OH226306   0.356   1.861   3.999
 8781TIP3    H126307   0.366   1.956   4.006
 8781TIP3    H226308   0.442   1.825   4.021
 8782TIP3   OH226309   3.308   4.373   3.868
 8782TIP3    H126310   3.376   4.346   3.806
 8782TIP3    H226311   3.282   4.460   3.838
 8783TIP3   OH226312   4.529   6.442   1.684
 8783TIP3    H126313   4.607   6.388   1.697
 8783TIP3    H226314   4.512   6.437   1.590
 8784TIP3   OH226315   3.664   4.082   3.101
 8784TIP3    H126316   3.604   4.019   3.141
 8784TIP3    H226317   3.606   4.150   3.065
 8785TIP3   OH226318   5.141   3.646   2.177
 8785TIP3    H126319   5.179   3.708   2.240
 8785TIP3    H226320   5.066   3.608   2.223
 8786TIP3   OH226321   1.465   3.490   3.760
 8786TIP3    H126322   1.471   3.576   3.801
 8786TIP3    H226323   1.424   3.506   3.675
 8787TIP3   OH226324   6.831   4.414   2.367
 8787TIP3    H126325   6.805   4.450   2.451
 8787TIP3    H226326   6.922   4.385   2.380
 8788TIP3   OH226327   2.897   5.488   3.316
 8788TIP3    H126328   2.856   5.564   3.274
 8788TIP3    H226329   2.846   5.413   3.286
 8789TIP3   OH226330   0.109   6.092   2.603
 8789TIP3    H126331   0.015   6.079   2.612
 8789TIP3    H226332   0.132   6.150   2.675
 8790TIP3   OH226333   0.153   4.266   3.980
 8790TIP3    H126334   0.060   4.248   3.991
 8790TIP3    H226335   0.196   4.181   3.985
 8791TIP3   OH226336   7.019   5.532   5.809
 8791TIP3    H126337   6.924   5.525   5.807
 8791TIP3    H226338   7.050   5.442   5.812
 8792TIP3   OH226339   4.877   5.248   3.868
 8792TIP3    H126340   4.827   5.178   3.825
 8792TIP3    H226341   4.878   5.224   3.960
 8793TIP3   OH226342   3.309   0.569   5.418
 8793TIP3    H126343   3.313   0.475   5.435
 8793TIP3    H226344   3.328   0.609   5.503
 8794TIP3   OH226345   1.086   2.982   0.321
 8794TIP3    H126346   0.991   2.987   0.333
 8794TIP3    H226347   1.097   2.964   0.228
 8795TIP3   OH226348   5.351   4.733   1.989
 8795TIP3    H126349   5.433   4.724   2.039
 8795TIP3    H226350   5.374   4.791   1.916
 8796TIP3   OH226351   2.394   3.449   4.792
 8796TIP3    H126352   2.463   3.407   4.740
 8796TIP3    H226353   2.403   3.542   4.774
 8797TIP3   OH226354   4.252   0.249   1.880
 8797TIP3    H126355   4.332   0.236   1.931
 8797TIP3    H226356   4.253   0.342   1.858
 8798TIP3   OH226357   5.896   0.188   2.103
 8798TIP3    H126358   5.927   0.136   2.177
 8798TIP3    H226359   5.971   0.194   2.044
 8799TIP3   OH226360   2.663   4.689   1.292
 8799TIP3    H126361   2.717   4.731   1.225
 8799TIP3    H226362   2.595   4.643   1.243
 8800TIP3   OH226363   5.738   1.981   4.315
 8800TIP3    H126364   5.784   2.018   4.240
 8800TIP3    H226365   5.736   1.887   4.298
 8801TIP3   OH226366   6.252   6.650   3.209
 8801TIP3    H126367   6.230   6.735   3.170
 8801TIP3    H226368   6.339   6.630   3.175
 8802TIP3   OH226369   6.876   1.017   1.801
 8802TIP3    H126370   6.971   1.027   1.795
 8802TIP3    H226371   6.863   0.947   1.865
 8803TIP3   OH226372   1.048   5.743   3.453
 8803TIP3    H126373   1.099   5.721   3.375
 8803TIP3    H226374   1.077   5.681   3.519
 8804TIP3   OH226375   0.533   6.081   5.299
 8804TIP3    H126376   0.607   6.056   5.244
 8804TIP3    H226377   0.558   6.052   5.387
 8805TIP3   OH226378   2.498   5.263   2.782
 8805TIP3    H126379   2.457   5.254   2.868
 8805TIP3    H226380   2.497   5.357   2.765
 8806TIP3   OH226381   5.372   3.199   3.048
 8806TIP3    H126382   5.344   3.154   3.128
 8806TIP3    H226383   5.290   3.224   3.005
 8807TIP3   OH226384   1.607   0.183   2.080
 8807TIP3    H126385   1.696   0.169   2.114
 8807TIP3    H226386   1.598   0.120   2.009
 8808TIP3   OH226387   1.762   2.131   3.671
 8808TIP3    H126388   1.711   2.126   3.590
 8808TIP3    H226389   1.711   2.080   3.734
 8809TIP3   OH226390   6.740   3.286   4.588
 8809TIP3    H126391   6.716   3.198   4.619
 8809TIP3    H226392   6.775   3.270   4.500
 8810TIP3   OH226393   3.554   1.939   0.719
 8810TIP3    H126394   3.496   1.919   0.792
 8810TIP3    H226395   3.503   1.921   0.641
 8811TIP3   OH226396   1.048   5.658   4.982
 8811TIP3    H126397   1.103   5.730   4.951
 8811TIP3    H226398   1.023   5.610   4.903
 8812TIP3   OH226399   0.355   6.240   2.618
 8812TIP3    H126400   0.413   6.290   2.560
 8812TIP3    H226401   0.296   6.305   2.656
 8813TIP3   OH226402   2.228   1.270   4.630
 8813TIP3    H126403   2.233   1.298   4.721
 8813TIP3    H226404   2.182   1.186   4.633
 8814TIP3   OH226405   3.100   1.766   4.454
 8814TIP3    H126406   3.013   1.757   4.416
 8814TIP3    H226407   3.155   1.791   4.380
 8815TIP3   OH226408   5.488   6.110   4.253
 8815TIP3    H126409   5.534   6.171   4.310
 8815TIP3    H226410   5.502   6.145   4.165
 8816TIP3   OH226411   0.946   4.098   1.588
 8816TIP3    H126412   0.879   4.155   1.625
 8816TIP3    H226413   1.025   4.117   1.640
 8817TIP3   OH226414   4.838   0.605   2.578
 8817TIP3    H126415   4.872   0.551   2.650
 8817TIP3    H226416   4.826   0.543   2.506
 8818TIP3   OH226417   3.268   4.746   0.349
 8818TIP3    H126418   3.335   4.681   0.325
 8818TIP3    H226419   3.289   4.822   0.295
 8819TIP3   OH226420   5.451   6.387   5.648
 8819TIP3    H126421   5.490   6.306   5.682
 8819TIP3    H226422   5.526   6.442   5.626
 8820TIP3   OH226423   5.216   0.059   4.028
 8820TIP3    H126424   5.201   0.016   4.112
 8820TIP3    H226425   5.225  -0.013   3.966
 8821TIP3   OH226426   5.098   2.759   4.194
 8821TIP3    H126427   5.066   2.761   4.285
 8821TIP3    H226428   5.180   2.709   4.199
 8822TIP3   OH226429   4.690   5.098   3.707
 8822TIP3    H126430   4.654   5.036   3.770
 8822TIP3    H226431   4.728   5.043   3.638
 8823TIP3   OH226432   6.200   1.892   2.875
 8823TIP3    H126433   6.217   1.982   2.904
 8823TIP3    H226434   6.121   1.866   2.923
 8824TIP3   OH226435   2.753   4.194   5.682
 8824TIP3    H126436   2.787   4.105   5.675
 8824TIP3    H226437   2.828   4.250   5.664
 8825TIP3   OH226438   1.256   1.368   3.880
 8825TIP3    H126439   1.349   1.390   3.887
 8825TIP3    H226440   1.218   1.394   3.964
 8826TIP3   OH226441   4.123   0.224   1.271
 8826TIP3    H126442   4.212   0.208   1.238
 8826TIP3    H226443   4.085   0.285   1.208
 8827TIP3   OH226444   4.951   2.860   1.185
 8827TIP3    H126445   4.939   2.839   1.092
 8827TIP3    H226446   4.957   2.775   1.228
 8828TIP3   OH226447   2.002   0.299   2.531
 8828TIP3    H126448   1.917   0.325   2.495
 8828TIP3    H226449   2.064   0.361   2.495
 8829TIP3   OH226450   2.967   3.164   1.603
 8829TIP3    H126451   3.047   3.207   1.631
 8829TIP3    H226452   2.932   3.125   1.683
 8830TIP3   OH226453   2.852   3.737   4.159
 8830TIP3    H126454   2.809   3.819   4.181
 8830TIP3    H226455   2.866   3.693   4.243
 8831TIP3   OH226456   2.902   4.941   3.871
 8831TIP3    H126457   2.831   5.003   3.856
 8831TIP3    H226458   2.908   4.891   3.789
 8832TIP3   OH226459   0.347   5.622   1.355
 8832TIP3    H126460   0.275   5.679   1.382
 8832TIP3    H226461   0.307   5.563   1.291
 8833TIP3   OH226462   6.116   3.676   1.966
 8833TIP3    H126463   6.204   3.697   1.937
 8833TIP3    H226464   6.071   3.761   1.970
 8834TIP3   OH226465   3.571   0.754   0.999
 8834TIP3    H126466   3.609   0.677   1.042
 8834TIP3    H226467   3.590   0.742   0.906
 8835TIP3   OH226468   4.627   2.942   1.133
 8835TIP3    H126469   4.544   2.918   1.173
 8835TIP3    H226470   4.666   2.858   1.106
 8836TIP3   OH226471   0.670   2.392   1.815
 8836TIP3    H126472   0.581   2.390   1.779
 8836TIP3    H226473   0.657   2.389   1.909
 8837TIP3   OH226474   5.694   1.295   4.721
 8837TIP3    H126475   5.708   1.352   4.797
 8837TIP3    H226476   5.604   1.263   4.731
 8838TIP3   OH226477   2.129   3.188   3.059
 8838TIP3    H126478   2.088   3.222   2.979
 8838TIP3    H226479   2.213   3.152   3.029
 8839TIP3   OH226480   4.484   3.070   5.630
 8839TIP3    H126481   4.491   3.069   5.535
 8839TIP3    H226482   4.573   3.083   5.661
 8840TIP3   OH226483   5.599   3.246   0.585
 8840TIP3    H126484   5.539   3.193   0.533
 8840TIP3    H226485   5.685   3.207   0.569
 8841TIP3   OH226486   1.345   4.603   1.886
 8841TIP3    H126487   1.312   4.535   1.827
 8841TIP3    H226488   1.274   4.617   1.949
 8842TIP3   OH226489   6.331   0.585   2.873
 8842TIP3    H126490   6.323   0.673   2.838
 8842TIP3    H226491   6.336   0.597   2.968
 8843TIP3   OH226492   2.461   2.953   3.786
 8843TIP3    H126493   2.518   2.977   3.859
 8843TIP3    H226494   2.507   2.985   3.708
 8844TIP3   OH226495   1.844   1.524   0.706
 8844TIP3    H126496   1.820   1.590   0.771
 8844TIP3    H226497   1.899   1.462   0.753
 8845TIP3   OH226498   0.887   3.808   4.416
 8845TIP3    H126499   0.874   3.867   4.490
 8845TIP3    H226500   0.979   3.816   4.394
 8846TIP3   OH226501   2.076   4.935   0.795
 8846TIP3    H126502   2.063   4.851   0.841
 8846TIP3    H226503   2.016   4.995   0.839
 8847TIP3   OH226504   0.022   0.053   3.258
 8847TIP3    H126505  -0.032  -0.026   3.259
 8847TIP3    H226506   0.110   0.021   3.275
 8848TIP3   OH226507   6.016   1.288   1.148
 8848TIP3    H126508   6.059   1.268   1.065
 8848TIP3    H226509   6.049   1.223   1.209
 8849TIP3   OH226510   4.622   6.581   0.309
 8849TIP3    H126511   4.648   6.662   0.354
 8849TIP3    H226512   4.693   6.563   0.247
 8850TIP3   OH226513   0.141   4.889   3.567
 8850TIP3    H126514   0.213   4.842   3.609
 8850TIP3    H226515   0.138   4.973   3.613
 8851TIP3   OH226516   3.963   4.283   1.333
 8851TIP3    H126517   4.049   4.285   1.374
 8851TIP3    H226518   3.957   4.196   1.293
 8852TIP3   OH226519   4.105   1.096   5.524
 8852TIP3    H126520   4.029   1.042   5.503
 8852TIP3    H226521   4.107   1.099   5.620
 8853TIP3   OH226522   4.554   2.722   0.792
 8853TIP3    H126523   4.469   2.754   0.822
 8853TIP3    H226524   4.604   2.801   0.772
 8854TIP3   OH226525   4.384   0.312   5.434
 8854TIP3    H126526   4.472   0.310   5.396
 8854TIP3    H226527   4.394   0.363   5.514
 8855TIP3   OH226528   5.077   4.786   4.408
 8855TIP3    H126529   5.026   4.837   4.345
 8855TIP3    H226530   5.033   4.800   4.492
 8856TIP3   OH226531   1.840   5.925   0.441
 8856TIP3    H126532   1.855   5.831   0.436
 8856TIP3    H226533   1.883   5.961   0.364
 8857TIP3   OH226534   0.338   5.409   3.149
 8857TIP3    H126535   0.275   5.409   3.221
 8857TIP3    H226536   0.414   5.456   3.184
 8858TIP3   OH226537   3.969   3.891   2.101
 8858TIP3    H126538   3.955   3.980   2.071
 8858TIP3    H226539   3.980   3.899   2.196
 8859TIP3   OH226540   2.661   6.705   0.920
 8859TIP3    H126541   2.706   6.701   0.835
 8859TIP3    H226542   2.724   6.668   0.981
 8860TIP3   OH226543   4.867   4.005   4.926
 8860TIP3    H126544   4.822   4.007   4.841
 8860TIP3    H226545   4.958   3.984   4.904
 8861TIP3   OH226546   2.733   4.606   3.876
 8861TIP3    H126547   2.646   4.570   3.856
 8861TIP3    H226548   2.778   4.535   3.922
 8862TIP3   OH226549   5.584   0.265   1.954
 8862TIP3    H126550   5.504   0.296   1.996
 8862TIP3    H226551   5.554   0.222   1.873
 8863TIP3   OH226552   4.075   1.948   3.326
 8863TIP3    H126553   4.109   1.938   3.415
 8863TIP3    H226554   3.982   1.969   3.338
 8864TIP3   OH226555   1.595   4.234   4.840
 8864TIP3    H126556   1.536   4.306   4.863
 8864TIP3    H226557   1.537   4.165   4.807
 8865TIP3   OH226558   4.501   5.262   1.279
 8865TIP3    H126559   4.500   5.265   1.184
 8865TIP3    H226560   4.592   5.243   1.301
 8866TIP3   OH226561   6.186   2.275   4.008
 8866TIP3    H126562   6.235   2.328   3.945
 8866TIP3    H226563   6.120   2.230   3.956
 8867TIP3   OH226564   6.763   0.186   5.081
 8867TIP3    H126565   6.775   0.234   5.163
 8867TIP3    H226566   6.668   0.179   5.071
 8868TIP3   OH226567   2.720   0.559   4.906
 8868TIP3    H126568   2.735   0.590   4.817
 8868TIP3    H226569   2.649   0.496   4.898
 8869TIP3   OH226570   6.674   2.759   3.298
 8869TIP3    H126571   6.738   2.782   3.365
 8869TIP3    H226572   6.722   2.762   3.216
 8870TIP3   OH226573   0.877   2.816   2.043
 8870TIP3    H126574   0.966   2.781   2.050
 8870TIP3    H226575   0.886   2.909   2.062
 8871TIP3   OH226576   5.937   0.492   1.766
 8871TIP3    H126577   5.900   0.458   1.848
 8871TIP3    H226578   6.030   0.473   1.772
 8872TIP3   OH226579   6.099   3.844   0.209
 8872TIP3    H126580   6.032   3.896   0.253
 8872TIP3    H226581   6.166   3.907   0.184
 8873TIP3   OH226582   5.712   1.304   5.373
 8873TIP3    H126583   5.756   1.237   5.320
 8873TIP3    H226584   5.693   1.260   5.456
 8874TIP3   OH226585   3.790   0.567   4.927
 8874TIP3    H126586   3.801   0.534   5.016
 8874TIP3    H226587   3.736   0.645   4.937
 8875TIP3   OH226588   0.279   2.835   2.274
 8875TIP3    H126589   0.187   2.860   2.265
 8875TIP3    H226590   0.287   2.808   2.366
 8876TIP3   OH226591   4.923   3.400   3.309
 8876TIP3    H126592   4.986   3.333   3.285
 8876TIP3    H226593   4.896   3.379   3.398
 8877TIP3   OH226594   3.365   5.565   5.194
 8877TIP3    H126595   3.387   5.658   5.196
 8877TIP3    H226596   3.280   5.561   5.150
 8878TIP3   OH226597   4.863   2.636   2.424
 8878TIP3    H126598   4.821   2.694   2.361
 8878TIP3    H226599   4.954   2.630   2.394
 8879TIP3   OH226600   0.122   6.739   4.107
 8879TIP3    H126601   0.191   6.699   4.054
 8879TIP3    H226602   0.123   6.832   4.081
 8880TIP3   OH226603   5.795   0.698   0.173
 8880TIP3    H126604   5.754   0.746   0.245
 8880TIP3    H226605   5.770   0.746   0.095
 8881TIP3   OH226606   5.741   4.635   1.222
 8881TIP3    H126607   5.818   4.629   1.166
 8881TIP3    H226608   5.681   4.692   1.175
 8882TIP3   OH226609   1.286   3.176   0.562
 8882TIP3    H126610   1.281   3.083   0.582
 8882TIP3    H226611   1.198   3.199   0.531
 8883TIP3   OH226612   2.510   1.740   3.205
 8883TIP3    H126613   2.533   1.723   3.113
 8883TIP3    H226614   2.456   1.818   3.202
 8884TIP3   OH226615   1.998   6.363   4.255
 8884TIP3    H126616   1.934   6.337   4.188
 8884TIP3    H226617   2.075   6.309   4.237
 8885TIP3   OH226618   6.545   2.208   1.243
 8885TIP3    H126619   6.498   2.277   1.196
 8885TIP3    H226620   6.609   2.174   1.180
 8886TIP3   OH226621   1.987   2.535   0.545
 8886TIP3    H126622   1.945   2.468   0.599
 8886TIP3    H226623   2.050   2.576   0.603
 8887TIP3   OH226624   2.956   1.425   5.377
 8887TIP3    H126625   2.944   1.515   5.407
 8887TIP3    H226626   2.909   1.372   5.442
 8888TIP3   OH226627   0.908   1.772   2.939
 8888TIP3    H126628   0.982   1.718   2.967
 8888TIP3    H226629   0.833   1.738   2.988
 8889TIP3   OH226630   0.822   0.524   3.100
 8889TIP3    H126631   0.860   0.485   3.021
 8889TIP3    H226632   0.728   0.519   3.086
 8890TIP3   OH226633   5.401   4.018   1.640
 8890TIP3    H126634   5.344   4.069   1.697
 8890TIP3    H226635   5.404   4.066   1.558
 8891TIP3   OH226636   6.854   2.341   4.845
 8891TIP3    H126637   6.934   2.389   4.824
 8891TIP3    H226638   6.786   2.407   4.850
 8892TIP3   OH226639   3.521   3.436   1.196
 8892TIP3    H126640   3.559   3.371   1.255
 8892TIP3    H226641   3.562   3.519   1.222
 8893TIP3   OH226642   5.027   3.546   4.599
 8893TIP3    H126643   5.103   3.571   4.547
 8893TIP3    H226644   5.001   3.627   4.645
 8894TIP3   OH226645   2.005   2.109   4.051
 8894TIP3    H126646   1.987   2.106   3.957
 8894TIP3    H226647   1.937   2.165   4.087
 8895TIP3   OH226648   2.681   3.694   5.204
 8895TIP3    H126649   2.640   3.762   5.151
 8895TIP3    H226650   2.654   3.612   5.161
 8896TIP3   OH226651   3.974   4.527   1.242
 8896TIP3    H126652   3.891   4.566   1.268
 8896TIP3    H226653   3.967   4.435   1.269
 8897TIP3   OH226654   3.437   4.377   3.627
 8897TIP3    H126655   3.450   4.299   3.572
 8897TIP3    H226656   3.433   4.450   3.565
 8898TIP3   OH226657   2.348   2.321   3.100
 8898TIP3    H126658   2.310   2.408   3.089
 8898TIP3    H226659   2.280   2.271   3.145
 8899TIP3   OH226660   3.859   5.827   1.017
 8899TIP3    H126661   3.917   5.772   1.070
 8899TIP3    H226662   3.771   5.806   1.047
 8900TIP3   OH226663   2.795   6.703   0.683
 8900TIP3    H126664   2.871   6.647   0.697
 8900TIP3    H226665   2.806   6.738   0.594
 8901TIP3   OH226666   5.369   5.894   1.583
 8901TIP3    H126667   5.428   5.965   1.557
 8901TIP3    H226668   5.282   5.934   1.581
 8902TIP3   OH226669   7.178   0.518   1.901
 8902TIP3    H126670   7.190   0.448   1.837
 8902TIP3    H226671   7.145   0.592   1.849
 8903TIP3   OH226672   1.576   6.653   5.259
 8903TIP3    H126673   1.618   6.726   5.304
 8903TIP3    H226674   1.634   6.579   5.274
 8904TIP3   OH226675   6.574   0.453   3.792
 8904TIP3    H126676   6.652   0.414   3.753
 8904TIP3    H226677   6.571   0.542   3.757
 8905TIP3   OH226678   6.099   5.660   1.461
 8905TIP3    H126679   6.027   5.606   1.429
 8905TIP3    H226680   6.116   5.628   1.549
 8906TIP3   OH226681   3.304   3.962   0.108
 8906TIP3    H126682   3.255   3.888   0.143
 8906TIP3    H226683   3.295   3.954   0.013
 8907TIP3   OH226684   7.145   0.743   1.123
 8907TIP3    H126685   7.122   0.652   1.137
 8907TIP3    H226686   7.177   0.773   1.208
 8908TIP3   OH226687   0.822   4.268   5.385
 8908TIP3    H126688   0.732   4.296   5.404
 8908TIP3    H226689   0.862   4.343   5.341
 8909TIP3   OH226690   6.022   2.026   4.201
 8909TIP3    H126691   6.060   2.103   4.244
 8909TIP3    H226692   6.036   1.954   4.263
 8910TIP3   OH226693   5.618   2.235   0.316
 8910TIP3    H126694   5.661   2.207   0.397
 8910TIP3    H226695   5.540   2.181   0.309
 8911TIP3   OH226696   3.883   6.440   0.612
 8911TIP3    H126697   3.840   6.506   0.667
 8911TIP3    H226698   3.873   6.358   0.661
 8912TIP3   OH226699   7.091   0.655   0.411
 8912TIP3    H126700   7.046   0.572   0.426
 8912TIP3    H226701   7.021   0.717   0.392
 8913TIP3   OH226702   1.256   2.557   1.713
 8913TIP3    H126703   1.275   2.643   1.751
 8913TIP3    H226704   1.339   2.528   1.676
 8914TIP3   OH226705   1.913   2.025   1.584
 8914TIP3    H126706   1.828   2.022   1.629
 8914TIP3    H226707   1.951   1.938   1.597
 8915TIP3   OH226708   6.923   5.248   3.605
 8915TIP3    H126709   6.904   5.313   3.537
 8915TIP3    H226710   7.008   5.275   3.641
 8916TIP3   OH226711   0.371   6.293   1.253
 8916TIP3    H126712   0.457   6.320   1.285
 8916TIP3    H226713   0.377   6.198   1.246
 8917TIP3   OH226714   5.375   5.210   0.054
 8917TIP3    H126715   5.322   5.276   0.101
 8917TIP3    H226716   5.378   5.242  -0.036
 8918TIP3   OH226717   6.551   0.640   1.769
 8918TIP3    H126718   6.550   0.626   1.674
 8918TIP3    H226719   6.532   0.554   1.806
 8919TIP3   OH226720   1.878   2.285   5.084
 8919TIP3    H126721   1.810   2.318   5.142
 8919TIP3    H226722   1.854   2.194   5.068
 8920TIP3   OH226723   2.026   0.519   2.265
 8920TIP3    H126724   2.002   0.607   2.294
 8920TIP3    H226725   1.966   0.462   2.313
 8921TIP3   OH226726   6.168   3.573   1.232
 8921TIP3    H126727   6.097   3.590   1.294
 8921TIP3    H226728   6.231   3.520   1.282
 8922TIP3   OH226729   2.786   4.775   3.669
 8922TIP3    H126730   2.757   4.732   3.749
 8922TIP3    H226731   2.711   4.770   3.610
 8923TIP3   OH226732   1.036   0.456   4.789
 8923TIP3    H126733   1.046   0.377   4.841
 8923TIP3    H226734   0.965   0.504   4.832
 8924TIP3   OH226735   2.788   4.127   4.789
 8924TIP3    H126736   2.865   4.121   4.845
 8924TIP3    H226737   2.810   4.073   4.713
 8925TIP3   OH226738   1.204   6.362   5.800
 8925TIP3    H126739   1.185   6.456   5.797
 8925TIP3    H226740   1.122   6.322   5.829
 8926TIP3   OH226741   3.779   5.345   0.612
 8926TIP3    H126742   3.814   5.290   0.542
 8926TIP3    H226743   3.815   5.307   0.692
 8927TIP3   OH226744   6.392   3.471   0.555
 8927TIP3    H126745   6.339   3.399   0.590
 8927TIP3    H226746   6.378   3.542   0.617
 8928TIP3   OH226747   2.707   6.593   1.745
 8928TIP3    H126748   2.756   6.557   1.819
 8928TIP3    H226749   2.619   6.556   1.755
 8929TIP3   OH226750   1.921   6.597   4.615
 8929TIP3    H126751   1.920   6.581   4.520
 8929TIP3    H226752   2.012   6.583   4.641
 8930TIP3   OH226753   4.434   5.388   4.259
 8930TIP3    H126754   4.377   5.315   4.283
 8930TIP3    H226755   4.410   5.408   4.168
 8931TIP3   OH226756   3.500   6.027   4.566
 8931TIP3    H126757   3.478   5.952   4.512
 8931TIP3    H226758   3.421   6.082   4.565
 8932TIP3   OH226759   2.928   1.963   1.499
 8932TIP3    H126760   2.978   1.889   1.533
 8932TIP3    H226761   2.846   1.962   1.549
 8933TIP3   OH226762   4.033   5.932   1.439
 8933TIP3    H126763   4.111   5.881   1.455
 8933TIP3    H226764   3.967   5.869   1.410
 8934TIP3   OH226765   5.893   2.080   4.938
 8934TIP3    H126766   5.892   2.100   5.031
 8934TIP3    H226767   5.916   1.988   4.932
 8935TIP3   OH226768   5.114   6.733   4.092
 8935TIP3    H126769   5.084   6.812   4.047
 8935TIP3    H226770   5.037   6.675   4.093
 8936TIP3   OH226771   3.357   5.744   0.232
 8936TIP3    H126772   3.406   5.673   0.274
 8936TIP3    H226773   3.372   5.732   0.139
 8937TIP3   OH226774   6.708   4.483   1.273
 8937TIP3    H126775   6.707   4.453   1.182
 8937TIP3    H226776   6.744   4.572   1.267
 8938TIP3   OH226777   0.013   6.255   1.183
 8938TIP3    H126778  -0.081   6.264   1.167
 8938TIP3    H226779   0.048   6.343   1.171
 8939TIP3   OH226780   5.772   5.641   1.756
 8939TIP3    H126781   5.696   5.698   1.755
 8939TIP3    H226782   5.746   5.565   1.704
 8940TIP3   OH226783   3.239   0.570   5.780
 8940TIP3    H126784   3.226   0.480   5.750
 8940TIP3    H226785   3.313   0.603   5.729
 8941TIP3   OH226786   3.183   4.107   0.371
 8941TIP3    H126787   3.183   4.046   0.297
 8941TIP3    H226788   3.248   4.173   0.348
 8942TIP3   OH226789   6.233   2.026   1.502
 8942TIP3    H126790   6.204   2.051   1.414
 8942TIP3    H226791   6.284   2.101   1.533
 8943TIP3   OH226792   5.885   5.461   0.385
 8943TIP3    H126793   5.937   5.532   0.348
 8943TIP3    H226794   5.946   5.387   0.390
 8944TIP3   OH226795   0.583   1.304   4.457
 8944TIP3    H126796   0.596   1.333   4.547
 8944TIP3    H226797   0.527   1.227   4.463
 8945TIP3   OH226798   2.246   4.695   3.359
 8945TIP3    H126799   2.187   4.683   3.285
 8945TIP3    H226800   2.257   4.790   3.365
 8946TIP3   OH226801   4.954   6.058   5.666
 8946TIP3    H126802   5.002   6.094   5.740
 8946TIP3    H226803   4.896   6.129   5.638
 8947TIP3   OH226804   5.886   3.254   1.006
 8947TIP3    H126805   5.903   3.334   0.956
 8947TIP3    H226806   5.914   3.183   0.948
 8948TIP3   OH226807   6.721   3.896   3.546
 8948TIP3    H126808   6.627   3.909   3.556
 8948TIP3    H226809   6.759   3.983   3.559
 8949TIP3   OH226810   4.284   3.625   1.067
 8949TIP3    H126811   4.206   3.619   1.122
 8949TIP3    H226812   4.346   3.563   1.106
 8950TIP3   OH226813   5.567   6.187   5.781
 8950TIP3    H126814   5.522   6.145   5.854
 8950TIP3    H226815   5.633   6.124   5.753
 8951TIP3   OH226816   6.626   5.924   2.787
 8951TIP3    H126817   6.600   5.970   2.866
 8951TIP3    H226818   6.580   5.970   2.716
 8952TIP3   OH226819   2.863   4.997   0.091
 8952TIP3    H126820   2.924   5.045   0.034
 8952TIP3    H226821   2.784   4.986   0.037
 8953TIP3   OH226822   5.149   1.087   5.829
 8953TIP3    H126823   5.085   1.141   5.784
 8953TIP3    H226824   5.108   1.068   5.914
 8954TIP3   OH226825   2.778   0.039   5.424
 8954TIP3    H126826   2.779  -0.047   5.383
 8954TIP3    H226827   2.778   0.100   5.350
 8955TIP3   OH226828   5.762   4.211   2.808
 8955TIP3    H126829   5.844   4.168   2.782
 8955TIP3    H226830   5.775   4.303   2.787
 8956TIP3   OH226831   6.725   0.601   2.692
 8956TIP3    H126832   6.802   0.653   2.671
 8956TIP3    H226833   6.711   0.546   2.615
 8957TIP3   OH226834   5.622   2.348   3.493
 8957TIP3    H126835   5.646   2.263   3.528
 8957TIP3    H226836   5.538   2.333   3.449
 8958TIP3   OH226837   6.088   0.772   4.727
 8958TIP3    H126838   6.041   0.776   4.643
 8958TIP3    H226839   6.055   0.692   4.769
 8959TIP3   OH226840   3.185   3.476   2.659
 8959TIP3    H126841   3.280   3.466   2.652
 8959TIP3    H226842   3.168   3.468   2.753
 8960TIP3   OH226843   3.245   1.825   5.373
 8960TIP3    H126844   3.313   1.839   5.438
 8960TIP3    H226845   3.184   1.764   5.414
 8961TIP3   OH226846   6.271   4.045   0.685
 8961TIP3    H126847   6.238   3.989   0.754
 8961TIP3    H226848   6.299   4.125   0.730
 8962TIP3   OH226849   3.441   3.998   0.482
 8962TIP3    H126850   3.453   4.045   0.565
 8962TIP3    H226851   3.351   4.017   0.456
 8963TIP3   OH226852   3.098   2.192   4.516
 8963TIP3    H126853   3.007   2.211   4.496
 8963TIP3    H226854   3.095   2.138   4.595
 8964TIP3   OH226855   4.956   4.214   4.701
 8964TIP3    H126856   4.906   4.134   4.711
 8964TIP3    H226857   5.028   4.190   4.643
 8965TIP3   OH226858   6.108   0.759   3.809
 8965TIP3    H126859   6.042   0.767   3.740
 8965TIP3    H226860   6.190   0.782   3.766
 8966TIP3   OH226861   3.371   4.306   0.883
 8966TIP3    H126862   3.358   4.216   0.913
 8966TIP3    H226863   3.350   4.360   0.959
 8967TIP3   OH226864   3.433   0.848   1.211
 8967TIP3    H126865   3.415   0.781   1.277
 8967TIP3    H226866   3.466   0.799   1.135
 8968TIP3   OH226867   7.033   3.634   5.552
 8968TIP3    H126868   6.976   3.709   5.571
 8968TIP3    H226869   7.022   3.619   5.458
 8969TIP3   OH226870   7.073   0.182   0.488
 8969TIP3    H126871   7.023   0.158   0.410
 8969TIP3    H226872   7.109   0.100   0.520
 8970TIP3   OH226873   3.761   5.477   1.008
 8970TIP3    H126874   3.698   5.404   1.007
 8970TIP3    H226875   3.750   5.520   0.924
 8971TIP3   OH226876   3.170   1.331   5.213
 8971TIP3    H126877   3.102   1.355   5.276
 8971TIP3    H226878   3.234   1.402   5.218
 8972TIP3   OH226879   1.479   1.295   1.648
 8972TIP3    H126880   1.491   1.327   1.738
 8972TIP3    H226881   1.384   1.288   1.637
 8973TIP3   OH226882   0.250   4.325   0.335
 8973TIP3    H126883   0.217   4.239   0.362
 8973TIP3    H226884   0.345   4.314   0.330
 8974TIP3   OH226885   2.730   5.655   5.244
 8974TIP3    H126886   2.721   5.750   5.251
 8974TIP3    H226887   2.817   5.642   5.206
 8975TIP3   OH226888   0.182   2.065   2.191
 8975TIP3    H126889   0.215   2.021   2.113
 8975TIP3    H226890   0.201   2.005   2.263
 8976TIP3   OH226891   4.755   6.256   0.091
 8976TIP3    H126892   4.779   6.164   0.083
 8976TIP3    H226893   4.705   6.260   0.172
 8977TIP3   OH226894   3.145   6.692   2.786
 8977TIP3    H126895   3.166   6.663   2.697
 8977TIP3    H226896   3.139   6.787   2.779
 8978TIP3   OH226897  -0.018   5.309   3.608
 8978TIP3    H126898   0.063   5.270   3.640
 8978TIP3    H226899  -0.038   5.261   3.528
 8979TIP3   OH226900   6.332   6.007   5.586
 8979TIP3    H126901   6.333   5.986   5.492
 8979TIP3    H226902   6.418   5.982   5.617
 8980TIP3   OH226903   4.454   1.188   1.956
 8980TIP3    H126904   4.389   1.140   2.006
 8980TIP3    H226905   4.487   1.125   1.892
 8981TIP3   OH226906   6.590   6.563   0.205
 8981TIP3    H126907   6.552   6.475   0.198
 8981TIP3    H226908   6.548   6.613   0.136
 8982TIP3   OH226909   1.646   5.180   3.244
 8982TIP3    H126910   1.691   5.129   3.176
 8982TIP3    H226911   1.614   5.114   3.306
 8983TIP3   OH226912   6.678   3.724   1.931
 8983TIP3    H126913   6.723   3.751   1.851
 8983TIP3    H226914   6.739   3.746   2.002
 8984TIP3   OH226915   4.625   6.504   4.540
 8984TIP3    H126916   4.640   6.556   4.619
 8984TIP3    H226917   4.712   6.473   4.515
 8985TIP3   OH226918   5.964   0.970   4.851
 8985TIP3    H126919   6.010   0.899   4.806
 8985TIP3    H226920   5.980   0.953   4.944
 8986TIP3   OH226921   3.602   2.424   0.781
 8986TIP3    H126922   3.517   2.464   0.797
 8986TIP3    H226923   3.655   2.448   0.856
 8987TIP3   OH226924   2.268   6.025   3.943
 8987TIP3    H126925   2.180   6.054   3.966
 8987TIP3    H226926   2.272   5.934   3.973
 8988TIP3   OH226927   1.146   4.208   1.413
 8988TIP3    H126928   1.092   4.266   1.467
 8988TIP3    H226929   1.083   4.149   1.371
 8989TIP3   OH226930   1.146   6.803   2.728
 8989TIP3    H126931   1.145   6.876   2.790
 8989TIP3    H226932   1.212   6.743   2.762
 8990TIP3   OH226933   3.137   0.611   4.257
 8990TIP3    H126934   3.139   0.682   4.322
 8990TIP3    H226935   3.181   0.647   4.181
 8991TIP3   OH226936   5.565   3.177   1.452
 8991TIP3    H126937   5.529   3.264   1.469
 8991TIP3    H226938   5.585   3.177   1.359
 8992TIP3   OH226939   6.330   1.963   4.381
 8992TIP3    H126940   6.242   1.952   4.417
 8992TIP3    H226941   6.388   1.924   4.446
 8993TIP3   OH226942   3.961   3.559   2.348
 8993TIP3    H126943   3.966   3.471   2.386
 8993TIP3    H226944   4.015   3.554   2.270
 8994TIP3   OH226945   2.151   4.433   5.283
 8994TIP3    H126946   2.184   4.471   5.364
 8994TIP3    H226947   2.056   4.428   5.296
 8995TIP3   OH226948   1.006   0.848   5.596
 8995TIP3    H126949   1.039   0.926   5.553
 8995TIP3    H226950   0.928   0.824   5.545
 8996TIP3   OH226951   2.019   4.686   3.153
 8996TIP3    H126952   1.939   4.726   3.188
 8996TIP3    H226953   1.994   4.596   3.133
 8997TIP3   OH226954   3.957   0.193   0.409
 8997TIP3    H126955   3.917   0.187   0.322
 8997TIP3    H226956   4.010   0.114   0.417
 8998TIP3   OH226957   7.019   1.181   5.807
 8998TIP3    H126958   7.045   1.135   5.728
 8998TIP3    H226959   7.003   1.112   5.871
 8999TIP3   OH226960   6.192   1.663   1.231
 8999TIP3    H126961   6.130   1.636   1.163
 8999TIP3    H226962   6.257   1.716   1.185
 9000TIP3   OH226963   6.654   6.336   2.030
 9000TIP3    H126964   6.720   6.405   2.042
 9000TIP3    H226965   6.704   6.262   1.997
 9001TIP3   OH226966   1.611   1.780   2.093
 9001TIP3    H126967   1.603   1.828   2.176
 9001TIP3    H226968   1.668   1.706   2.114
 9002TIP3   OH226969   2.480   2.418   1.010
 9002TIP3    H126970   2.498   2.335   1.055
 9002TIP3    H226971   2.494   2.397   0.917
 9003TIP3   OH226972   0.240   2.383   5.273
 9003TIP3    H126973   0.267   2.467   5.236
 9003TIP3    H226974   0.153   2.369   5.235
 9004TIP3   OH226975   3.369   0.835   4.893
 9004TIP3    H126976   3.371   0.911   4.952
 9004TIP3    H226977   3.339   0.763   4.948
 9005TIP3   OH226978   4.414   5.835   3.918
 9005TIP3    H126979   4.391   5.926   3.901
 9005TIP3    H226980   4.500   5.839   3.961
 9006TIP3   OH226981   2.690   5.281   2.455
 9006TIP3    H126982   2.764   5.318   2.504
 9006TIP3    H226983   2.641   5.231   2.520
 9007TIP3   OH226984   5.941   1.271   5.616
 9007TIP3    H126985   5.852   1.237   5.619
 9007TIP3    H226986   5.995   1.201   5.654
 9008TIP3   OH226987   2.588   6.386   5.878
 9008TIP3    H126988   2.617   6.307   5.832
 9008TIP3    H226989   2.507   6.360   5.922
 9009TIP3   OH226990   6.305   5.188   1.605
 9009TIP3    H126991   6.297   5.102   1.647
 9009TIP3    H226992   6.390   5.185   1.561
 9010TIP3   OH226993   3.474   4.235   2.948
 9010TIP3    H126994   3.400   4.272   2.900
 9010TIP3    H226995   3.516   4.175   2.885
 9011TIP3   OH226996   0.670   1.271   5.518
 9011TIP3    H126997   0.674   1.329   5.442
 9011TIP3    H226998   0.604   1.310   5.575
 9012TIP3   OH226999   5.488   6.150   2.160
 9012TIP3    H127000   5.503   6.056   2.167
 9012TIP3    H227001   5.398   6.163   2.190
 9013TIP3   OH227002   3.221   5.041   5.057
 9013TIP3    H127003   3.273   5.085   4.989
 9013TIP3    H227004   3.187   5.113   5.111
 9014TIP3   OH227005   6.780   3.044   5.337
 9014TIP3    H127006   6.738   2.979   5.281
 9014TIP3    H227007   6.855   2.998   5.376
 9015TIP3   OH227008   0.422   0.544   4.228
 9015TIP3    H127009   0.360   0.514   4.295
 9015TIP3    H227010   0.411   0.640   4.227
 9016TIP3   OH227011   3.066   4.989   1.231
 9016TIP3    H127012   3.136   4.925   1.219
 9016TIP3    H227013   3.050   4.990   1.326
 9017TIP3   OH227014   4.131   6.774   4.376
 9017TIP3    H127015   4.134   6.753   4.282
 9017TIP3    H227016   4.213   6.819   4.393
 9018TIP3   OH227017   0.311   3.302   3.853
 9018TIP3    H127018   0.368   3.275   3.780
 9018TIP3    H227019   0.324   3.396   3.860
 9019TIP3   OH227020   5.705   0.970   3.801
 9019TIP3    H127021   5.726   0.891   3.850
 9019TIP3    H227022   5.613   0.959   3.776
 9020TIP3   OH227023   0.315   6.240   5.245
 9020TIP3    H127024   0.375   6.186   5.296
 9020TIP3    H227025   0.365   6.266   5.167
 9021TIP3   OH227026   3.687   6.320   3.059
 9021TIP3    H127027   3.614   6.336   3.000
 9021TIP3    H227028   3.653   6.342   3.146
 9022TIP3   OH227029   4.936   6.683   0.834
 9022TIP3    H127030   4.871   6.648   0.895
 9022TIP3    H227031   5.002   6.723   0.890
 9023TIP3   OH227032   5.921   1.964   2.743
 9023TIP3    H127033   5.841   1.989   2.697
 9023TIP3    H227034   5.961   1.898   2.686
 9024TIP3   OH227035   3.489   0.622   5.774
 9024TIP3    H127036   3.444   0.668   5.845
 9024TIP3    H227037   3.579   0.656   5.777
 9025TIP3   OH227038   6.992   2.722   2.228
 9025TIP3    H127039   6.944   2.691   2.152
 9025TIP3    H227040   7.081   2.690   2.216
 9026TIP3   OH227041   3.324   3.470   3.072
 9026TIP3    H127042   3.413   3.481   3.105
 9026TIP3    H227043   3.315   3.375   3.060
 9027TIP3   OH227044   1.903   1.381   4.428
 9027TIP3    H127045   1.844   1.347   4.495
 9027TIP3    H227046   1.860   1.357   4.345
 9028TIP3   OH227047   4.988   3.713   0.968
 9028TIP3    H127048   4.917   3.734   1.029
 9028TIP3    H227049   5.027   3.798   0.947
 9029TIP3   OH227050   0.330   3.538   2.975
 9029TIP3    H127051   0.370   3.549   2.888
 9029TIP3    H227052   0.237   3.530   2.957
 9030TIP3   OH227053   3.884   6.437   4.242
 9030TIP3    H127054   3.942   6.485   4.301
 9030TIP3    H227055   3.857   6.501   4.177
 9031TIP3   OH227056   1.381   5.937   2.898
 9031TIP3    H127057   1.369   5.843   2.884
 9031TIP3    H227058   1.304   5.964   2.946
 9032TIP3   OH227059   5.241   2.570   3.544
 9032TIP3    H127060   5.286   2.655   3.550
 9032TIP3    H227061   5.262   2.526   3.627
 9033TIP3   OH227062   4.161   1.559   4.162
 9033TIP3    H127063   4.172   1.635   4.219
 9033TIP3    H227064   4.096   1.504   4.205
 9034TIP3   OH227065   0.724   4.074   5.064
 9034TIP3    H127066   0.666   4.035   5.000
 9034TIP3    H227067   0.706   4.168   5.059
 9035TIP3   OH227068   2.525   5.995   3.699
 9035TIP3    H127069   2.608   6.040   3.713
 9035TIP3    H227070   2.459   6.064   3.709
 9036TIP3   OH227071   5.384   6.575   4.841
 9036TIP3    H127072   5.361   6.518   4.914
 9036TIP3    H227073   5.331   6.544   4.768
 9037TIP3   OH227074   5.057   5.990   0.625
 9037TIP3    H127075   5.125   5.932   0.660
 9037TIP3    H227076   5.052   6.062   0.687
 9038TIP3   OH227077   1.135   2.164   1.848
 9038TIP3    H127078   1.116   2.193   1.759
 9038TIP3    H227079   1.096   2.231   1.904
 9039TIP3   OH227080   4.761   1.271   1.563
 9039TIP3    H127081   4.804   1.328   1.499
 9039TIP3    H227082   4.827   1.204   1.583
 9040TIP3   OH227083   5.083   1.808   5.701
 9040TIP3    H127084   5.064   1.822   5.794
 9040TIP3    H227085   5.077   1.713   5.689
 9041TIP3   OH227086   2.229   2.700   4.100
 9041TIP3    H127087   2.213   2.785   4.140
 9041TIP3    H227088   2.162   2.693   4.032
 9042TIP3   OH227089   1.732   5.156   1.283
 9042TIP3    H127090   1.757   5.242   1.317
 9042TIP3    H227091   1.664   5.125   1.343
 9043TIP3   OH227092   5.443   2.941   5.274
 9043TIP3    H127093   5.355   2.939   5.312
 9043TIP3    H227094   5.433   2.986   5.190
 9044TIP3   OH227095   1.156   0.918   1.058
 9044TIP3    H127096   1.150   0.997   1.004
 9044TIP3    H227097   1.150   0.949   1.148
 9045TIP3   OH227098   0.552   1.812   4.649
 9045TIP3    H127099   0.585   1.759   4.722
 9045TIP3    H227100   0.458   1.795   4.648
 9046TIP3   OH227101   4.315   1.553   5.341
 9046TIP3    H127102   4.275   1.631   5.301
 9046TIP3    H227103   4.409   1.565   5.329
 9047TIP3   OH227104   3.481   5.050   5.455
 9047TIP3    H127105   3.561   5.091   5.422
 9047TIP3    H227106   3.433   5.121   5.496
 9048TIP3   OH227107   0.974   3.831   5.783
 9048TIP3    H127108   1.020   3.771   5.725
 9048TIP3    H227109   1.039   3.899   5.804
 9049TIP3   OH227110   6.428   6.211   5.041
 9049TIP3    H127111   6.483   6.288   5.034
 9049TIP3    H227112   6.383   6.206   4.957
 9050TIP3   OH227113   3.273   6.223   1.234
 9050TIP3    H127114   3.253   6.312   1.205
 9050TIP3    H227115   3.307   6.234   1.323
 9051TIP3   OH227116   0.729   4.696   3.044
 9051TIP3    H127117   0.639   4.706   3.076
 9051TIP3    H227118   0.779   4.669   3.121
 9052TIP3   OH227119   2.573   2.718   0.764
 9052TIP3    H127120   2.597   2.760   0.682
 9052TIP3    H227121   2.531   2.787   0.815
 9053TIP3   OH227122   0.703   6.586   3.168
 9053TIP3    H127123   0.643   6.520   3.134
 9053TIP3    H227124   0.786   6.540   3.180
 9054TIP3   OH227125   4.618   3.037   2.871
 9054TIP3    H127126   4.530   3.005   2.852
 9054TIP3    H227127   4.605   3.109   2.933
 9055TIP3   OH227128   3.591   0.152   0.524
 9055TIP3    H127129   3.605   0.093   0.598
 9055TIP3    H227130   3.661   0.217   0.532
 9056TIP3   OH227131   3.856   0.862   0.416
 9056TIP3    H127132   3.920   0.857   0.488
 9056TIP3    H227133   3.899   0.815   0.344
 9057TIP3   OH227134   6.962   0.117   0.235
 9057TIP3    H127135   6.872   0.138   0.209
 9057TIP3    H227136   7.016   0.155   0.166
 9058TIP3   OH227137   4.530   1.899   0.791
 9058TIP3    H127138   4.507   1.900   0.884
 9058TIP3    H227139   4.608   1.953   0.785
 9059TIP3   OH227140   0.054   1.983   1.125
 9059TIP3    H127141   0.071   2.013   1.036
 9059TIP3    H227142   0.083   2.055   1.181
 9060TIP3   OH227143   3.952   6.696   1.578
 9060TIP3    H127144   3.871   6.733   1.614
 9060TIP3    H227145   3.966   6.744   1.497
 9061TIP3   OH227146   1.494   3.006   0.895
 9061TIP3    H127147   1.545   2.963   0.964
 9061TIP3    H227148   1.414   3.036   0.940
 9062TIP3   OH227149   0.362   2.962   2.031
 9062TIP3    H127150   0.339   2.907   1.956
 9062TIP3    H227151   0.330   2.913   2.107
 9063TIP3   OH227152   6.236   4.230   5.322
 9063TIP3    H127153   6.191   4.267   5.398
 9063TIP3    H227154   6.285   4.156   5.358
 9064TIP3   OH227155   6.484   3.468   3.839
 9064TIP3    H127156   6.398   3.474   3.797
 9064TIP3    H227157   6.465   3.467   3.933
 9065TIP3   OH227158   3.870   6.123   4.960
 9065TIP3    H127159   3.880   6.071   5.040
 9065TIP3    H227160   3.786   6.096   4.924
 9066TIP3   OH227161   2.000   6.756   0.104
 9066TIP3    H127162   2.058   6.681   0.087
 9066TIP3    H227163   2.035   6.826   0.049
 9067TIP3   OH227164   2.918   4.875   1.848
 9067TIP3    H127165   2.838   4.839   1.810
 9067TIP3    H227166   2.889   4.952   1.896
 9068TIP3   OH227167   4.408   0.982   2.279
 9068TIP3    H127168   4.483   1.021   2.324
 9068TIP3    H227169   4.446   0.915   2.222
 9069TIP3   OH227170   2.084   4.795   4.948
 9069TIP3    H127171   2.030   4.717   4.936
 9069TIP3    H227172   2.042   4.862   4.894
 9070TIP3   OH227173   2.234   2.917   4.316
 9070TIP3    H127174   2.153   2.964   4.297
 9070TIP3    H227175   2.206   2.841   4.367
 9071TIP3   OH227176   6.332   6.504   4.836
 9071TIP3    H127177   6.422   6.512   4.804
 9071TIP3    H227178   6.278   6.522   4.760
 9072TIP3   OH227179   3.775   1.376   1.516
 9072TIP3    H127180   3.739   1.294   1.549
 9072TIP3    H227181   3.862   1.382   1.557
 9073TIP3   OH227182   5.856   2.881   0.994
 9073TIP3    H127183   5.882   2.952   0.936
 9073TIP3    H227184   5.924   2.814   0.984
 9074TIP3   OH227185   3.954   6.085   1.017
 9074TIP3    H127186   3.888   6.091   1.087
 9074TIP3    H227187   3.957   5.992   0.995
 9075TIP3   OH227188   4.669   5.783   1.092
 9075TIP3    H127189   4.649   5.690   1.100
 9075TIP3    H227190   4.677   5.813   1.183
 9076TIP3   OH227191   2.718   3.771   4.872
 9076TIP3    H127192   2.731   3.842   4.936
 9076TIP3    H227193   2.796   3.775   4.816
 9077TIP3   OH227194   6.580   4.135   5.106
 9077TIP3    H127195   6.601   4.167   5.019
 9077TIP3    H227196   6.490   4.102   5.099
 9078TIP3   OH227197   4.566   3.142   1.993
 9078TIP3    H127198   4.583   3.230   1.957
 9078TIP3    H227199   4.590   3.083   1.922
 9079TIP3   OH227200   2.307   6.336   2.545
 9079TIP3    H127201   2.295   6.247   2.579
 9079TIP3    H227202   2.230   6.384   2.575
 9080TIP3   OH227203   3.889   2.273   0.486
 9080TIP3    H127204   3.795   2.267   0.503
 9080TIP3    H227205   3.928   2.209   0.545
 9081TIP3   OH227206   6.402   2.390   4.595
 9081TIP3    H127207   6.362   2.464   4.549
 9081TIP3    H227208   6.342   2.317   4.579
 9082TIP3   OH227209   3.035   1.336   1.851
 9082TIP3    H127210   2.991   1.367   1.930
 9082TIP3    H227211   2.986   1.257   1.826
 9083TIP3   OH227212   6.806   2.258   2.747
 9083TIP3    H127213   6.791   2.350   2.771
 9083TIP3    H227214   6.753   2.245   2.668
 9084TIP3   OH227215   1.651   5.351   4.569
 9084TIP3    H127216   1.624   5.321   4.482
 9084TIP3    H227217   1.715   5.286   4.598
 9085TIP3   OH227218   2.133   5.364   2.335
 9085TIP3    H127219   2.211   5.362   2.391
 9085TIP3    H227220   2.088   5.444   2.362
 9086TIP3   OH227221   1.372   3.958   5.755
 9086TIP3    H127222   1.317   3.928   5.827
 9086TIP3    H227223   1.357   4.052   5.750
 9087TIP3   OH227224   0.803   6.298   0.539
 9087TIP3    H127225   0.781   6.262   0.625
 9087TIP3    H227226   0.897   6.316   0.543
 9088TIP3   OH227227   1.138   2.294   0.587
 9088TIP3    H127228   1.211   2.298   0.525
 9088TIP3    H227229   1.143   2.377   0.635
 9089TIP3   OH227230   3.285   6.166   2.914
 9089TIP3    H127231   3.282   6.223   2.991
 9089TIP3    H227232   3.193   6.158   2.886
 9090TIP3   OH227233   6.788   2.418   0.231
 9090TIP3    H127234   6.743   2.362   0.294
 9090TIP3    H227235   6.849   2.359   0.186
 9091TIP3   OH227236   1.891   4.552   4.892
 9091TIP3    H127237   1.808   4.568   4.937
 9091TIP3    H227238   1.870   4.486   4.826
 9092TIP3   OH227239   1.621   0.794   4.211
 9092TIP3    H127240   1.675   0.767   4.285
 9092TIP3    H227241   1.680   0.845   4.156
 9093TIP3   OH227242   6.561   5.138   0.371
 9093TIP3    H127243   6.610   5.116   0.450
 9093TIP3    H227244   6.592   5.076   0.305
 9094TIP3   OH227245   2.138   0.709   1.245
 9094TIP3    H127246   2.176   0.797   1.244
 9094TIP3    H227247   2.192   0.661   1.308
 9095TIP3   OH227248   3.573   5.567   2.946
 9095TIP3    H127249   3.603   5.647   2.989
 9095TIP3    H227250   3.574   5.501   3.016
 9096TIP3   OH227251   0.154   4.962   0.691
 9096TIP3    H127252   0.130   4.870   0.678
 9096TIP3    H227253   0.214   4.981   0.618
 9097TIP3   OH227254   3.770   6.345   4.618
 9097TIP3    H127255   3.683   6.383   4.616
 9097TIP3    H227256   3.821   6.399   4.557
 9098TIP3   OH227257   5.864   1.190   4.991
 9098TIP3    H127258   5.922   1.140   4.933
 9098TIP3    H227259   5.776   1.158   4.970
 9099TIP3   OH227260   3.433   1.511   1.155
 9099TIP3    H127261   3.351   1.559   1.167
 9099TIP3    H227262   3.494   1.551   1.216
 9100TIP3   OH227263   3.876   2.437   5.250
 9100TIP3    H127264   3.826   2.355   5.246
 9100TIP3    H227265   3.866   2.476   5.164
 9101TIP3   OH227266   0.226   4.033   0.145
 9101TIP3    H127267   0.209   4.006   0.235
 9101TIP3    H227268   0.290   4.104   0.153
 9102TIP3   OH227269   2.646   0.050   4.815
 9102TIP3    H127270   2.727   0.075   4.857
 9102TIP3    H227271   2.670  -0.022   4.757
 9103TIP3   OH227272   2.418   1.148   3.303
 9103TIP3    H127273   2.361   1.203   3.249
 9103TIP3    H227274   2.450   1.081   3.242
 9104TIP3   OH227275   3.367   4.624   4.868
 9104TIP3    H127276   3.446   4.645   4.918
 9104TIP3    H227277   3.400   4.589   4.785
 9105TIP3   OH227278   1.975   0.175   2.202
 9105TIP3    H127279   1.903   0.174   2.265
 9105TIP3    H227280   2.054   0.179   2.255
 9106TIP3   OH227281   6.485   3.057   4.412
 9106TIP3    H127282   6.493   3.022   4.501
 9106TIP3    H227283   6.414   3.006   4.373
 9107TIP3   OH227284   1.347   6.738   0.269
 9107TIP3    H127285   1.333   6.693   0.352
 9107TIP3    H227286   1.429   6.701   0.235
 9108TIP3   OH227287   1.702   1.579   2.516
 9108TIP3    H127288   1.711   1.505   2.455
 9108TIP3    H227289   1.611   1.574   2.546
 9109TIP3   OH227290   3.490   3.678   3.409
 9109TIP3    H127291   3.499   3.727   3.491
 9109TIP3    H227292   3.468   3.589   3.436
 9110TIP3   OH227293   7.041   2.901   4.871
 9110TIP3    H127294   7.013   2.974   4.815
 9110TIP3    H227295   7.107   2.940   4.929
 9111TIP3   OH227296   3.954   3.564   0.294
 9111TIP3    H127297   3.962   3.546   0.387
 9111TIP3    H227298   4.003   3.645   0.280
 9112TIP3   OH227299   5.498   5.033   3.639
 9112TIP3    H127300   5.532   4.960   3.587
 9112TIP3    H227301   5.407   5.009   3.656
 9113TIP3   OH227302   2.076   0.085   4.851
 9113TIP3    H127303   2.085   0.082   4.756
 9113TIP3    H227304   2.071   0.178   4.872
 9114TIP3   OH227305   4.146   4.988   3.100
 9114TIP3    H127306   4.058   5.004   3.065
 9114TIP3    H227307   4.205   5.007   3.026
 9115TIP3   OH227308   2.647   6.780   2.723
 9115TIP3    H127309   2.674   6.731   2.801
 9115TIP3    H227310   2.658   6.717   2.651
 9116TIP3   OH227311   3.965   6.738   5.317
 9116TIP3    H127312   3.990   6.682   5.244
 9116TIP3    H227313   3.927   6.816   5.277
 9117TIP3   OH227314   3.080   0.246   0.328
 9117TIP3    H127315   3.107   0.331   0.293
 9117TIP3    H227316   3.159   0.192   0.324
 9118TIP3   OH227317   4.647   4.935   5.654
 9118TIP3    H127318   4.582   4.866   5.670
 9118TIP3    H227319   4.648   4.986   5.735
 9119TIP3   OH227320   2.263   6.399   5.393
 9119TIP3    H127321   2.182   6.411   5.344
 9119TIP3    H227322   2.235   6.371   5.480
 9120TIP3   OH227323   2.453   4.293   1.356
 9120TIP3    H127324   2.364   4.272   1.326
 9120TIP3    H227325   2.441   4.362   1.421
 9121TIP3   OH227326   2.524   6.328   3.577
 9121TIP3    H127327   2.482   6.310   3.493
 9121TIP3    H227328   2.455   6.318   3.642
 9122TIP3   OH227329   6.774   0.381   3.165
 9122TIP3    H127330   6.800   0.291   3.182
 9122TIP3    H227331   6.829   0.434   3.223
 9123TIP3   OH227332   6.505   6.656   0.869
 9123TIP3    H127333   6.545   6.739   0.894
 9123TIP3    H227334   6.414   6.678   0.851
 9124TIP3   OH227335   6.789   0.113   4.393
 9124TIP3    H127336   6.774   0.192   4.340
 9124TIP3    H227337   6.885   0.107   4.399
 9125TIP3   OH227338   3.309   2.789   4.202
 9125TIP3    H127339   3.343   2.792   4.113
 9125TIP3    H227340   3.216   2.809   4.193
 9126TIP3   OH227341   2.494   2.898   3.199
 9126TIP3    H127342   2.496   2.806   3.227
 9126TIP3    H227343   2.583   2.914   3.166
 9127TIP3   OH227344   1.160   0.053   0.525
 9127TIP3    H127345   1.186  -0.027   0.572
 9127TIP3    H227346   1.243   0.094   0.500
 9128TIP3   OH227347   5.825   4.192   3.608
 9128TIP3    H127348   5.856   4.279   3.634
 9128TIP3    H227349   5.770   4.209   3.531
 9129TIP3   OH227350   2.385   5.056   0.006
 9129TIP3    H127351   2.334   5.020   0.079
 9129TIP3    H227352   2.417   5.140   0.038
 9130TIP3   OH227353   0.234   5.870   5.040
 9130TIP3    H127354   0.186   5.823   4.972
 9130TIP3    H227355   0.317   5.823   5.048
 9131TIP3   OH227356   3.355   6.040   0.564
 9131TIP3    H127357   3.335   6.129   0.594
 9131TIP3    H227358   3.390   5.996   0.642
 9132TIP3   OH227359   6.901   4.168   0.366
 9132TIP3    H127360   6.992   4.160   0.395
 9132TIP3    H227361   6.856   4.208   0.440
 9133TIP3   OH227362   3.302   3.186   3.098
 9133TIP3    H127363   3.290   3.212   3.189
 9133TIP3    H227364   3.228   3.129   3.079
 9134TIP3   OH227365   6.934   2.396   5.323
 9134TIP3    H127366   6.943   2.427   5.413
 9134TIP3    H227367   7.024   2.383   5.293
 9135TIP3   OH227368   4.304   0.564   4.623
 9135TIP3    H127369   4.323   0.563   4.529
 9135TIP3    H227370   4.259   0.647   4.638
 9136TIP3   OH227371   3.223   5.047   0.696
 9136TIP3    H127372   3.138   5.014   0.724
 9136TIP3    H227373   3.279   4.969   0.690
 9137TIP3   OH227374   2.965   0.717   2.623
 9137TIP3    H127375   3.013   0.716   2.540
 9137TIP3    H227376   2.898   0.650   2.613
 9138TIP3   OH227377   3.866   3.462   1.036
 9138TIP3    H127378   3.848   3.554   1.017
 9138TIP3    H227379   3.860   3.455   1.131
 9139TIP3   OH227380   6.483   2.308   0.412
 9139TIP3    H127381   6.482   2.224   0.367
 9139TIP3    H227382   6.531   2.290   0.493
 9140TIP3   OH227383   1.572   5.518   0.062
 9140TIP3    H127384   1.562   5.555   0.150
 9140TIP3    H227385   1.661   5.540   0.037
 9141TIP3   OH227386   5.995   6.546   0.460
 9141TIP3    H127387   6.005   6.622   0.403
 9141TIP3    H227388   6.000   6.582   0.549
 9142TIP3   OH227389   3.837   4.902   0.411
 9142TIP3    H127390   3.830   4.993   0.440
 9142TIP3    H227391   3.761   4.890   0.353
 9143TIP3   OH227392   0.628   0.256   3.373
 9143TIP3    H127393   0.649   0.331   3.429
 9143TIP3    H227394   0.699   0.254   3.308
 9144TIP3   OH227395   6.934   4.256   2.622
 9144TIP3    H127396   7.018   4.250   2.576
 9144TIP3    H227397   6.907   4.347   2.610
 9145TIP3   OH227398   3.017   4.121   4.966
 9145TIP3    H127399   3.103   4.146   4.932
 9145TIP3    H227400   3.013   4.162   5.052
 9146TIP3   OH227401   3.678   1.688   5.175
 9146TIP3    H127402   3.646   1.662   5.089
 9146TIP3    H227403   3.731   1.615   5.205
 9147TIP3   OH227404   1.236   4.921   1.523
 9147TIP3    H127405   1.275   4.903   1.608
 9147TIP3    H227406   1.283   4.864   1.462
 9148TIP3   OH227407   1.196   6.264   0.985
 9148TIP3    H127408   1.120   6.300   0.939
 9148TIP3    H227409   1.200   6.312   1.067
 9149TIP3   OH227410   5.520   4.393   3.179
 9149TIP3    H127411   5.538   4.415   3.088
 9149TIP3    H227412   5.438   4.342   3.175
 9150TIP3   OH227413   3.894   2.457   3.809
 9150TIP3    H127414   3.893   2.489   3.899
 9150TIP3    H227415   3.885   2.362   3.817
 9151TIP3   OH227416   2.974   2.419   5.138
 9151TIP3    H127417   2.910   2.401   5.207
 9151TIP3    H227418   3.014   2.334   5.120
 9152TIP3   OH227419   5.290   2.027   3.032
 9152TIP3    H127420   5.333   2.025   2.947
 9152TIP3    H227421   5.234   2.105   3.029
 9153TIP3   OH227422   6.348   4.974   0.161
 9153TIP3    H127423   6.329   4.924   0.240
 9153TIP3    H227424   6.443   4.972   0.152
 9154TIP3   OH227425   3.891   4.745   3.943
 9154TIP3    H127426   3.873   4.688   4.017
 9154TIP3    H227427   3.811   4.796   3.932
 9155TIP3   OH227428   3.202   0.786   1.746
 9155TIP3    H127429   3.179   0.777   1.653
 9155TIP3    H227430   3.202   0.696   1.779
 9156TIP3   OH227431   2.168   5.353   4.104
 9156TIP3    H127432   2.208   5.401   4.032
 9156TIP3    H227433   2.223   5.275   4.114
 9157TIP3   OH227434   1.341   4.963   1.198
 9157TIP3    H127435   1.389   4.946   1.117
 9157TIP3    H227436   1.307   4.877   1.223
 9158TIP3   OH227437   2.581   2.631   1.546
 9158TIP3    H127438   2.486   2.620   1.552
 9158TIP3    H227439   2.617   2.546   1.572
 9159TIP3   OH227440   4.997   3.157   4.299
 9159TIP3    H127441   4.957   3.220   4.360
 9159TIP3    H227442   4.933   3.086   4.293
 9160TIP3   OH227443   4.266   1.681   1.195
 9160TIP3    H127444   4.220   1.696   1.277
 9160TIP3    H227445   4.213   1.726   1.129
 9161TIP3   OH227446   4.988   3.465   1.412
 9161TIP3    H127447   5.029   3.534   1.465
 9161TIP3    H227448   5.048   3.391   1.420
 9162TIP3   OH227449   2.678   2.013   4.246
 9162TIP3    H127450   2.676   1.927   4.289
 9162TIP3    H227451   2.730   2.068   4.304
 9163TIP3   OH227452   6.701   0.342   0.082
 9163TIP3    H127453   6.688   0.385  -0.003
 9163TIP3    H227454   6.780   0.384   0.117
 9164TIP3   OH227455   3.175   5.494   3.260
 9164TIP3    H127456   3.184   5.585   3.232
 9164TIP3    H227457   3.092   5.491   3.307
 9165TIP3   OH227458   1.328   4.885   3.388
 9165TIP3    H127459   1.259   4.823   3.364
 9165TIP3    H227460   1.409   4.833   3.386
 9166TIP3   OH227461   4.147   1.103   2.885
 9166TIP3    H127462   4.229   1.071   2.847
 9166TIP3    H227463   4.170   1.184   2.929
 9167TIP3   OH227464   5.625   5.735   1.490
 9167TIP3    H127465   5.534   5.714   1.512
 9167TIP3    H227466   5.625   5.741   1.394
 9168TIP3   OH227467   1.159   3.338   0.820
 9168TIP3    H127468   1.152   3.433   0.822
 9168TIP3    H227469   1.134   3.314   0.730
 9169TIP3   OH227470   3.760   3.446   1.551
 9169TIP3    H127471   3.798   3.499   1.621
 9169TIP3    H227472   3.715   3.375   1.596
 9170TIP3   OH227473   2.466   2.430   2.844
 9170TIP3    H127474   2.413   2.350   2.844
 9170TIP3    H227475   2.487   2.446   2.936
 9171TIP3   OH227476   5.750   4.258   2.481
 9171TIP3    H127477   5.757   4.215   2.396
 9171TIP3    H227478   5.727   4.188   2.542
 9172TIP3   OH227479   2.620   6.016   1.196
 9172TIP3    H127480   2.642   5.936   1.148
 9172TIP3    H227481   2.569   6.068   1.133
 9173TIP3   OH227482   3.629   2.882   2.569
 9173TIP3    H127483   3.656   2.939   2.641
 9173TIP3    H227484   3.604   2.800   2.611
 9174TIP3   OH227485   1.078   2.434   3.379
 9174TIP3    H127486   1.167   2.469   3.380
 9174TIP3    H227487   1.085   2.352   3.331
 9175TIP3   OH227488   6.521   1.705   0.862
 9175TIP3    H127489   6.512   1.610   0.867
 9175TIP3    H227490   6.556   1.722   0.775
 9176TIP3   OH227491   4.211   3.746   4.662
 9176TIP3    H127492   4.204   3.672   4.602
 9176TIP3    H227493   4.194   3.823   4.608
 9177TIP3   OH227494   7.033   5.262   2.453
 9177TIP3    H127495   7.048   5.214   2.534
 9177TIP3    H227496   6.964   5.212   2.408
 9178TIP3   OH227497   5.877   3.263   2.585
 9178TIP3    H127498   5.948   3.200   2.577
 9178TIP3    H227499   5.887   3.299   2.674
 9179TIP3   OH227500   1.940   0.806   0.596
 9179TIP3    H127501   1.845   0.794   0.588
 9179TIP3    H227502   1.950   0.879   0.657
 9180TIP3   OH227503   6.528   3.494   1.853
 9180TIP3    H127504   6.612   3.461   1.822
 9180TIP3    H227505   6.546   3.585   1.879
 9181TIP3   OH227506   5.597   2.435   1.242
 9181TIP3    H127507   5.619   2.509   1.298
 9181TIP3    H227508   5.658   2.443   1.168
 9182TIP3   OH227509   6.408   5.310   4.871
 9182TIP3    H127510   6.377   5.238   4.815
 9182TIP3    H227511   6.493   5.281   4.903
 9183TIP3   OH227512   6.364   0.075   1.099
 9183TIP3    H127513   6.285   0.026   1.124
 9183TIP3    H227514   6.402   0.102   1.182
 9184TIP3   OH227515   5.174   0.615   5.503
 9184TIP3    H127516   5.150   0.652   5.588
 9184TIP3    H227517   5.113   0.542   5.490
 9185TIP3   OH227518   2.797   6.290   1.554
 9185TIP3    H127519   2.743   6.349   1.501
 9185TIP3    H227520   2.747   6.209   1.559
 9186TIP3   OH227521   1.818   2.571   2.074
 9186TIP3    H127522   1.815   2.523   1.991
 9186TIP3    H227523   1.911   2.584   2.091
 9187TIP3   OH227524   3.806   5.412   3.430
 9187TIP3    H127525   3.868   5.403   3.358
 9187TIP3    H227526   3.743   5.341   3.416
 9188TIP3   OH227527   3.045   5.922   3.035
 9188TIP3    H127528   3.015   6.004   2.996
 9188TIP3    H227529   3.048   5.860   2.962
 9189TIP3   OH227530   1.201   0.463   2.088
 9189TIP3    H127531   1.193   0.543   2.036
 9189TIP3    H227532   1.295   0.453   2.101
 9190TIP3   OH227533   2.878   2.692   2.181
 9190TIP3    H127534   2.792   2.704   2.139
 9190TIP3    H227535   2.918   2.779   2.179
 9191TIP3   OH227536   2.154   0.934   3.166
 9191TIP3    H127537   2.223   0.982   3.120
 9191TIP3    H227538   2.138   0.858   3.111
 9192TIP3   OH227539   4.982   6.241   2.290
 9192TIP3    H127540   4.959   6.202   2.375
 9192TIP3    H227541   4.956   6.333   2.298
 9193TIP3   OH227542   2.565   4.004   3.577
 9193TIP3    H127543   2.616   4.084   3.565
 9193TIP3    H227544   2.475   4.029   3.558
 9194TIP3   OH227545   4.429   0.633   0.312
 9194TIP3    H127546   4.476   0.700   0.361
 9194TIP3    H227547   4.339   0.640   0.344
 9195TIP3   OH227548   4.527   0.416   0.443
 9195TIP3    H127549   4.487   0.481   0.385
 9195TIP3    H227550   4.470   0.414   0.519
 9196TIP3   OH227551   1.929   0.287   4.049
 9196TIP3    H127552   2.011   0.325   4.080
 9196TIP3    H227553   1.864   0.357   4.060
 9197TIP3   OH227554   1.194   0.942   3.584
 9197TIP3    H127555   1.249   0.983   3.651
 9197TIP3    H227556   1.143   0.876   3.631
 9198TIP3   OH227557   3.759   3.139   5.056
 9198TIP3    H127558   3.721   3.106   4.975
 9198TIP3    H227559   3.686   3.140   5.118
 9199TIP3   OH227560   2.679   5.094   1.039
 9199TIP3    H127561   2.681   5.054   0.952
 9199TIP3    H227562   2.686   5.188   1.022
 9200TIP3   OH227563   2.906   5.897   0.832
 9200TIP3    H127564   2.825   5.945   0.813
 9200TIP3    H227565   2.976   5.960   0.812
 9201TIP3   OH227566   2.253   5.295   0.724
 9201TIP3    H127567   2.328   5.294   0.783
 9201TIP3    H227568   2.281   5.351   0.652
 9202TIP3   OH227569   5.685   1.644   3.594
 9202TIP3    H127570   5.695   1.655   3.689
 9202TIP3    H227571   5.600   1.601   3.584
 9203TIP3   OH227572   5.491   3.597   4.565
 9203TIP3    H127573   5.576   3.623   4.531
 9203TIP3    H227574   5.510   3.555   4.649
 9204TIP3   OH227575   7.155   2.869   4.030
 9204TIP3    H127576   7.123   2.807   3.964
 9204TIP3    H227577   7.159   2.818   4.111
 9205TIP3   OH227578   0.779   6.406   2.558
 9205TIP3    H127579   0.875   6.400   2.557
 9205TIP3    H227580   0.753   6.353   2.633
 9206TIP3   OH227581   6.606   4.251   4.871
 9206TIP3    H127582   6.537   4.314   4.848
 9206TIP3    H227583   6.675   4.266   4.807
 9207TIP3   OH227584   4.580   0.897   1.164
 9207TIP3    H127585   4.594   0.982   1.122
 9207TIP3    H227586   4.486   0.880   1.154
 9208TIP3   OH227587   6.659   2.168   5.005
 9208TIP3    H127588   6.699   2.222   4.937
 9208TIP3    H227589   6.648   2.226   5.080
 9209TIP3   OH227590   6.712   0.415   2.479
 9209TIP3    H127591   6.671   0.329   2.486
 9209TIP3    H227592   6.800   0.398   2.446
 9210TIP3   OH227593   1.963   3.390   0.686
 9210TIP3    H127594   1.874   3.400   0.719
 9210TIP3    H227595   2.013   3.459   0.732
 9211TIP3   OH227596   4.622   0.699   2.442
 9211TIP3    H127597   4.604   0.669   2.352
 9211TIP3    H227598   4.614   0.620   2.495
 9212TIP3   OH227599   3.876   5.167   3.226
 9212TIP3    H127600   3.837   5.087   3.191
 9212TIP3    H227601   3.958   5.138   3.266
 9213TIP3   OH227602   4.067   6.233   5.252
 9213TIP3    H127603   3.990   6.264   5.300
 9213TIP3    H227604   4.040   6.151   5.212
 9214TIP3   OH227605   3.964   3.088   2.584
 9214TIP3    H127606   4.059   3.080   2.593
 9214TIP3    H227607   3.929   3.034   2.655
 9215TIP3   OH227608   2.755   0.178   1.839
 9215TIP3    H127609   2.820   0.164   1.908
 9215TIP3    H227610   2.686   0.114   1.858
 9216TIP3   OH227611   2.695   0.652   2.033
 9216TIP3    H127612   2.762   0.615   2.090
 9216TIP3    H227613   2.674   0.581   1.972
 9217TIP3   OH227614   6.532   0.249   4.015
 9217TIP3    H127615   6.548   0.203   3.933
 9217TIP3    H227616   6.506   0.337   3.987
 9218TIP3   OH227617   2.783   5.941   2.690
 9218TIP3    H127618   2.838   5.996   2.746
 9218TIP3    H227619   2.749   6.000   2.623
 9219TIP3   OH227620   3.078   2.131   0.001
 9219TIP3    H127621   3.097   2.076   0.076
 9219TIP3    H227622   3.113   2.083  -0.074
 9220TIP3   OH227623   0.311   0.233   3.093
 9220TIP3    H127624   0.405   0.248   3.078
 9220TIP3    H227625   0.309   0.164   3.160
 9221TIP3   OH227626   2.470   6.288   2.143
 9221TIP3    H127627   2.459   6.195   2.126
 9221TIP3    H227628   2.487   6.326   2.057
 9222TIP3   OH227629   3.638   2.360   1.728
 9222TIP3    H127630   3.730   2.337   1.742
 9222TIP3    H227631   3.612   2.403   1.810
 9223TIP3   OH227632   3.772   4.365   2.329
 9223TIP3    H127633   3.763   4.459   2.312
 9223TIP3    H227634   3.860   4.355   2.364
 9224TIP3   OH227635   2.759   5.289   3.911
 9224TIP3    H127636   2.774   5.300   4.005
 9224TIP3    H227637   2.719   5.371   3.884
 9225TIP3   OH227638   1.765   5.087   0.763
 9225TIP3    H127639   1.760   5.068   0.857
 9225TIP3    H227640   1.850   5.132   0.753
 9226TIP3   OH227641   4.259   3.517   2.277
 9226TIP3    H127642   4.204   3.569   2.218
 9226TIP3    H227643   4.348   3.529   2.243
 9227TIP3   OH227644   5.165   0.458   4.205
 9227TIP3    H127645   5.153   0.553   4.200
 9227TIP3    H227646   5.220   0.437   4.129
 9228TIP3   OH227647   5.388   4.999   3.220
 9228TIP3    H127648   5.339   4.967   3.296
 9228TIP3    H227649   5.424   5.084   3.248
 9229TIP3   OH227650   6.598   3.582   2.276
 9229TIP3    H127651   6.610   3.671   2.242
 9229TIP3    H227652   6.683   3.558   2.311
 9230TIP3   OH227653   4.648   4.428   1.957
 9230TIP3    H127654   4.602   4.504   1.921
 9230TIP3    H227655   4.639   4.437   2.052
 9231TIP3   OH227656   0.675   5.538   2.561
 9231TIP3    H127657   0.666   5.456   2.512
 9231TIP3    H227658   0.766   5.563   2.549
 9232TIP3   OH227659   4.889   1.618   3.041
 9232TIP3    H127660   4.828   1.684   3.008
 9232TIP3    H227661   4.973   1.663   3.049
 9233TIP3   OH227662   2.762   0.206   4.462
 9233TIP3    H127663   2.844   0.248   4.489
 9233TIP3    H227664   2.766   0.203   4.367
 9234TIP3   OH227665   2.632   2.913   4.438
 9234TIP3    H127666   2.589   2.828   4.426
 9234TIP3    H227667   2.579   2.974   4.387
 9235TIP3   OH227668   7.147   1.842   4.357
 9235TIP3    H127669   7.173   1.754   4.329
 9235TIP3    H227670   7.053   1.833   4.376
 9236TIP3   OH227671   6.546   3.867   5.760
 9236TIP3    H127672   6.460   3.908   5.767
 9236TIP3    H227673   6.606   3.930   5.799
 9237TIP3   OH227674   5.999   3.537   1.517
 9237TIP3    H127675   5.925   3.597   1.508
 9237TIP3    H227676   6.062   3.586   1.570
 9238TIP3   OH227677   0.870   3.526   3.588
 9238TIP3    H127678   0.812   3.464   3.544
 9238TIP3    H227679   0.883   3.596   3.525
 9239TIP3   OH227680   2.579   0.897   1.813
 9239TIP3    H127681   2.620   0.867   1.894
 9239TIP3    H227682   2.543   0.818   1.773
 9240TIP3   OH227683   2.461   0.712   3.359
 9240TIP3    H127684   2.556   0.704   3.348
 9240TIP3    H227685   2.425   0.635   3.314
 9241TIP3   OH227686   4.175   2.164   0.900
 9241TIP3    H127687   4.137   2.197   0.981
 9241TIP3    H227688   4.203   2.243   0.853
 9242TIP3   OH227689   0.733   2.994   3.235
 9242TIP3    H127690   0.664   3.021   3.296
 9242TIP3    H227691   0.788   2.934   3.286
 9243TIP3   OH227692   2.067   1.776   1.514
 9243TIP3    H127693   2.054   1.681   1.523
 9243TIP3    H227694   2.127   1.784   1.439
 9244TIP3   OH227695   6.683   1.410   5.871
 9244TIP3    H127696   6.646   1.494   5.900
 9244TIP3    H227697   6.771   1.431   5.842
 9245TIP3   OH227698   3.579   6.053   5.285
 9245TIP3    H127699   3.610   6.127   5.232
 9245TIP3    H227700   3.634   6.056   5.363
 9246TIP3   OH227701   5.893   5.630   1.995
 9246TIP3    H127702   5.946   5.561   1.955
 9246TIP3    H227703   5.842   5.666   1.922
 9247TIP3   OH227704   0.456   1.505   4.174
 9247TIP3    H127705   0.491   1.593   4.163
 9247TIP3    H227706   0.364   1.517   4.197
 9248TIP3   OH227707   0.153   3.957   1.915
 9248TIP3    H127708   0.234   3.930   1.872
 9248TIP3    H227709   0.110   4.015   1.852
 9249TIP3   OH227710   6.444   4.509   5.342
 9249TIP3    H127711   6.508   4.452   5.300
 9249TIP3    H227712   6.437   4.476   5.431
 9250TIP3   OH227713   6.826   4.550   3.436
 9250TIP3    H127714   6.905   4.585   3.395
 9250TIP3    H227715   6.810   4.608   3.510
 9251TIP3   OH227716   0.999   5.160   4.729
 9251TIP3    H127717   0.916   5.116   4.742
 9251TIP3    H227718   0.998   5.187   4.636
 9252TIP3   OH227719   2.872   0.099   2.128
 9252TIP3    H127720   2.858   0.064   2.215
 9252TIP3    H227721   2.966   0.116   2.122
 9253TIP3   OH227722   2.788   3.321   3.020
 9253TIP3    H127723   2.708   3.346   2.975
 9253TIP3    H227724   2.777   3.228   3.040
 9254TIP3   OH227725   7.138   4.263   1.967
 9254TIP3    H127726   7.127   4.314   1.887
 9254TIP3    H227727   7.231   4.266   1.986
 9255TIP3   OH227728   1.888   0.279   5.343
 9255TIP3    H127729   1.886   0.265   5.438
 9255TIP3    H227730   1.948   0.353   5.331
 9256TIP3   OH227731   1.129   3.828   4.737
 9256TIP3    H127732   1.038   3.800   4.743
 9256TIP3    H227733   1.127   3.905   4.680
 9257TIP3   OH227734   0.265   2.438   2.169
 9257TIP3    H127735   0.214   2.369   2.127
 9257TIP3    H227736   0.199   2.496   2.207
 9258TIP3   OH227737   4.528   4.662   1.840
 9258TIP3    H127738   4.440   4.696   1.855
 9258TIP3    H227739   4.581   4.740   1.821
 9259TIP3   OH227740   0.370   0.367   4.464
 9259TIP3    H127741   0.319   0.287   4.477
 9259TIP3    H227742   0.439   0.363   4.531
 9260TIP3   OH227743   3.518   3.732   0.392
 9260TIP3    H127744   3.452   3.684   0.342
 9260TIP3    H227745   3.486   3.822   0.394
 9261TIP3   OH227746   3.597   2.886   3.152
 9261TIP3    H127747   3.574   2.932   3.071
 9261TIP3    H227748   3.525   2.824   3.166
 9262TIP3   OH227749   0.121   5.659   0.230
 9262TIP3    H127750   0.215   5.671   0.228
 9262TIP3    H227751   0.098   5.633   0.141
 9263TIP3   OH227752   3.005   3.511   1.704
 9263TIP3    H127753   3.059   3.590   1.707
 9263TIP3    H227754   3.066   3.440   1.722
 9264TIP3   OH227755   6.586   1.804   0.612
 9264TIP3    H127756   6.639   1.883   0.622
 9264TIP3    H227757   6.597   1.779   0.520
 9265TIP3   OH227758   2.388   5.489   3.559
 9265TIP3    H127759   2.446   5.421   3.525
 9265TIP3    H227760   2.437   5.570   3.546
 9266TIP3   OH227761   6.688   5.620   4.851
 9266TIP3    H127762   6.656   5.572   4.927
 9266TIP3    H227763   6.622   5.687   4.835
 9267TIP3   OH227764   0.221   3.850   0.944
 9267TIP3    H127765   0.228   3.789   0.871
 9267TIP3    H227766   0.311   3.860   0.976
 9268TIP3   OH227767   0.494   3.830   3.874
 9268TIP3    H127768   0.532   3.877   3.948
 9268TIP3    H227769   0.453   3.753   3.914
 9269TIP3   OH227770   6.908   2.279   1.716
 9269TIP3    H127771   6.870   2.197   1.749
 9269TIP3    H227772   6.880   2.345   1.780
 9270TIP3   OH227773   7.170   1.370   0.842
 9270TIP3    H127774   7.099   1.380   0.906
 9270TIP3    H227775   7.145   1.294   0.790
 9271TIP3   OH227776   6.508   5.422   1.444
 9271TIP3    H127777   6.497   5.511   1.409
 9271TIP3    H227778   6.423   5.381   1.431
 9272TIP3   OH227779   6.649   4.931   2.400
 9272TIP3    H127780   6.712   4.870   2.361
 9272TIP3    H227781   6.674   5.017   2.365
 9273TIP3   OH227782   0.193   1.906   5.258
 9273TIP3    H127783   0.234   1.824   5.285
 9273TIP3    H227784   0.100   1.895   5.278
 9274TIP3   OH227785   5.668   3.731   0.603
 9274TIP3    H127786   5.759   3.761   0.606
 9274TIP3    H227787   5.623   3.782   0.670
 9275TIP3   OH227788   2.300   2.774   4.956
 9275TIP3    H127789   2.389   2.752   4.927
 9275TIP3    H227790   2.275   2.701   5.012
 9276TIP3   OH227791   3.418   6.221   4.287
 9276TIP3    H127792   3.352   6.189   4.349
 9276TIP3    H227793   3.417   6.316   4.299
 9277TIP3   OH227794   2.371   5.690   3.288
 9277TIP3    H127795   2.308   5.648   3.347
 9277TIP3    H227796   2.322   5.701   3.206
 9278TIP3   OH227797   6.066   2.406   1.610
 9278TIP3    H127798   6.119   2.340   1.655
 9278TIP3    H227799   6.122   2.437   1.539
 9279TIP3   OH227800   1.162   5.642   3.944
 9279TIP3    H127801   1.085   5.694   3.966
 9279TIP3    H227802   1.231   5.679   3.999
 9280TIP3   OH227803   5.755   2.635   4.774
 9280TIP3    H127804   5.732   2.689   4.698
 9280TIP3    H227805   5.697   2.666   4.844
 9281TIP3   OH227806   0.697   1.358   0.427
 9281TIP3    H127807   0.786   1.329   0.447
 9281TIP3    H227808   0.671   1.412   0.503
 9282TIP3   OH227809   3.961   4.446   4.077
 9282TIP3    H127810   3.874   4.430   4.115
 9282TIP3    H227811   4.019   4.388   4.126
 9283TIP3   OH227812   2.662   5.004   1.714
 9283TIP3    H127813   2.707   4.981   1.796
 9283TIP3    H227814   2.571   5.017   1.740
 9284TIP3   OH227815   4.155   0.076   3.491
 9284TIP3    H127816   4.238   0.081   3.537
 9284TIP3    H227817   4.176   0.038   3.406
 9285TIP3   OH227818   0.734   4.773   4.312
 9285TIP3    H127819   0.690   4.854   4.338
 9285TIP3    H227820   0.788   4.750   4.388
 9286TIP3   OH227821   6.779   2.016   3.314
 9286TIP3    H127822   6.744   2.105   3.312
 9286TIP3    H227823   6.776   1.991   3.406
 9287TIP3   OH227824   4.537   2.693   4.881
 9287TIP3    H127825   4.587   2.635   4.939
 9287TIP3    H227826   4.586   2.693   4.799
 9288TIP3   OH227827   6.013   2.297   0.064
 9288TIP3    H127828   5.984   2.206   0.063
 9288TIP3    H227829   6.083   2.301   0.000
 9289TIP3   OH227830   2.713   4.198   3.448
 9289TIP3    H127831   2.759   4.261   3.504
 9289TIP3    H227832   2.739   4.222   3.359
 9290TIP3   OH227833   3.075   6.319   1.528
 9290TIP3    H127834   2.980   6.306   1.530
 9290TIP3    H227835   3.085   6.413   1.509
 9291TIP3   OH227836   4.149   3.630   2.756
 9291TIP3    H127837   4.230   3.655   2.713
 9291TIP3    H227838   4.083   3.630   2.686
 9292TIP3   OH227839   6.558   4.080   1.778
 9292TIP3    H127840   6.515   4.048   1.699
 9292TIP3    H227841   6.641   4.116   1.746
 9293TIP3   OH227842   6.869   5.313   0.449
 9293TIP3    H127843   6.840   5.356   0.529
 9293TIP3    H227844   6.803   5.336   0.384
 9294TIP3   OH227845   0.526   5.402   2.339
 9294TIP3    H127846   0.508   5.452   2.260
 9294TIP3    H227847   0.467   5.440   2.405
 9295TIP3   OH227848   4.269   3.331   1.391
 9295TIP3    H127849   4.310   3.396   1.333
 9295TIP3    H227850   4.184   3.313   1.350
 9296TIP3   OH227851   3.715   4.398   1.366
 9296TIP3    H127852   3.696   4.418   1.457
 9296TIP3    H227853   3.804   4.362   1.367
 9297TIP3   OH227854   0.491   3.294   3.645
 9297TIP3    H127855   0.546   3.319   3.571
 9297TIP3    H227856   0.534   3.217   3.682
 9298TIP3   OH227857   7.033   2.489   5.588
 9298TIP3    H127858   7.126   2.482   5.566
 9298TIP3    H227859   7.017   2.583   5.593
 9299TIP3   OH227860   6.065   1.606   4.840
 9299TIP3    H127861   6.097   1.553   4.767
 9299TIP3    H227862   5.973   1.581   4.849
 9300TIP3   OH227863   2.574   3.578   0.869
 9300TIP3    H127864   2.506   3.605   0.931
 9300TIP3    H227865   2.639   3.534   0.923
 9301TIP3   OH227866   6.866   0.400   3.758
 9301TIP3    H127867   6.805   0.372   3.689
 9301TIP3    H227868   6.949   0.413   3.713
 9302TIP3   OH227869   7.028   0.733   1.697
 9302TIP3    H127870   6.983   0.794   1.756
 9302TIP3    H227871   6.958   0.698   1.641
 9303TIP3   OH227872   1.999   2.275   4.379
 9303TIP3    H127873   2.043   2.358   4.362
 9303TIP3    H227874   2.060   2.208   4.348
 9304TIP3   OH227875   2.336   6.705   5.407
 9304TIP3    H127876   2.414   6.693   5.461
 9304TIP3    H227877   2.276   6.637   5.438
 9305TIP3   OH227878   1.602   6.278   3.764
 9305TIP3    H127879   1.574   6.331   3.840
 9305TIP3    H227880   1.557   6.319   3.690
 9306TIP3   OH227881   6.354   5.593   4.424
 9306TIP3    H127882   6.366   5.562   4.514
 9306TIP3    H227883   6.402   5.676   4.421
 9307TIP3   OH227884   3.287   3.570   5.467
 9307TIP3    H127885   3.350   3.507   5.503
 9307TIP3    H227886   3.228   3.516   5.414
 9308TIP3   OH227887   3.147   0.782   3.155
 9308TIP3    H127888   3.109   0.701   3.190
 9308TIP3    H227889   3.072   0.837   3.133
 9309TIP3   OH227890   4.129   5.875   3.395
 9309TIP3    H127891   4.212   5.863   3.349
 9309TIP3    H227892   4.124   5.801   3.455
 9310TIP3   OH227893   4.719   0.877   5.464
 9310TIP3    H127894   4.775   0.799   5.464
 9310TIP3    H227895   4.698   0.891   5.372
 9311TIP3   OH227896   6.165   0.496   1.914
 9311TIP3    H127897   6.184   0.581   1.952
 9311TIP3    H227898   6.159   0.437   1.989
 9312TIP3   OH227899   2.086   5.104   2.238
 9312TIP3    H127900   2.095   5.198   2.254
 9312TIP3    H227901   2.174   5.076   2.211
 9313TIP3   OH227902   0.253   1.887   2.833
 9313TIP3    H127903   0.246   1.816   2.897
 9313TIP3    H227904   0.208   1.961   2.873
 9314TIP3   OH227905   0.977   5.810   3.976
 9314TIP3    H127906   0.952   5.861   4.052
 9314TIP3    H227907   0.951   5.864   3.901
 9315TIP3   OH227908   5.763   5.858   5.113
 9315TIP3    H127909   5.808   5.796   5.055
 9315TIP3    H227910   5.711   5.913   5.055
 9316TIP3   OH227911   2.232   5.798   3.068
 9316TIP3    H127912   2.261   5.748   2.992
 9316TIP3    H227913   2.297   5.868   3.077
 9317TIP3   OH227914   2.311   1.602   0.738
 9317TIP3    H127915   2.375   1.547   0.783
 9317TIP3    H227916   2.233   1.599   0.794
 9318TIP3   OH227917   5.705   1.483   1.676
 9318TIP3    H127918   5.612   1.463   1.660
 9318TIP3    H227919   5.747   1.474   1.591
 9319TIP3   OH227920   4.530   5.547   0.180
 9319TIP3    H127921   4.572   5.506   0.256
 9319TIP3    H227922   4.520   5.476   0.117
 9320TIP3   OH227923   4.858   6.219   3.267
 9320TIP3    H127924   4.794   6.225   3.197
 9320TIP3    H227925   4.931   6.273   3.238
 9321TIP3   OH227926   2.243   3.352   2.508
 9321TIP3    H127927   2.315   3.290   2.520
 9321TIP3    H227928   2.238   3.366   2.414
 9322TIP3   OH227929   7.044   0.153   1.843
 9322TIP3    H127930   7.024   0.235   1.797
 9322TIP3    H227931   6.973   0.094   1.819
 9323TIP3   OH227932   4.074   5.524   0.622
 9323TIP3    H127933   4.094   5.602   0.673
 9323TIP3    H227934   3.980   5.531   0.605
 9324TIP3   OH227935   3.974   0.663   0.207
 9324TIP3    H127936   3.894   0.610   0.205
 9324TIP3    H227937   3.968   0.719   0.129
 9325TIP3   OH227938   3.760   0.495   0.212
 9325TIP3    H127939   3.768   0.403   0.236
 9325TIP3    H227940   3.692   0.530   0.270
 9326TIP3   OH227941   3.555   2.744   4.915
 9326TIP3    H127942   3.542   2.807   4.986
 9326TIP3    H227943   3.489   2.677   4.930
 9327TIP3   OH227944   2.740   6.117   4.572
 9327TIP3    H127945   2.825   6.111   4.528
 9327TIP3    H227946   2.759   6.099   4.664
 9328TIP3   OH227947   2.718   4.734   4.613
 9328TIP3    H127948   2.747   4.661   4.669
 9328TIP3    H227949   2.642   4.699   4.566
 9329TIP3   OH227950   1.161   6.210   2.016
 9329TIP3    H127951   1.229   6.144   2.003
 9329TIP3    H227952   1.182   6.249   2.101
 9330TIP3   OH227953   3.704   5.547   4.443
 9330TIP3    H127954   3.725   5.463   4.484
 9330TIP3    H227955   3.655   5.595   4.510
 9331TIP3   OH227956   3.543   4.439   5.723
 9331TIP3    H127957   3.580   4.527   5.727
 9331TIP3    H227958   3.498   4.435   5.638
 9332TIP3   OH227959   6.596   4.438   2.120
 9332TIP3    H127960   6.576   4.492   2.196
 9332TIP3    H227961   6.605   4.500   2.047
 9333TIP3   OH227962   0.942   5.260   0.886
 9333TIP3    H127963   0.906   5.240   0.972
 9333TIP3    H227964   0.869   5.249   0.826
 9334TIP3   OH227965   0.260   3.341   0.115
 9334TIP3    H127966   0.177   3.386   0.099
 9334TIP3    H227967   0.258   3.321   0.209
 9335TIP3   OH227968   3.834   6.338   0.352
 9335TIP3    H127969   3.747   6.299   0.361
 9335TIP3    H227970   3.856   6.368   0.441
 9336TIP3   OH227971   3.971   6.502   5.119
 9336TIP3    H127972   4.023   6.426   5.145
 9336TIP3    H227973   3.948   6.485   5.027
 9337TIP3   OH227974   4.579   6.542   2.203
 9337TIP3    H127975   4.519   6.548   2.278
 9337TIP3    H227976   4.522   6.543   2.126
 9338TIP3   OH227977   2.700   0.632   1.040
 9338TIP3    H127978   2.732   0.644   0.950
 9338TIP3    H227979   2.617   0.679   1.043
 9339TIP3   OH227980   0.598   0.794   2.483
 9339TIP3    H127981   0.692   0.777   2.495
 9339TIP3    H227982   0.593   0.888   2.470
 9340TIP3   OH227983   1.954   4.970   0.533
 9340TIP3    H127984   2.018   4.964   0.603
 9340TIP3    H227985   1.949   5.064   0.513
 9341TIP3   OH227986   2.279   0.119   4.657
 9341TIP3    H127987   2.364   0.121   4.614
 9341TIP3    H227988   2.298   0.129   4.750
 9342TIP3   OH227989   3.605   0.606   2.657
 9342TIP3    H127990   3.665   0.660   2.607
 9342TIP3    H227991   3.533   0.588   2.596
 9343TIP3   OH227992   6.238   1.470   4.662
 9343TIP3    H127993   6.315   1.484   4.608
 9343TIP3    H227994   6.168   1.448   4.601
 9344TIP3   OH227995   3.134   5.636   0.944
 9344TIP3    H127996   3.045   5.602   0.934
 9344TIP3    H227997   3.175   5.624   0.858
 9345TIP3   OH227998   5.408   6.325   5.022
 9345TIP3    H127999   5.359   6.261   5.073
 9345TIP3    H228000   5.480   6.352   5.079
 9346TIP3   OH228001   4.014   2.949   3.306
 9346TIP3    H128002   3.980   3.036   3.283
 9346TIP3    H228003   3.937   2.900   3.334
 9347TIP3   OH228004   4.205   2.288   2.009
 9347TIP3    H128005   4.291   2.249   1.995
 9347TIP3    H228006   4.167   2.238   2.081
 9348TIP3   OH228007   5.969   2.144   0.417
 9348TIP3    H128008   6.011   2.140   0.503
 9348TIP3    H228009   5.877   2.125   0.434
 9349TIP3   OH228010   6.669   3.246   3.695
 9349TIP3    H128011   6.661   3.296   3.613
 9349TIP3    H228012   6.620   3.298   3.759
 9350TIP3   OH228013   5.815   5.771   2.666
 9350TIP3    H128014   5.842   5.697   2.610
 9350TIP3    H228015   5.861   5.757   2.748
 9351TIP3   OH228016   2.334   5.253   1.198
 9351TIP3    H128017   2.345   5.170   1.151
 9351TIP3    H228018   2.258   5.294   1.158
 9352TIP3   OH228019   6.071   5.450   2.951
 9352TIP3    H128020   6.070   5.412   2.863
 9352TIP3    H228021   6.071   5.374   3.010
 9353TIP3   OH228022   1.442   0.805   1.798
 9353TIP3    H128023   1.374   0.861   1.762
 9353TIP3    H228024   1.502   0.790   1.725
 9354TIP3   OH228025   4.500   2.896   4.309
 9354TIP3    H128026   4.507   2.802   4.322
 9354TIP3    H228027   4.554   2.914   4.232
 9355TIP3   OH228028   1.212   4.421   4.343
 9355TIP3    H128029   1.234   4.329   4.332
 9355TIP3    H228030   1.274   4.468   4.287
 9356TIP3   OH228031   2.045   5.570   5.396
 9356TIP3    H128032   2.121   5.515   5.412
 9356TIP3    H228033   2.069   5.623   5.320
 9357TIP3   OH228034   5.902   5.316   5.833
 9357TIP3    H128035   5.877   5.296   5.923
 9357TIP3    H228036   5.834   5.275   5.779
 9358TIP3   OH228037   4.634   5.750   0.581
 9358TIP3    H128038   4.645   5.832   0.629
 9358TIP3    H228039   4.681   5.765   0.499
 9359TIP3   OH228040   7.137   3.260   4.294
 9359TIP3    H128041   7.197   3.187   4.279
 9359TIP3    H228042   7.074   3.255   4.222
 9360TIP3   OH228043   6.591   1.559   4.190
 9360TIP3    H128044   6.542   1.591   4.114
 9360TIP3    H228045   6.680   1.545   4.156
 9361TIP3   OH228046   5.461   1.875   1.546
 9361TIP3    H128047   5.445   1.789   1.586
 9361TIP3    H228048   5.457   1.937   1.619
 9362TIP3   OH228049   7.000   4.726   0.344
 9362TIP3    H128050   6.990   4.656   0.280
 9362TIP3    H228051   6.984   4.807   0.295
 9363TIP3   OH228052   1.027   1.045   0.803
 9363TIP3    H128053   1.116   1.063   0.772
 9363TIP3    H228054   1.020   1.092   0.886
 9364TIP3   OH228055   5.587   4.154   3.900
 9364TIP3    H128056   5.598   4.091   3.971
 9364TIP3    H228057   5.604   4.239   3.940
 9365TIP3   OH228058   6.314   0.980   0.110
 9365TIP3    H128059   6.270   1.034   0.176
 9365TIP3    H228060   6.393   1.029   0.088
 9366TIP3   OH228061   2.760   4.517   0.919
 9366TIP3    H128062   2.688   4.509   0.981
 9366TIP3    H228063   2.724   4.568   0.847
 9367TIP3   OH228064   5.500   4.578   3.374
 9367TIP3    H128065   5.509   4.539   3.287
 9367TIP3    H228066   5.413   4.549   3.404
 9368TIP3   OH228067   6.311   5.575   4.027
 9368TIP3    H128068   6.324   5.501   4.086
 9368TIP3    H228069   6.391   5.578   3.974
 9369TIP3   OH228070   4.646   5.921   4.080
 9369TIP3    H128071   4.710   5.850   4.080
 9369TIP3    H228072   4.596   5.909   4.161
 9370TIP3   OH228073   6.694   3.621   2.704
 9370TIP3    H128074   6.605   3.640   2.734
 9370TIP3    H228075   6.710   3.684   2.634
 9371TIP3   OH228076   6.839   6.707   3.067
 9371TIP3    H128077   6.843   6.620   3.109
 9371TIP3    H228078   6.913   6.754   3.105
 9372TIP3   OH228079   2.180   4.384   4.989
 9372TIP3    H128080   2.215   4.322   5.053
 9372TIP3    H228081   2.086   4.388   5.007
 9373TIP3   OH228082   0.525   1.902   2.667
 9373TIP3    H128083   0.436   1.936   2.668
 9373TIP3    H228084   0.559   1.918   2.755
 9374TIP3   OH228085   2.546   6.609   4.663
 9374TIP3    H128086   2.480   6.649   4.718
 9374TIP3    H228087   2.510   6.523   4.639
 9375TIP3   OH228088   2.729   5.155   0.285
 9375TIP3    H128089   2.807   5.176   0.234
 9375TIP3    H228090   2.664   5.220   0.258
 9376TIP3   OH228091   6.329   1.327   2.108
 9376TIP3    H128092   6.348   1.334   2.201
 9376TIP3    H228093   6.391   1.262   2.075
 9377TIP3   OH228094   6.155   5.038   4.332
 9377TIP3    H128095   6.216   4.964   4.329
 9377TIP3    H228096   6.212   5.116   4.335
 9378TIP3   OH228097   4.782   2.473   3.011
 9378TIP3    H128098   4.777   2.381   2.986
 9378TIP3    H228099   4.734   2.520   2.942
 9379TIP3   OH228100   0.743   6.117   3.601
 9379TIP3    H128101   0.803   6.082   3.535
 9379TIP3    H228102   0.708   6.039   3.645
 9380TIP3   OH228103   3.138   1.039   4.055
 9380TIP3    H128104   3.138   0.988   4.136
 9380TIP3    H228105   3.190   0.987   3.994
 9381TIP3   OH228106   2.604   2.972   4.701
 9381TIP3    H128107   2.605   2.953   4.607
 9381TIP3    H228108   2.548   3.049   4.709
 9382TIP3   OH228109   3.263   2.844   1.745
 9382TIP3    H128110   3.261   2.809   1.834
 9382TIP3    H228111   3.202   2.790   1.696
 9383TIP3   OH228112   5.063   1.734   1.809
 9383TIP3    H128113   4.976   1.719   1.772
 9383TIP3    H228114   5.122   1.689   1.749
 9384TIP3   OH228115   1.968   5.090   3.555
 9384TIP3    H128116   2.061   5.099   3.534
 9384TIP3    H228117   1.951   4.996   3.544
 9385TIP3   OH228118   3.785   6.257   3.409
 9385TIP3    H128119   3.782   6.294   3.498
 9385TIP3    H228120   3.820   6.327   3.355
 9386TIP3   OH228121   3.019   3.234   3.524
 9386TIP3    H128122   2.937   3.250   3.477
 9386TIP3    H228123   2.995   3.171   3.592
 9387TIP3   OH228124   1.112   1.158   0.316
 9387TIP3    H128125   1.046   1.173   0.383
 9387TIP3    H228126   1.062   1.135   0.238
 9388TIP3   OH228127   6.627   6.522   4.865
 9388TIP3    H128128   6.667   6.554   4.946
 9388TIP3    H228129   6.692   6.541   4.797
 9389TIP3   OH228130   1.569   1.098   5.080
 9389TIP3    H128131   1.499   1.161   5.062
 9389TIP3    H228132   1.629   1.107   5.006
 9390TIP3   OH228133   5.426   1.324   1.747
 9390TIP3    H128134   5.373   1.362   1.818
 9390TIP3    H228135   5.362   1.303   1.678
 9391TIP3   OH228136   4.220   0.853   1.456
 9391TIP3    H128137   4.163   0.869   1.531
 9391TIP3    H228138   4.230   0.939   1.414
 9392TIP3   OH228139   2.870   4.770   5.576
 9392TIP3    H128140   2.860   4.861   5.603
 9392TIP3    H228141   2.887   4.775   5.482
 9393TIP3   OH228142   2.832   0.314   0.918
 9393TIP3    H128143   2.804   0.269   0.838
 9393TIP3    H228144   2.757   0.307   0.977
 9394TIP3   OH228145   0.113   4.526   3.871
 9394TIP3    H128146   0.127   4.450   3.928
 9394TIP3    H228147   0.138   4.601   3.924
 9395TIP3   OH228148   3.642   0.927   4.510
 9395TIP3    H128149   3.658   0.835   4.493
 9395TIP3    H228150   3.581   0.955   4.441
 9396TIP3   OH228151   0.585   3.425   4.992
 9396TIP3    H128152   0.612   3.424   4.900
 9396TIP3    H228153   0.639   3.357   5.033
 9397TIP3   OH228154   3.492   4.000   2.060
 9397TIP3    H128155   3.548   3.951   2.120
 9397TIP3    H228156   3.416   3.943   2.046
 9398TIP3   OH228157   4.365   2.962   4.523
 9398TIP3    H128158   4.412   2.919   4.451
 9398TIP3    H228159   4.377   2.902   4.597
 9399TIP3   OH228160   5.308   5.753   3.369
 9399TIP3    H128161   5.327   5.751   3.275
 9399TIP3    H228162   5.387   5.791   3.409
 9400TIP3   OH228163   3.277   3.065   1.487
 9400TIP3    H128164   3.233   3.005   1.547
 9400TIP3    H228165   3.208   3.094   1.427
 9401TIP3   OH228166   6.649   0.639   1.057
 9401TIP3    H128167   6.682   0.552   1.036
 9401TIP3    H228168   6.639   0.682   0.972
 9402TIP3   OH228169   4.025   4.097   0.330
 9402TIP3    H128170   3.949   4.097   0.272
 9402TIP3    H228171   4.005   4.029   0.395
 9403TIP3   OH228172   5.185   3.641   5.698
 9403TIP3    H128173   5.263   3.590   5.720
 9403TIP3    H228174   5.197   3.665   5.606
 9404TIP3   OH228175   0.151   3.041   4.822
 9404TIP3    H128176   0.161   2.965   4.765
 9404TIP3    H228177   0.104   3.105   4.768
 9405TIP3   OH228178   4.247   0.389   0.562
 9405TIP3    H128179   4.193   0.456   0.520
 9405TIP3    H228180   4.308   0.439   0.618
 9406TIP3   OH228181   5.760   0.703   2.863
 9406TIP3    H128182   5.750   0.771   2.929
 9406TIP3    H228183   5.849   0.715   2.829
 9407TIP3   OH228184   2.778   1.334   5.541
 9407TIP3    H128185   2.744   1.301   5.624
 9407TIP3    H228186   2.702   1.371   5.496
 9408TIP3   OH228187   3.394   2.075   5.358
 9408TIP3    H128188   3.441   2.036   5.431
 9408TIP3    H228189   3.383   2.003   5.295
 9409TIP3   OH228190   2.812   3.793   1.695
 9409TIP3    H128191   2.818   3.879   1.653
 9409TIP3    H228192   2.898   3.779   1.734
 9410TIP3   OH228193   1.356   5.772   4.834
 9410TIP3    H128194   1.390   5.861   4.843
 9410TIP3    H228195   1.379   5.729   4.917
 9411TIP3   OH228196   3.994   6.452   2.843
 9411TIP3    H128197   3.912   6.474   2.797
 9411TIP3    H228198   3.996   6.512   2.917
 9412TIP3   OH228199   2.193   3.986   4.175
 9412TIP3    H128200   2.139   3.923   4.222
 9412TIP3    H228201   2.137   4.063   4.165
 9413TIP3   OH228202   5.145   0.735   4.275
 9413TIP3    H128203   5.106   0.816   4.241
 9413TIP3    H228204   5.154   0.751   4.369
 9414TIP3   OH228205   5.531   4.859   2.864
 9414TIP3    H128206   5.463   4.809   2.909
 9414TIP3    H228207   5.483   4.918   2.806
 9415TIP3   OH228208   5.365   0.526   1.310
 9415TIP3    H128209   5.366   0.616   1.344
 9415TIP3    H228210   5.300   0.481   1.363
 9416TIP3   OH228211   3.278   0.159   3.028
 9416TIP3    H128212   3.326   0.077   3.043
 9416TIP3    H228213   3.229   0.144   2.948
 9417TIP3   OH228214   2.249   0.356   2.198
 9417TIP3    H128215   2.177   0.419   2.190
 9417TIP3    H228216   2.311   0.397   2.258
 9418TIP3   OH228217   1.355   0.791   5.376
 9418TIP3    H128218   1.359   0.772   5.470
 9418TIP3    H228219   1.297   0.867   5.370
 9419TIP3   OH228220   0.905   4.862   3.317
 9419TIP3    H128221   0.953   4.937   3.282
 9419TIP3    H228222   0.904   4.799   3.245
 9420TIP3   OH228223   0.767   1.236   2.270
 9420TIP3    H128224   0.786   1.218   2.178
 9420TIP3    H228225   0.729   1.324   2.269
 9421TIP3   OH228226   2.623   5.534   4.464
 9421TIP3    H128227   2.667   5.604   4.415
 9421TIP3    H228228   2.673   5.455   4.442
 9422TIP3   OH228229   2.982   1.240   2.732
 9422TIP3    H128230   2.906   1.297   2.725
 9422TIP3    H228231   2.953   1.169   2.790
 9423TIP3   OH228232   3.941   4.122   2.610
 9423TIP3    H128233   4.022   4.072   2.610
 9423TIP3    H228234   3.951   4.185   2.682
 9424TIP3   OH228235   6.325   5.198   0.483
 9424TIP3    H128236   6.333   5.136   0.556
 9424TIP3    H228237   6.405   5.186   0.433
 9425TIP3   OH228238   0.457   0.625   1.055
 9425TIP3    H128239   0.380   0.626   0.999
 9425TIP3    H228240   0.532   0.624   0.995
 9426TIP3   OH228241   3.835   6.393   4.879
 9426TIP3    H128242   3.817   6.380   4.786
 9426TIP3    H228243   3.848   6.304   4.913
 9427TIP3   OH228244   0.181   6.503   3.324
 9427TIP3    H128245   0.126   6.468   3.255
 9427TIP3    H228246   0.120   6.524   3.395
 9428TIP3   OH228247   2.001   1.071   5.043
 9428TIP3    H128248   2.077   1.093   5.097
 9428TIP3    H228249   2.003   0.975   5.038
 9429TIP3   OH228250   5.000   0.352   5.796
 9429TIP3    H128251   5.081   0.396   5.822
 9429TIP3    H228252   5.000   0.355   5.701
 9430TIP3   OH228253   6.220   0.442   2.537
 9430TIP3    H128254   6.251   0.531   2.520
 9430TIP3    H228255   6.284   0.385   2.494
 9431TIP3   OH228256   0.771   1.212   3.461
 9431TIP3    H128257   0.815   1.291   3.429
 9431TIP3    H228258   0.711   1.187   3.390
 9432TIP3   OH228259   1.624   5.069   2.505
 9432TIP3    H128260   1.593   4.984   2.475
 9432TIP3    H228261   1.546   5.125   2.503
 9433TIP3   OH228262   2.688   6.626   5.322
 9433TIP3    H128263   2.723   6.638   5.411
 9433TIP3    H228264   2.638   6.545   5.326
 9434TIP3   OH228265   6.579   4.483   3.514
 9434TIP3    H128266   6.539   4.524   3.437
 9434TIP3    H228267   6.671   4.508   3.509
 9435TIP3   OH228268   5.485   5.772   5.584
 9435TIP3    H128269   5.508   5.862   5.558
 9435TIP3    H228270   5.569   5.730   5.601
 9436TIP3   OH228271   3.584   1.299   5.189
 9436TIP3    H128272   3.554   1.250   5.112
 9436TIP3    H228273   3.518   1.368   5.199
 9437TIP3   OH228274   3.847   4.128   3.360
 9437TIP3    H128275   3.778   4.101   3.300
 9437TIP3    H228276   3.912   4.058   3.354
 9438TIP3   OH228277   4.308   0.820   1.072
 9438TIP3    H128278   4.293   0.790   0.982
 9438TIP3    H228279   4.269   0.751   1.126
 9439TIP3   OH228280   6.295   2.972   2.038
 9439TIP3    H128281   6.357   2.969   2.111
 9439TIP3    H228282   6.224   3.028   2.069
 9440TIP3   OH228283   6.309   5.675   0.029
 9440TIP3    H128284   6.287   5.583   0.014
 9440TIP3    H228285   6.325   5.680   0.124
 9441TIP3   OH228286   7.081   4.877   3.074
 9441TIP3    H128287   7.133   4.941   3.026
 9441TIP3    H228288   7.119   4.875   3.162
 9442TIP3   OH228289   4.745   0.816   5.759
 9442TIP3    H128290   4.741   0.910   5.777
 9442TIP3    H228291   4.715   0.808   5.669
 9443TIP3   OH228292   7.078   5.233   3.128
 9443TIP3    H128293   6.983   5.242   3.139
 9443TIP3    H228294   7.112   5.322   3.139
 9444TIP3   OH228295   4.860   1.021   3.491
 9444TIP3    H128296   4.859   0.929   3.517
 9444TIP3    H228297   4.872   1.069   3.573
 9445TIP3   OH228298   2.534   5.751   0.312
 9445TIP3    H128299   2.473   5.813   0.273
 9445TIP3    H228300   2.618   5.771   0.271
 9446TIP3   OH228301   2.420   4.497   4.855
 9446TIP3    H128302   2.495   4.456   4.898
 9446TIP3    H228303   2.345   4.472   4.910
 9447TIP3   OH228304   5.625   5.709   3.659
 9447TIP3    H128305   5.558   5.650   3.694
 9447TIP3    H228306   5.699   5.651   3.638
 9448TIP3   OH228307   0.441   2.583   1.778
 9448TIP3    H128308   0.375   2.636   1.821
 9448TIP3    H228309   0.524   2.623   1.804
 9449TIP3   OH228310   5.758   2.647   1.442
 9449TIP3    H128311   5.727   2.684   1.525
 9449TIP3    H228312   5.751   2.719   1.379
 9450TIP3   OH228313   5.563   1.703   1.341
 9450TIP3    H128314   5.649   1.723   1.303
 9450TIP3    H228315   5.547   1.775   1.402
 9451TIP3   OH228316   4.910   5.894   3.594
 9451TIP3    H128317   4.924   5.985   3.617
 9451TIP3    H228318   4.843   5.864   3.656
 9452TIP3   OH228319   5.456   4.262   2.644
 9452TIP3    H128320   5.512   4.224   2.711
 9452TIP3    H228321   5.367   4.251   2.679
 9453TIP3   OH228322   0.896   2.708   5.569
 9453TIP3    H128323   0.976   2.708   5.622
 9453TIP3    H228324   0.844   2.635   5.604
 9454TIP3   OH228325   5.134   2.359   3.407
 9454TIP3    H128326   5.178   2.423   3.464
 9454TIP3    H228327   5.103   2.412   3.333
 9455TIP3   OH228328   1.766   6.027   1.852
 9455TIP3    H128329   1.714   6.075   1.916
 9455TIP3    H228330   1.760   5.935   1.881
 9456TIP3   OH228331   7.063   0.899   5.102
 9456TIP3    H128332   7.107   0.912   5.186
 9456TIP3    H228333   7.000   0.829   5.119
 9457TIP3   OH228334   2.074   3.448   3.462
 9457TIP3    H128335   2.064   3.415   3.551
 9457TIP3    H228336   2.167   3.437   3.442
 9458TIP3   OH228337   4.095   6.667   3.594
 9458TIP3    H128338   4.128   6.713   3.672
 9458TIP3    H228339   4.175   6.641   3.547
 9459TIP3   OH228340   5.110   5.530   2.788
 9459TIP3    H128341   5.102   5.602   2.851
 9459TIP3    H228342   5.067   5.456   2.831
 9460TIP3   OH228343   5.411   1.462   4.244
 9460TIP3    H128344   5.506   1.453   4.252
 9460TIP3    H228345   5.386   1.396   4.179
 9461TIP3   OH228346   6.210   0.515   4.553
 9461TIP3    H128347   6.124   0.477   4.569
 9461TIP3    H228348   6.260   0.444   4.513
 9462TIP3   OH228349   1.927   1.849   2.093
 9462TIP3    H128350   1.937   1.829   2.186
 9462TIP3    H228351   1.837   1.882   2.086
 9463TIP3   OH228352   5.133   2.043   3.651
 9463TIP3    H128353   5.196   1.977   3.681
 9463TIP3    H228354   5.135   2.111   3.719
 9464TIP3   OH228355   2.996   0.846   5.101
 9464TIP3    H128356   3.033   0.917   5.049
 9464TIP3    H228357   3.068   0.784   5.112
 9465TIP3   OH228358   5.628   3.248   2.484
 9465TIP3    H128359   5.719   3.256   2.513
 9465TIP3    H228360   5.635   3.223   2.392
 9466TIP3   OH228361   4.019   2.500   2.459
 9466TIP3    H128362   4.097   2.457   2.424
 9466TIP3    H228363   3.959   2.506   2.384
 9467TIP3   OH228364   2.612   2.754   2.059
 9467TIP3    H128365   2.551   2.698   2.107
 9467TIP3    H228366   2.558   2.795   1.992
 9468TIP3   OH228367   2.373   1.958   3.069
 9468TIP3    H128368   2.408   2.007   2.995
 9468TIP3    H228369   2.279   1.951   3.051
 9469TIP3   OH228370   0.983   2.889   3.385
 9469TIP3    H128371   1.075   2.907   3.362
 9469TIP3    H228372   0.986   2.807   3.433
 9470TIP3   OH228373   1.847   5.646   5.067
 9470TIP3    H128374   1.941   5.655   5.079
 9470TIP3    H228375   1.833   5.552   5.050
 9471TIP3   OH228376   6.359   4.030   5.462
 9471TIP3    H128377   6.341   4.011   5.554
 9471TIP3    H228378   6.405   3.952   5.430
 9472TIP3   OH228379   0.885   1.631   3.631
 9472TIP3    H128380   0.922   1.686   3.562
 9472TIP3    H228381   0.958   1.577   3.660
 9473TIP3   OH228382   3.749   6.787   5.529
 9473TIP3    H128383   3.698   6.765   5.452
 9473TIP3    H228384   3.741   6.882   5.538
 9474TIP3   OH228385   0.986   2.726   5.139
 9474TIP3    H128386   0.914   2.664   5.147
 9474TIP3    H228387   1.065   2.672   5.139
 9475TIP3   OH228388   1.330   0.206   2.262
 9475TIP3    H128389   1.249   0.183   2.308
 9475TIP3    H228390   1.343   0.299   2.281
 9476TIP3   OH228391   4.577   5.083   0.566
 9476TIP3    H128392   4.491   5.119   0.588
 9476TIP3    H228393   4.639   5.151   0.592
 9477TIP3   OH228394   4.104   4.286   3.737
 9477TIP3    H128395   4.172   4.349   3.712
 9477TIP3    H228396   4.034   4.339   3.774
 9478TIP3   OH228397   0.447   1.619   0.182
 9478TIP3    H128398   0.536   1.587   0.190
 9478TIP3    H228399   0.427   1.656   0.268
 9479TIP3   OH228400   3.369   0.263   0.368
 9479TIP3    H128401   3.412   0.312   0.298
 9479TIP3    H228402   3.438   0.207   0.404
 9480TIP3   OH228403   4.222   4.499   1.922
 9480TIP3    H128404   4.274   4.555   1.980
 9480TIP3    H228405   4.174   4.441   1.981
 9481TIP3   OH228406   0.500   3.761   2.355
 9481TIP3    H128407   0.447   3.732   2.429
 9481TIP3    H228408   0.457   3.840   2.324
 9482TIP3   OH228409   6.706   2.203   1.461
 9482TIP3    H128410   6.654   2.250   1.395
 9482TIP3    H228411   6.683   2.246   1.544
 9483TIP3   OH228412   1.499   6.024   3.428
 9483TIP3    H128413   1.552   6.016   3.508
 9483TIP3    H228414   1.540   6.095   3.379
 9484TIP3   OH228415   5.063   4.047   0.656
 9484TIP3    H128416   4.978   4.091   0.668
 9484TIP3    H228417   5.075   3.998   0.738
 9485TIP3   OH228418   2.641   0.237   2.249
 9485TIP3    H128419   2.719   0.256   2.302
 9485TIP3    H228420   2.674   0.192   2.172
 9486TIP3   OH228421   4.573   1.074   1.751
 9486TIP3    H128422   4.658   1.051   1.788
 9486TIP3    H228423   4.570   1.030   1.666
 9487TIP3   OH228424   4.725   1.215   4.053
 9487TIP3    H128425   4.688   1.298   4.083
 9487TIP3    H228426   4.794   1.242   3.991
 9488TIP3   OH228427   4.650   2.467   1.223
 9488TIP3    H128428   4.627   2.466   1.315
 9488TIP3    H228429   4.603   2.392   1.185
 9489TIP3   OH228430   5.969   2.044   5.661
 9489TIP3    H128431   6.038   2.047   5.594
 9489TIP3    H228432   6.016   2.031   5.743
 9490TIP3   OH228433   4.882   1.744   1.568
 9490TIP3    H128434   4.967   1.708   1.541
 9490TIP3    H228435   4.835   1.669   1.604
 9491TIP3   OH228436   2.235   2.627   2.855
 9491TIP3    H128437   2.279   2.568   2.795
 9491TIP3    H228438   2.304   2.684   2.888
 9492TIP3   OH228439   4.301   6.574   3.322
 9492TIP3    H128440   4.286   6.571   3.227
 9492TIP3    H228441   4.287   6.483   3.351
 9493TIP3   OH228442   2.212   3.758   5.645
 9493TIP3    H128443   2.178   3.719   5.565
 9493TIP3    H228444   2.305   3.734   5.646
 9494TIP3   OH228445   2.670   0.356   3.618
 9494TIP3    H128446   2.600   0.297   3.591
 9494TIP3    H228447   2.667   0.356   3.713
 9495TIP3   OH228448   5.211   0.440   3.159
 9495TIP3    H128449   5.180   0.525   3.130
 9495TIP3    H228450   5.209   0.385   3.081
 9496TIP3   OH228451   6.147   5.089  -0.019
 9496TIP3    H128452   6.136   5.182   0.002
 9496TIP3    H228453   6.139   5.044   0.064
 9497TIP3   OH228454   2.461   2.780   0.107
 9497TIP3    H128455   2.403   2.760   0.033
 9497TIP3    H228456   2.548   2.785   0.069
 9498TIP3   OH228457   2.813   1.283   3.680
 9498TIP3    H128458   2.821   1.209   3.619
 9498TIP3    H228459   2.854   1.252   3.761
 9499TIP3   OH228460   1.249   0.812   1.557
 9499TIP3    H128461   1.200   0.874   1.612
 9499TIP3    H228462   1.277   0.864   1.482
 9500TIP3   OH228463   2.808   1.396   5.128
 9500TIP3    H128464   2.872   1.374   5.059
 9500TIP3    H228465   2.860   1.402   5.208
 9501TIP3   OH228466   5.498   0.267   3.887
 9501TIP3    H128467   5.553   0.297   3.959
 9501TIP3    H228468   5.533   0.182   3.862
 9502TIP3   OH228469   6.562   5.883   5.647
 9502TIP3    H128470   6.655   5.903   5.641
 9502TIP3    H228471   6.553   5.797   5.607
 9503TIP3   OH228472   7.020   0.643   5.290
 9503TIP3    H128473   7.103   0.677   5.323
 9503TIP3    H228474   7.007   0.561   5.338
 9504TIP3   OH228475   5.409   1.490   4.887
 9504TIP3    H128476   5.358   1.555   4.935
 9504TIP3    H228477   5.458   1.541   4.823
 9505TIP3   OH228478   1.225   3.315   2.908
 9505TIP3    H128479   1.158   3.374   2.944
 9505TIP3    H228480   1.193   3.228   2.929
 9506TIP3   OH228481   1.148   6.619   3.330
 9506TIP3    H128482   1.220   6.667   3.370
 9506TIP3    H228483   1.160   6.529   3.361
 9507TIP3   OH228484   5.377   5.854   0.553
 9507TIP3    H128485   5.329   5.778   0.519
 9507TIP3    H228486   5.400   5.905   0.475
 9508TIP3   OH228487   4.051   1.974   4.902
 9508TIP3    H128488   4.025   2.061   4.930
 9508TIP3    H228489   3.980   1.916   4.930
 9509TIP3   OH228490   4.704   5.219   4.814
 9509TIP3    H128491   4.611   5.204   4.796
 9509TIP3    H228492   4.712   5.314   4.822
 9510TIP3   OH228493   5.815   4.507   2.497
 9510TIP3    H128494   5.752   4.552   2.440
 9510TIP3    H228495   5.791   4.415   2.492
 9511TIP3   OH228496   7.123   5.794   4.298
 9511TIP3    H128497   7.215   5.778   4.319
 9511TIP3    H228498   7.117   5.780   4.203
 9512TIP3   OH228499   6.560   0.254   3.038
 9512TIP3    H128500   6.530   0.303   2.961
 9512TIP3    H228501   6.631   0.307   3.074
 9513TIP3   OH228502   2.399   1.086   1.791
 9513TIP3    H128503   2.464   1.027   1.830
 9513TIP3    H228504   2.335   1.101   1.861
 9514TIP3   OH228505   0.733   4.776   4.028
 9514TIP3    H128506   0.763   4.688   4.006
 9514TIP3    H228507   0.716   4.772   4.122
 9515TIP3   OH228508   3.976   4.497   0.713
 9515TIP3    H128509   3.973   4.555   0.789
 9515TIP3    H228510   3.977   4.556   0.638
 9516TIP3   OH228511   4.844   2.831   2.170
 9516TIP3    H128512   4.795   2.911   2.189
 9516TIP3    H228513   4.783   2.777   2.121
 9517TIP3   OH228514   4.450   2.539   5.204
 9517TIP3    H128515   4.375   2.485   5.226
 9517TIP3    H228516   4.461   2.528   5.109
 9518TIP3   OH228517   5.187   5.857   2.041
 9518TIP3    H128518   5.253   5.790   2.023
 9518TIP3    H228519   5.121   5.845   1.973
 9519TIP3   OH228520   6.861   6.507   2.060
 9519TIP3    H128521   6.939   6.522   2.007
 9519TIP3    H228522   6.810   6.588   2.050
 9520TIP3   OH228523   4.251   6.027   4.654
 9520TIP3    H128524   4.199   6.107   4.660
 9520TIP3    H228525   4.193   5.959   4.690
 9521TIP3   OH228526   7.086   5.149   4.596
 9521TIP3    H128527   7.153   5.081   4.597
 9521TIP3    H228528   7.004   5.102   4.611
 9522TIP3   OH228529   2.633   1.144   2.040
 9522TIP3    H128530   2.701   1.116   2.101
 9522TIP3    H228531   2.551   1.117   2.082
 9523TIP3   OH228532   1.994   1.398   3.104
 9523TIP3    H128533   1.950   1.477   3.135
 9523TIP3    H228534   1.976   1.333   3.172
 9524TIP3   OH228535   4.249   3.494   3.228
 9524TIP3    H128536   4.307   3.468   3.300
 9524TIP3    H228537   4.168   3.445   3.244
 9525TIP3   OH228538   3.043   0.368   1.647
 9525TIP3    H128539   3.046   0.379   1.742
 9525TIP3    H228540   3.023   0.275   1.634
 9526TIP3   OH228541   5.312   4.042   2.478
 9526TIP3    H128542   5.380   3.993   2.525
 9526TIP3    H228543   5.293   4.117   2.534
 9527TIP3   OH228544   3.950   5.844   2.667
 9527TIP3    H128545   3.923   5.788   2.594
 9527TIP3    H228546   3.870   5.889   2.694
 9528TIP3   OH228547   2.454   2.292   4.070
 9528TIP3    H128548   2.422   2.254   4.152
 9528TIP3    H228549   2.391   2.263   4.004
 9529TIP3   OH228550   7.069   1.056   0.452
 9529TIP3    H128551   7.162   1.058   0.432
 9529TIP3    H228552   7.026   1.080   0.370
 9530TIP3   OH228553   2.730   5.070   3.521
 9530TIP3    H128554   2.823   5.080   3.540
 9530TIP3    H228555   2.728   5.032   3.433
 9531TIP3   OH228556   1.364   0.288   0.061
 9531TIP3    H128557   1.338   0.379   0.044
 9531TIP3    H228558   1.419   0.264  -0.014
 9532TIP3   OH228559   4.290   5.012   1.592
 9532TIP3    H128560   4.289   4.923   1.558
 9532TIP3    H228561   4.339   5.006   1.674
 9533TIP3   OH228562   2.526   5.897   5.144
 9533TIP3    H128563   2.461   5.956   5.105
 9533TIP3    H228564   2.490   5.876   5.231
 9534TIP3   OH228565   4.866   5.350   0.517
 9534TIP3    H128566   4.857   5.255   0.505
 9534TIP3    H228567   4.912   5.359   0.600
 9535TIP3   OH228568   2.039   6.270   5.256
 9535TIP3    H128569   1.969   6.212   5.286
 9535TIP3    H228570   2.117   6.215   5.253
 9536TIP3   OH228571   1.905   3.675   5.610
 9536TIP3    H128572   1.979   3.690   5.552
 9536TIP3    H228573   1.902   3.580   5.621
 9537TIP3   OH228574   5.721   2.769   2.669
 9537TIP3    H128575   5.692   2.808   2.587
 9537TIP3    H228576   5.804   2.726   2.647
 9538TIP3   OH228577   1.079   0.397   2.635
 9538TIP3    H128578   1.150   0.378   2.574
 9538TIP3    H228579   1.120   0.449   2.704
 9539TIP3   OH228580   1.264   3.392   5.499
 9539TIP3    H128581   1.301   3.306   5.476
 9539TIP3    H228582   1.293   3.406   5.589
 9540TIP3   OH228583   2.360   3.408   3.527
 9540TIP3    H128584   2.401   3.349   3.589
 9540TIP3    H228585   2.424   3.479   3.515
 9541TIP3   OH228586   6.733   3.013   4.943
 9541TIP3    H128587   6.812   3.065   4.956
 9541TIP3    H228588   6.728   2.956   5.019
 9542TIP3   OH228589   3.660   6.016   4.830
 9542TIP3    H128590   3.627   5.940   4.878
 9542TIP3    H228591   3.625   6.005   4.741
 9543TIP3   OH228592   1.720   1.821   3.579
 9543TIP3    H128593   1.812   1.849   3.576
 9543TIP3    H228594   1.677   1.873   3.511
 9544TIP3   OH228595   3.569   3.597   4.414
 9544TIP3    H128596   3.508   3.631   4.479
 9544TIP3    H228597   3.591   3.509   4.445
 9545TIP3   OH228598   1.920   2.718   5.616
 9545TIP3    H128599   1.945   2.759   5.533
 9545TIP3    H228600   2.004   2.695   5.656
 9546TIP3   OH228601   6.299   0.845   1.318
 9546TIP3    H128602   6.245   0.785   1.266
 9546TIP3    H228603   6.306   0.804   1.404
 9547TIP3   OH228604   5.640   3.611   2.494
 9547TIP3    H128605   5.730   3.589   2.471
 9547TIP3    H228606   5.590   3.593   2.414
 9548TIP3   OH228607   4.982   3.827   5.524
 9548TIP3    H128608   5.063   3.856   5.481
 9548TIP3    H228609   4.978   3.878   5.604
 9549TIP3   OH228610   3.282   6.793   1.542
 9549TIP3    H128611   3.232   6.858   1.492
 9549TIP3    H228612   3.365   6.786   1.495
 9550TIP3   OH228613   0.770   5.709   3.092
 9550TIP3    H128614   0.843   5.676   3.040
 9550TIP3    H228615   0.710   5.748   3.028
 9551TIP3   OH228616   5.929   1.916   2.233
 9551TIP3    H128617   6.010   1.948   2.273
 9551TIP3    H228618   5.948   1.826   2.206
 9552TIP3   OH228619   4.708   2.410   4.667
 9552TIP3    H128620   4.784   2.376   4.714
 9552TIP3    H228621   4.672   2.334   4.622
 9553TIP3   OH228622   0.805   2.290   2.521
 9553TIP3    H128623   0.728   2.296   2.463
 9553TIP3    H228624   0.790   2.210   2.572
 9554TIP3   OH228625   4.676   0.420   1.773
 9554TIP3    H128626   4.698   0.492   1.714
 9554TIP3    H228627   4.751   0.361   1.769
 9555TIP3   OH228628   1.984   4.003   3.079
 9555TIP3    H128629   1.972   4.051   2.997
 9555TIP3    H228630   1.975   3.911   3.055
 9556TIP3   OH228631   0.552   0.126   0.711
 9556TIP3    H128632   0.548   0.102   0.619
 9556TIP3    H228633   0.501   0.207   0.717
 9557TIP3   OH228634   1.164   6.711   5.557
 9557TIP3    H128635   1.083   6.732   5.603
 9557TIP3    H228636   1.233   6.751   5.610
 9558TIP3   OH228637   1.620   3.729   3.597
 9558TIP3    H128638   1.537   3.687   3.571
 9558TIP3    H228639   1.612   3.741   3.692
 9559TIP3   OH228640   2.695   5.691   2.647
 9559TIP3    H128641   2.708   5.781   2.676
 9559TIP3    H228642   2.650   5.699   2.562
 9560TIP3   OH228643   3.851   6.268   2.401
 9560TIP3    H128644   3.879   6.354   2.369
 9560TIP3    H228645   3.872   6.208   2.330
 9561TIP3   OH228646   0.467   5.516   1.736
 9561TIP3    H128647   0.396   5.576   1.760
 9561TIP3    H228648   0.481   5.531   1.642
 9562TIP3   OH228649   2.272   2.943   2.788
 9562TIP3    H128650   2.327   2.894   2.728
 9562TIP3    H228651   2.332   2.998   2.838
 9563TIP3   OH228652   3.290   3.812   2.518
 9563TIP3    H128653   3.382   3.794   2.502
 9563TIP3    H228654   3.255   3.836   2.433
 9564TIP3   OH228655   4.217   4.003   5.467
 9564TIP3    H128656   4.267   4.079   5.437
 9564TIP3    H228657   4.266   3.971   5.543
 9565TIP3   OH228658   5.032   1.906   4.652
 9565TIP3    H128659   5.023   1.924   4.558
 9565TIP3    H228660   4.943   1.884   4.681
 9566TIP3   OH228661   3.062   2.538   4.902
 9566TIP3    H128662   3.024   2.499   4.981
 9566TIP3    H228663   2.990   2.540   4.839
 9567TIP3   OH228664   5.874   0.253   4.890
 9567TIP3    H128665   5.933   0.324   4.915
 9567TIP3    H228666   5.874   0.194   4.966
 9568TIP3   OH228667   1.178   1.324   4.642
 9568TIP3    H128668   1.085   1.307   4.659
 9568TIP3    H228669   1.222   1.244   4.669
 9569TIP3   OH228670   5.780   0.874   1.913
 9569TIP3    H128671   5.803   0.829   1.832
 9569TIP3    H228672   5.759   0.963   1.886
 9570TIP3   OH228673   6.806   3.055   2.608
 9570TIP3    H128674   6.850   3.021   2.530
 9570TIP3    H228675   6.835   3.146   2.614
 9571TIP3   OH228676   4.339   6.465   2.386
 9571TIP3    H128677   4.372   6.549   2.418
 9571TIP3    H228678   4.330   6.411   2.465
 9572TIP3   OH228679   2.516   6.132   1.762
 9572TIP3    H128680   2.603   6.096   1.749
 9572TIP3    H228681   2.468   6.064   1.808
 9573TIP3   OH228682   6.731   4.740   0.502
 9573TIP3    H128683   6.737   4.836   0.499
 9573TIP3    H228684   6.800   4.713   0.562
 9574TIP3   OH228685   6.158   4.556   5.237
 9574TIP3    H128686   6.240   4.578   5.280
 9574TIP3    H228687   6.131   4.473   5.278
 9575TIP3   OH228688   5.625   5.037   2.458
 9575TIP3    H128689   5.580   4.953   2.460
 9575TIP3    H228690   5.680   5.032   2.380
 9576TIP3   OH228691   2.744   2.240   0.333
 9576TIP3    H128692   2.728   2.193   0.415
 9576TIP3    H228693   2.774   2.173   0.272
 9577TIP3   OH228694   1.960   5.994   1.659
 9577TIP3    H128695   1.896   6.002   1.729
 9577TIP3    H228696   1.972   6.083   1.627
 9578TIP3   OH228697   3.754   6.733   2.184
 9578TIP3    H128698   3.773   6.706   2.094
 9578TIP3    H228699   3.663   6.760   2.182
 9579TIP3   OH228700   0.869   2.972   4.959
 9579TIP3    H128701   0.910   2.924   5.031
 9579TIP3    H228702   0.792   2.920   4.936
 9580TIP3   OH228703   4.024   3.558   0.012
 9580TIP3    H128704   4.061   3.646   0.019
 9580TIP3    H228705   4.026   3.524   0.101
 9581TIP3   OH228706   6.990   1.457   4.483
 9581TIP3    H128707   6.952   1.510   4.413
 9581TIP3    H228708   7.070   1.420   4.445
 9582TIP3   OH228709   3.620   0.364   4.848
 9582TIP3    H128710   3.612   0.302   4.921
 9582TIP3    H228711   3.680   0.432   4.881
 9583TIP3   OH228712   1.914   5.562   4.079
 9583TIP3    H128713   1.965   5.577   4.158
 9583TIP3    H228714   1.824   5.582   4.104
 9584TIP3   OH228715   4.163   1.486   0.037
 9584TIP3    H128716   4.208   1.424   0.094
 9584TIP3    H228717   4.232   1.525  -0.017
 9585TIP3   OH228718   3.919   0.092   3.684
 9585TIP3    H128719   3.980   0.150   3.729
 9585TIP3    H228720   3.968   0.062   3.607
 9586TIP3   OH228721   6.989   1.766   3.511
 9586TIP3    H128722   7.084   1.776   3.513
 9586TIP3    H228723   6.966   1.777   3.419
 9587TIP3   OH228724   6.425   2.998   0.152
 9587TIP3    H128725   6.446   3.082   0.192
 9587TIP3    H228726   6.362   2.958   0.211
 9588TIP3   OH228727   3.882   5.730   5.347
 9588TIP3    H128728   3.879   5.650   5.400
 9588TIP3    H228729   3.844   5.797   5.403
 9589TIP3   OH228730   1.739   2.508   2.825
 9589TIP3    H128731   1.818   2.560   2.812
 9589TIP3    H228732   1.703   2.539   2.908
 9590TIP3   OH228733   3.608   4.298   5.097
 9590TIP3    H128734   3.609   4.217   5.148
 9590TIP3    H228735   3.699   4.310   5.071
 9591TIP3   OH228736   1.817   5.052   1.033
 9591TIP3    H128737   1.752   5.077   1.098
 9591TIP3    H228738   1.895   5.030   1.084
 9592TIP3   OH228739   4.072   2.390   2.751
 9592TIP3    H128740   4.055   2.483   2.733
 9592TIP3    H228741   4.165   2.378   2.733
 9593TIP3   OH228742   5.248   0.477   2.431
 9593TIP3    H128743   5.185   0.491   2.360
 9593TIP3    H228744   5.201   0.501   2.510
 9594TIP3   OH228745   1.600   3.297   4.814
 9594TIP3    H128746   1.616   3.391   4.806
 9594TIP3    H228747   1.504   3.289   4.817
 9595TIP3   OH228748   4.770   4.948   1.618
 9595TIP3    H128749   4.749   4.901   1.699
 9595TIP3    H228750   4.731   4.895   1.549
 9596TIP3   OH228751   7.165   6.579   2.133
 9596TIP3    H128752   7.131   6.545   2.050
 9596TIP3    H228753   7.165   6.674   2.122
 9597TIP3   OH228754   6.621   1.589   2.771
 9597TIP3    H128755   6.590   1.662   2.824
 9597TIP3    H228756   6.542   1.541   2.747
 9598TIP3   OH228757   5.761   0.762   3.329
 9598TIP3    H128758   5.792   0.682   3.287
 9598TIP3    H228759   5.821   0.830   3.297
 9599TIP3   OH228760   6.013   2.861   5.419
 9599TIP3    H128761   6.070   2.913   5.362
 9599TIP3    H228762   6.056   2.776   5.423
 9600TIP3   OH228763   3.128   0.755   2.109
 9600TIP3    H128764   3.049   0.791   2.068
 9600TIP3    H228765   3.144   0.814   2.183
 9601TIP3   OH228766   4.444   3.632   1.470
 9601TIP3    H128767   4.497   3.711   1.468
 9601TIP3    H228768   4.461   3.589   1.386
 9602TIP3   OH228769   6.834   6.347   1.735
 9602TIP3    H128770   6.820   6.299   1.817
 9602TIP3    H228771   6.825   6.439   1.759
 9603TIP3   OH228772   0.201   6.603   4.961
 9603TIP3    H128773   0.177   6.691   4.932
 9603TIP3    H228774   0.265   6.573   4.897
 9604TIP3   OH228775   0.440   0.867   4.016
 9604TIP3    H128776   0.395   0.924   3.954
 9604TIP3    H228777   0.473   0.926   4.084
 9605TIP3   OH228778   4.600   0.575   1.973
 9605TIP3    H128779   4.672   0.528   2.016
 9605TIP3    H228780   4.589   0.530   1.889
 9606TIP3   OH228781   6.763   0.758   5.813
 9606TIP3    H128782   6.769   0.854   5.815
 9606TIP3    H228783   6.794   0.734   5.725
 9607TIP3   OH228784   5.508   0.905   2.030
 9607TIP3    H128785   5.459   0.936   1.954
 9607TIP3    H228786   5.590   0.873   1.994
 9608TIP3   OH228787   1.265   3.867   2.638
 9608TIP3    H128788   1.302   3.812   2.707
 9608TIP3    H228789   1.171   3.851   2.643
 9609TIP3   OH228790   4.352   5.234   0.600
 9609TIP3    H128791   4.371   5.305   0.661
 9609TIP3    H228792   4.318   5.279   0.522
 9610TIP3   OH228793   2.062   3.822   0.196
 9610TIP3    H128794   2.042   3.748   0.139
 9610TIP3    H228795   2.157   3.818   0.208
 9611TIP3   OH228796   4.420   2.705   0.075
 9611TIP3    H128797   4.351   2.754   0.030
 9611TIP3    H228798   4.489   2.696   0.009
 9612TIP3   OH228799   6.340   1.460   1.697
 9612TIP3    H128800   6.384   1.401   1.636
 9612TIP3    H228801   6.247   1.440   1.686
 9613TIP3   OH228802   1.666   0.915   3.428
 9613TIP3    H128803   1.637   0.956   3.509
 9613TIP3    H228804   1.760   0.933   3.425
 9614TIP3   OH228805   4.070   5.165   1.690
 9614TIP3    H128806   4.128   5.126   1.625
 9614TIP3    H228807   4.116   5.243   1.721
 9615TIP3   OH228808   5.339   5.684   1.044
 9615TIP3    H128809   5.358   5.656   0.955
 9615TIP3    H228810   5.270   5.624   1.073
 9616TIP3   OH228811   3.881   2.087   3.597
 9616TIP3    H128812   3.925   2.172   3.601
 9616TIP3    H228813   3.943   2.030   3.550
 9617TIP3   OH228814   0.749   5.311   2.188
 9617TIP3    H128815   0.719   5.347   2.105
 9617TIP3    H228816   0.680   5.335   2.250
 9618TIP3   OH228817   5.556   5.853   4.418
 9618TIP3    H128818   5.553   5.917   4.347
 9618TIP3    H228819   5.512   5.896   4.491
 9619TIP3   OH228820   5.958   3.874   4.299
 9619TIP3    H128821   6.017   3.908   4.232
 9619TIP3    H228822   5.874   3.917   4.281
 9620TIP3   OH228823   1.295   1.728   5.804
 9620TIP3    H128824   1.373   1.674   5.792
 9620TIP3    H228825   1.243   1.679   5.868
 9621TIP3   OH228826   5.076   6.262   4.161
 9621TIP3    H128827   5.067   6.289   4.070
 9621TIP3    H228828   5.116   6.175   4.156
 9622TIP3   OH228829   6.889   1.887   3.738
 9622TIP3    H128830   6.960   1.931   3.783
 9622TIP3    H228831   6.929   1.849   3.659
 9623TIP3   OH228832   5.286   2.115   2.291
 9623TIP3    H128833   5.246   2.129   2.205
 9623TIP3    H228834   5.359   2.055   2.274
 9624TIP3   OH228835   0.955   6.658   1.572
 9624TIP3    H128836   0.877   6.611   1.600
 9624TIP3    H228837   1.027   6.612   1.615
 9625TIP3   OH228838   4.972   4.441   1.362
 9625TIP3    H128839   5.051   4.493   1.379
 9625TIP3    H228840   4.910   4.469   1.429
 9626TIP3   OH228841   5.197   3.048   4.133
 9626TIP3    H128842   5.167   2.957   4.131
 9626TIP3    H228843   5.132   3.094   4.186
 9627TIP3   OH228844   2.158   0.803   4.071
 9627TIP3    H128845   2.064   0.820   4.058
 9627TIP3    H228846   2.160   0.725   4.127
 9628TIP3   OH228847   3.954   1.062   1.142
 9628TIP3    H128848   3.894   1.129   1.109
 9628TIP3    H228849   4.017   1.050   1.071
 9629TIP3   OH228850   1.493   1.263   2.666
 9629TIP3    H128851   1.444   1.335   2.705
 9629TIP3    H228852   1.524   1.212   2.740
 9630TIP3   OH228853   2.227   5.274   2.583
 9630TIP3    H128854   2.291   5.227   2.530
 9630TIP3    H228855   2.231   5.232   2.669
 9631TIP3   OH228856   0.951   2.885   5.369
 9631TIP3    H128857   0.934   2.823   5.440
 9631TIP3    H228858   0.965   2.830   5.292
 9632TIP3   OH228859   3.507   3.590   0.634
 9632TIP3    H128860   3.601   3.575   0.642
 9632TIP3    H228861   3.495   3.625   0.546
 9633TIP3   OH228862   2.829   2.081   2.731
 9633TIP3    H128863   2.887   2.110   2.661
 9633TIP3    H228864   2.743   2.116   2.706
 9634TIP3   OH228865   5.928   4.656   1.499
 9634TIP3    H128866   5.967   4.628   1.582
 9634TIP3    H228867   5.852   4.708   1.525
 9635TIP3   OH228868   6.665   2.328   4.331
 9635TIP3    H128869   6.650   2.422   4.317
 9635TIP3    H228870   6.717   2.323   4.411
 9636TIP3   OH228871   6.483   3.225   4.816
 9636TIP3    H128872   6.537   3.158   4.858
 9636TIP3    H228873   6.414   3.176   4.771
 9637TIP3   OH228874   3.958   4.304   5.437
 9637TIP3    H128875   4.024   4.345   5.380
 9637TIP3    H228876   4.002   4.226   5.471
 9638TIP3   OH228877   0.231   6.091   2.322
 9638TIP3    H128878   0.174   6.034   2.270
 9638TIP3    H228879   0.216   6.064   2.413
 9639TIP3   OH228880   6.437   3.696   2.788
 9639TIP3    H128881   6.406   3.700   2.697
 9639TIP3    H228882   6.462   3.786   2.808
 9640TIP3   OH228883   0.917   4.349   1.027
 9640TIP3    H128884   0.960   4.285   0.971
 9640TIP3    H228885   0.986   4.412   1.048
 9641TIP3   OH228886   0.159   1.195   3.051
 9641TIP3    H128887   0.171   1.127   2.985
 9641TIP3    H228888   0.153   1.147   3.134
 9642TIP3   OH228889   6.202   4.310   5.051
 9642TIP3    H128890   6.213   4.282   5.142
 9642TIP3    H228891   6.193   4.228   5.002
 9643TIP3   OH228892   1.165   4.066   5.581
 9643TIP3    H128893   1.151   3.975   5.553
 9643TIP3    H228894   1.260   4.078   5.578
 9644TIP3   OH228895   1.954   0.108   0.546
 9644TIP3    H128896   1.905   0.148   0.618
 9644TIP3    H228897   1.961   0.016   0.571
 9645TIP3   OH228898   1.006   1.490   1.257
 9645TIP3    H128899   1.049   1.575   1.245
 9645TIP3    H228900   0.921   1.499   1.213
 9646TIP3   OH228901   3.757   6.582   2.808
 9646TIP3    H128902   3.749   6.651   2.873
 9646TIP3    H228903   3.683   6.524   2.825
 9647TIP3   OH228904   3.023   2.635   3.192
 9647TIP3    H128905   2.947   2.646   3.249
 9647TIP3    H228906   2.991   2.662   3.105
 9648TIP3   OH228907   5.988   4.868   2.114
 9648TIP3    H128908   5.936   4.946   2.099
 9648TIP3    H228909   6.067   4.881   2.062
 9649TIP3   OH228910   4.375   1.710   4.620
 9649TIP3    H128911   4.446   1.769   4.597
 9649TIP3    H228912   4.368   1.650   4.545
 9650TIP3   OH228913   0.415   4.003   1.244
 9650TIP3    H128914   0.472   3.927   1.251
 9650TIP3    H228915   0.450   4.052   1.169
 9651TIP3   OH228916   5.701   5.439   1.590
 9651TIP3    H128917   5.608   5.431   1.568
 9651TIP3    H228918   5.739   5.482   1.513
 9652TIP3   OH228919   0.427   6.593   5.294
 9652TIP3    H128920   0.452   6.501   5.293
 9652TIP3    H228921   0.346   6.596   5.242
 9653TIP3   OH228922   6.211   2.511   4.934
 9653TIP3    H128923   6.196   2.418   4.919
 9653TIP3    H228924   6.146   2.555   4.879
 9654TIP3   OH228925   1.152   1.512   0.383
 9654TIP3    H128926   1.237   1.540   0.417
 9654TIP3    H228927   1.145   1.420   0.410
 9655TIP3   OH228928   2.610   1.486   3.829
 9655TIP3    H128929   2.704   1.470   3.826
 9655TIP3    H228930   2.570   1.399   3.824
 9656TIP3   OH228931   5.398   6.713   2.126
 9656TIP3    H128932   5.480   6.689   2.170
 9656TIP3    H228933   5.330   6.698   2.192
 9657TIP3   OH228934   1.281   3.845   1.346
 9657TIP3    H128935   1.239   3.859   1.261
 9657TIP3    H228936   1.224   3.782   1.391
 9658TIP3   OH228937   0.872   0.923   3.463
 9658TIP3    H128938   0.794   0.932   3.409
 9658TIP3    H228939   0.923   1.003   3.444
 9659TIP3   OH228940   1.089   6.110   2.779
 9659TIP3    H128941   1.024   6.108   2.849
 9659TIP3    H228942   1.061   6.042   2.718
 9660TIP3   OH228943   0.543   6.662   5.822
 9660TIP3    H128944   0.519   6.745   5.779
 9660TIP3    H228945   0.479   6.599   5.790
 9661TIP3   OH228946   6.560   0.175   2.656
 9661TIP3    H128947   6.514   0.247   2.700
 9661TIP3    H228948   6.630   0.151   2.718
 9662TIP3   OH228949   4.931   4.824   4.673
 9662TIP3    H128950   4.858   4.870   4.714
 9662TIP3    H228951   4.945   4.746   4.727
 9663TIP3   OH228952   3.335   3.926   4.983
 9663TIP3    H128953   3.304   3.996   4.926
 9663TIP3    H228954   3.310   3.955   5.071
 9664TIP3   OH228955   0.633   5.421   5.089
 9664TIP3    H128956   0.583   5.340   5.086
 9664TIP3    H228957   0.652   5.441   4.997
 9665TIP3   OH228958   2.724   3.098   1.436
 9665TIP3    H128959   2.717   3.101   1.340
 9665TIP3    H228960   2.816   3.115   1.454
 9666TIP3   OH228961   6.025   5.354   3.593
 9666TIP3    H128962   6.081   5.337   3.517
 9666TIP3    H228963   6.063   5.302   3.663
 9667TIP3   OH228964   5.029   3.839   4.542
 9667TIP3    H128965   4.942   3.879   4.554
 9667TIP3    H228966   5.090   3.912   4.555
 9668TIP3   OH228967   0.154   5.871   1.048
 9668TIP3    H128968   0.244   5.840   1.063
 9668TIP3    H228969   0.130   5.834   0.963
 9669TIP3   OH228970   1.546   3.553   5.313
 9669TIP3    H128971   1.557   3.544   5.408
 9669TIP3    H228972   1.627   3.518   5.277
 9670TIP3   OH228973   3.514   1.233   4.941
 9670TIP3    H128974   3.518   1.171   4.868
 9670TIP3    H228975   3.586   1.294   4.925
 9671TIP3   OH228976   4.586   1.653   0.137
 9671TIP3    H128977   4.561   1.655   0.230
 9671TIP3    H228978   4.603   1.561   0.119
 9672TIP3   OH228979   4.021   2.209   5.026
 9672TIP3    H128980   4.031   2.202   5.121
 9672TIP3    H228981   3.927   2.195   5.011
 9673TIP3   OH228982   1.384   2.229   2.365
 9673TIP3    H128983   1.334   2.302   2.330
 9673TIP3    H228984   1.318   2.165   2.392
 9674TIP3   OH228985   5.450   4.174   3.655
 9674TIP3    H128986   5.493   4.146   3.736
 9674TIP3    H228987   5.488   4.118   3.588
 9675TIP3   OH228988   3.267   6.645   3.481
 9675TIP3    H128989   3.302   6.590   3.552
 9675TIP3    H228990   3.336   6.710   3.465
 9676TIP3   OH228991   2.347   3.800   0.247
 9676TIP3    H128992   2.404   3.876   0.237
 9676TIP3    H228993   2.360   3.772   0.337
 9677TIP3   OH228994   3.640   5.603   0.348
 9677TIP3    H128995   3.607   5.522   0.310
 9677TIP3    H228996   3.677   5.651   0.274
 9678TIP3   OH228997   4.796   5.247   0.165
 9678TIP3    H128998   4.871   5.192   0.144
 9678TIP3    H228999   4.836   5.329   0.195
 9679TIP3   OH229000   3.664   0.971   2.175
 9679TIP3    H129001   3.682   0.993   2.266
 9679TIP3    H229002   3.624   1.050   2.139
 9680TIP3   OH229003   7.150   2.495   3.697
 9680TIP3    H129004   7.124   2.507   3.606
 9680TIP3    H229005   7.227   2.437   3.692
 9681TIP3   OH229006   3.000   2.695   2.668
 9681TIP3    H129007   2.952   2.777   2.663
 9681TIP3    H229008   2.948   2.633   2.617
 9682TIP3   OH229009   4.513   5.302   5.210
 9682TIP3    H129010   4.434   5.337   5.251
 9682TIP3    H229011   4.569   5.379   5.197
 9683TIP3   OH229012   5.379   2.204   4.417
 9683TIP3    H129013   5.460   2.171   4.457
 9683TIP3    H229014   5.327   2.126   4.400
 9684TIP3   OH229015   6.943   1.957   4.760
 9684TIP3    H129016   7.023   1.992   4.720
 9684TIP3    H229017   6.907   1.899   4.692
 9685TIP3   OH229018   5.057   2.963   3.760
 9685TIP3    H129019   4.970   2.955   3.721
 9685TIP3    H229020   5.089   2.873   3.764
 9686TIP3   OH229021   6.110   5.062   3.654
 9686TIP3    H129022   6.190   5.113   3.665
 9686TIP3    H229023   6.053   5.091   3.725
 9687TIP3   OH229024   2.197   3.804   5.177
 9687TIP3    H129025   2.273   3.825   5.231
 9687TIP3    H229026   2.221   3.724   5.131
 9688TIP3   OH229027   4.605   0.172   4.032
 9688TIP3    H129028   4.665   0.219   4.090
 9688TIP3    H229029   4.554   0.115   4.091
 9689TIP3   OH229030   3.704   6.247   4.150
 9689TIP3    H129031   3.648   6.235   4.226
 9689TIP3    H229032   3.760   6.321   4.173
 9690TIP3   OH229033   7.253   2.037   2.995
 9690TIP3    H129034   7.238   1.945   2.976
 9690TIP3    H229035   7.170   2.068   3.033
 9691TIP3   OH229036   0.734   1.554   5.681
 9691TIP3    H129037   0.652   1.506   5.669
 9691TIP3    H229038   0.732   1.622   5.614
 9692TIP3   OH229039   1.626   5.777   5.171
 9692TIP3    H129040   1.694   5.738   5.116
 9692TIP3    H229041   1.654   5.868   5.183
 9693TIP3   OH229042   6.190   3.644   3.949
 9693TIP3    H129043   6.187   3.591   3.869
 9693TIP3    H229044   6.213   3.581   4.018
 9694TIP3   OH229045   2.619   4.960   4.723
 9694TIP3    H129046   2.663   4.882   4.687
 9694TIP3    H229047   2.568   4.926   4.796
 9695TIP3   OH229048   3.768   0.400   5.164
 9695TIP3    H129049   3.758   0.425   5.256
 9695TIP3    H229050   3.705   0.328   5.152
 9696TIP3   OH229051   4.318   4.998   4.013
 9696TIP3    H129052   4.276   5.084   4.019
 9696TIP3    H229053   4.335   4.986   3.919
 9697TIP3   OH229054   4.392   0.470   1.687
 9697TIP3    H129055   4.486   0.449   1.685
 9697TIP3    H229056   4.359   0.445   1.601
 9698TIP3   OH229057   0.302   6.682   5.632
 9698TIP3    H129058   0.218   6.656   5.595
 9698TIP3    H229059   0.324   6.764   5.588
 9699TIP3   OH229060   3.928   3.266   2.856
 9699TIP3    H129061   3.941   3.193   2.915
 9699TIP3    H229062   3.844   3.303   2.881
 9700TIP3   OH229063   0.277   3.186   3.445
 9700TIP3    H129064   0.263   3.246   3.371
 9700TIP3    H229065   0.290   3.244   3.520
 9701TIP3   OH229066   4.103   5.393   5.190
 9701TIP3    H129067   4.129   5.397   5.098
 9701TIP3    H229068   4.142   5.472   5.229
 9702TIP3   OH229069   4.279   0.692   2.683
 9702TIP3    H129070   4.300   0.603   2.656
 9702TIP3    H229071   4.338   0.710   2.756
 9703TIP3   OH229072   0.245   0.605   5.806
 9703TIP3    H129073   0.332   0.567   5.816
 9703TIP3    H229074   0.220   0.583   5.716
 9704TIP3   OH229075   3.157   6.029   3.262
 9704TIP3    H129076   3.133   5.984   3.181
 9704TIP3    H229077   3.252   6.019   3.267
 9705TIP3   OH229078   6.962   3.847   1.154
 9705TIP3    H129079   7.003   3.933   1.162
 9705TIP3    H229080   7.024   3.787   1.195
 9706TIP3   OH229081   1.305   6.081   0.828
 9706TIP3    H129082   1.394   6.105   0.802
 9706TIP3    H229083   1.272   6.157   0.875
 9707TIP3   OH229084   1.541   6.236   2.123
 9707TIP3    H129085   1.633   6.253   2.103
 9707TIP3    H229086   1.539   6.233   2.219
 9708TIP3   OH229087   1.130   5.673   4.488
 9708TIP3    H129088   1.202   5.678   4.426
 9708TIP3    H229089   1.052   5.661   4.433
 9709TIP3   OH229090   1.729   5.793   4.502
 9709TIP3    H129091   1.655   5.733   4.510
 9709TIP3    H229092   1.768   5.795   4.589
 9710TIP3   OH229093   4.616   0.802   2.149
 9710TIP3    H129094   4.582   0.725   2.103
 9710TIP3    H229095   4.710   0.802   2.127
 9711TIP3   OH229096   2.869   5.219   5.444
 9711TIP3    H129097   2.854   5.162   5.368
 9711TIP3    H229098   2.961   5.243   5.439
 9712TIP3   OH229099   0.410   0.601   5.070
 9712TIP3    H129100   0.406   0.660   5.145
 9712TIP3    H229101   0.396   0.658   4.994
 9713TIP3   OH229102   1.291   0.732   2.608
 9713TIP3    H129103   1.307   0.824   2.586
 9713TIP3    H229104   1.235   0.735   2.686
 9714TIP3   OH229105   4.624   6.450   4.114
 9714TIP3    H129106   4.641   6.408   4.198
 9714TIP3    H229107   4.581   6.382   4.062
 9715TIP3   OH229108   5.013   1.277   5.661
 9715TIP3    H129109   5.071   1.349   5.635
 9715TIP3    H229110   4.998   1.227   5.581
 9716TIP3   OH229111   2.878   3.519   3.474
 9716TIP3    H129112   2.943   3.496   3.407
 9716TIP3    H229113   2.829   3.439   3.489
 9717TIP3   OH229114   5.990   6.352   2.794
 9717TIP3    H129115   6.035   6.415   2.851
 9717TIP3    H229116   6.044   6.348   2.715
 9718TIP3   OH229117   4.333   4.608   3.213
 9718TIP3    H129118   4.405   4.671   3.219
 9718TIP3    H229119   4.330   4.567   3.300
 9719TIP3   OH229120   1.288   0.539   5.284
 9719TIP3    H129121   1.318   0.615   5.333
 9719TIP3    H229122   1.350   0.532   5.211
 9720TIP3   OH229123   2.221   4.370   0.075
 9720TIP3    H129124   2.300   4.406   0.116
 9720TIP3    H229125   2.173   4.330   0.148
 9721TIP3   OH229126   4.042   5.530   1.532
 9721TIP3    H129127   3.952   5.544   1.564
 9721TIP3    H229128   4.031   5.486   1.448
 9722TIP3   OH229129   3.036   0.911   0.125
 9722TIP3    H129130   2.971   0.876   0.186
 9722TIP3    H229131   3.004   0.885   0.039
 9723TIP3   OH229132   1.351   1.677   3.767
 9723TIP3    H129133   1.442   1.655   3.787
 9723TIP3    H229134   1.334   1.757   3.816
 9724TIP3   OH229135   0.383   3.183   4.091
 9724TIP3    H129136   0.385   3.270   4.052
 9724TIP3    H229137   0.330   3.193   4.170
 9725TIP3   OH229138   5.107   6.558   2.806
 9725TIP3    H129139   5.196   6.549   2.840
 9725TIP3    H229140   5.064   6.618   2.867
 9726TIP3   OH229141   5.314   1.278   2.123
 9726TIP3    H129142   5.285   1.225   2.197
 9726TIP3    H229143   5.369   1.346   2.162
 9727TIP3   OH229144   1.853   3.403   2.000
 9727TIP3    H129145   1.907   3.480   2.019
 9727TIP3    H229146   1.899   3.359   1.928
 9728TIP3   OH229147   3.666   2.243   5.225
 9728TIP3    H129148   3.635   2.240   5.316
 9728TIP3    H229149   3.677   2.150   5.202
 9729TIP3   OH229150   4.103   5.014   5.515
 9729TIP3    H129151   4.139   4.958   5.447
 9729TIP3    H229152   4.160   5.091   5.515
 9730TIP3   OH229153   3.087   4.805   3.638
 9730TIP3    H129154   2.992   4.792   3.632
 9730TIP3    H229155   3.098   4.900   3.639
 9731TIP3   OH229156   0.830   0.648   2.792
 9731TIP3    H129157   0.877   0.567   2.808
 9731TIP3    H229158   0.835   0.661   2.697
 9732TIP3   OH229159   2.546   0.655   3.007
 9732TIP3    H129160   2.576   0.640   2.918
 9732TIP3    H229161   2.510   0.743   3.006
 9733TIP3   OH229162   6.169   0.476   3.941
 9733TIP3    H129163   6.160   0.567   3.911
 9733TIP3    H229164   6.079   0.444   3.948
 9734TIP3   OH229165   2.635   4.988   0.781
 9734TIP3    H129166   2.638   5.050   0.708
 9734TIP3    H229167   2.645   4.902   0.740
 9735TIP3   OH229168   6.102   5.651   1.058
 9735TIP3    H129169   6.162   5.720   1.029
 9735TIP3    H229170   6.034   5.698   1.107
 9736TIP3   OH229171   3.708   2.907   3.879
 9736TIP3    H129172   3.788   2.871   3.918
 9736TIP3    H229173   3.736   2.989   3.839
 9737TIP3   OH229174   4.813   4.095   2.403
 9737TIP3    H129175   4.858   4.064   2.482
 9737TIP3    H229176   4.743   4.030   2.389
 9738TIP3   OH229177   3.375   6.564   2.295
 9738TIP3    H129178   3.427   6.519   2.229
 9738TIP3    H229179   3.366   6.500   2.366
 9739TIP3   OH229180   0.590   3.922   0.319
 9739TIP3    H129181   0.649   3.987   0.281
 9739TIP3    H229182   0.614   3.840   0.276
 9740TIP3   OH229183   3.975   5.157   5.201
 9740TIP3    H129184   4.042   5.094   5.176
 9740TIP3    H229185   4.021   5.241   5.206
 9741TIP3   OH229186   6.537   1.784   2.404
 9741TIP3    H129187   6.550   1.812   2.494
 9741TIP3    H229188   6.552   1.689   2.406
 9742TIP3   OH229189   2.601   2.989   2.391
 9742TIP3    H129190   2.645   2.957   2.312
 9742TIP3    H229191   2.637   2.936   2.462
 9743TIP3   OH229192   3.377   1.865   0.914
 9743TIP3    H129193   3.349   1.886   1.003
 9743TIP3    H229194   3.310   1.805   0.882
 9744TIP3   OH229195   0.528   2.044   1.334
 9744TIP3    H129196   0.594   2.045   1.404
 9744TIP3    H229197   0.514   1.952   1.315
 9745TIP3   OH229198   0.321   2.499   1.105
 9745TIP3    H129199   0.343   2.407   1.119
 9745TIP3    H229200   0.327   2.510   1.010
 9746TIP3   OH229201   6.948   4.396   0.942
 9746TIP3    H129202   6.895   4.431   0.870
 9746TIP3    H229203   7.034   4.435   0.930
 9747TIP3   OH229204   5.706   2.092   2.546
 9747TIP3    H129205   5.695   2.043   2.464
 9747TIP3    H229206   5.654   2.171   2.533
 9748TIP3   OH229207   2.574   5.498   5.663
 9748TIP3    H129208   2.591   5.444   5.586
 9748TIP3    H229209   2.660   5.518   5.699
 9749TIP3   OH229210   6.146   5.197   5.673
 9749TIP3    H129211   6.068   5.145   5.651
 9749TIP3    H229212   6.202   5.136   5.721
   7.20529   6.79321   5.88308   0.00000   0.00000  -2.40177   0.00000  -2.40177  -3.39660
